<event>
 8    1  0.2924722E+004  0.1043930E+01  0.7957747E-01            NaN
         13   -1    0    0    0    0  0.00000000000E+00  0.00000000000E+00  0.74505805969E-08  0.10566000000E+00  0.10566000000E+00 0. -1.
     999900   -1    0    0    0    0 -0.00000000000E+00 -0.00000000000E+00 -0.74505805969E-08  0.93827000000E+00  0.93827000000E+00 0.  1.
     999902    2    1    2    0    0  0.57131395497E-02  0.57593956151E-02 -0.10520551365E-01  0.10306449482E+01  0.10305593222E+01 0.  0.
     999903    2    3    3    0    0 -0.24330707982E-01  0.18842536907E-01  0.12830254995E+00  0.13915986426E+00  0.44236850582E-01 0.  0.
         14    1    1    2    0    0 -0.57131395497E-02 -0.57593956151E-02  0.10520551365E-01  0.13285051840E-01  0.00000000000E+00 0. -1.
     999901    1    3    3    0    0  0.30043847532E-01 -0.13083141292E-01 -0.13882310131E+00  0.89148508390E+00  0.88000000000E+00 0.  1.
        -11    1    4    4    0    0 -0.24319361019E-01 -0.88047741048E-02  0.70143552949E-01  0.74761851962E-01  0.51100000000E-03 0.  1.
         11    1    4    4    0    0 -0.11346963117E-04  0.27647311012E-01  0.58158996998E-01  0.64398012297E-01  0.51100000000E-03 0. -1.
</event>
<event>
 8    1  0.2924722E+004  0.1043930E+01  0.7957747E-01            NaN
         13   -1    0    0    0    0  0.00000000000E+00  0.00000000000E+00  0.74505805969E-08  0.10566000000E+00  0.10566000000E+00 0. -1.
     999900   -1    0    0    0    0 -0.00000000000E+00 -0.00000000000E+00 -0.74505805969E-08  0.93827000000E+00  0.93827000000E+00 0.  1.
     999902    2    1    2    0    0  0.10694680228E-01  0.73705625087E-02 -0.66486106310E-02  0.10293387218E+01  0.10292352980E+01 0.  0.
     999903    2    3    3    0    0 -0.10884709314E+00  0.48308634007E-01  0.53669073659E-01  0.13826948523E+00  0.45350493643E-01 0.  0.
         14    1    1    2    0    0 -0.10694680228E-01 -0.73705625087E-02  0.66486106310E-02  0.14591278223E-01  0.00000000000E+00 0. -1.
     999901    1    3    3    0    0  0.11954177337E+00 -0.40938071498E-01 -0.60317684290E-01  0.89106923654E+00  0.88000000000E+00 0.  1.
        -11    1    4    4    0    0 -0.39515650368E-01  0.21979171751E-01 -0.24189200613E-02  0.45284466543E-01  0.51100000000E-03 0.  1.
         11    1    4    4    0    0 -0.69331442775E-01  0.26329462255E-01  0.56087993720E-01  0.92985018688E-01  0.51100000000E-03 0. -1.
</event>
<event>
 8    1  0.2924722E+004  0.1043930E+01  0.7957747E-01            NaN
         13   -1    0    0    0    0  0.00000000000E+00  0.00000000000E+00  0.74505805969E-08  0.10566000000E+00  0.10566000000E+00 0. -1.
     999900   -1    0    0    0    0 -0.00000000000E+00 -0.00000000000E+00 -0.74505805969E-08  0.93827000000E+00  0.93827000000E+00 0.  1.
     999902    2    1    2    0    0  0.20885787259E-02 -0.13760081809E-01 -0.14765873303E-02  0.10299342034E+01  0.10298391044E+01 0.  0.
     999903    2    3    3    0    0  0.39421557570E-01  0.46425224530E-01  0.11660797565E+00  0.13922662713E+00  0.45577110948E-01 0.  0.
         14    1    1    2    0    0 -0.20885787259E-02  0.13760081809E-01  0.14765873303E-02  0.13995796606E-01  0.00000000000E+00 0.  1.
     999901    1    3    3    0    0 -0.37332978844E-01 -0.60185306338E-01 -0.11808456298E+00  0.89070757627E+00  0.88000000000E+00 0.  1.
        -11    1    4    4    0    0  0.57112447971E-02  0.16250604690E-01  0.77590735500E-01  0.79481342630E-01  0.51100000000E-03 0.  1.
         11    1    4    4    0    0  0.33710312772E-01  0.30174619840E-01  0.39017240148E-01  0.59745284496E-01  0.51100000000E-03 0. -1.
</event>
<event>
 8    1  0.2924722E+004  0.1043930E+01  0.7957747E-01            NaN
         13   -1    0    0    0    0  0.00000000000E+00  0.00000000000E+00  0.74505805969E-08  0.10566000000E+00  0.10566000000E+00 0.  1.
     999900   -1    0    0    0    0 -0.00000000000E+00 -0.00000000000E+00 -0.74505805969E-08  0.93827000000E+00  0.93827000000E+00 0.  1.
     999902    2    1    2    0    0 -0.15149016516E-02 -0.59075392592E-02  0.12531177794E-01  0.10299935599E+01  0.10298992713E+01 0.  0.
     999903    2    3    3    0    0  0.83970831931E-01  0.78177197908E-01 -0.62492366732E-01  0.13869866707E+00  0.46575202180E-01 0.  0.
         14    1    1    2    0    0  0.15149016516E-02  0.59075392592E-02 -0.12531177794E-01  0.13936440149E-01  0.00000000000E+00 0. -1.
     999901    1    3    3    0    0 -0.85485733583E-01 -0.84084737168E-01  0.75023544526E-01  0.89129489278E+00  0.88000000000E+00 0.  1.
        -11    1    4    4    0    0  0.52961620562E-01  0.18588743243E-01 -0.34764732727E-01  0.66025164827E-01  0.51100000000E-03 0.  1.
         11    1    4    4    0    0  0.31009211370E-01  0.59588454665E-01 -0.27727634005E-01  0.72673502239E-01  0.51100000000E-03 0. -1.
</event>
<event>
 8    1  0.2924722E+004  0.1043930E+01  0.7957747E-01            NaN
         13   -1    0    0    0    0  0.00000000000E+00  0.00000000000E+00  0.74505805969E-08  0.10566000000E+00  0.10566000000E+00 0. -1.
     999900   -1    0    0    0    0 -0.00000000000E+00 -0.00000000000E+00 -0.74505805969E-08  0.93827000000E+00  0.93827000000E+00 0. -1.
     999902    2    1    2    0    0 -0.22015721208E-02 -0.13991775932E-01  0.68961161623E-03  0.10297492991E+01  0.10296516531E+01 0.  0.
     999903    2    3    3    0    0  0.13168285289E+00  0.27198077474E-02 -0.83104231493E-05  0.13946574687E+00  0.45857642563E-01 0.  0.
         14    1    1    2    0    0  0.22015721208E-02  0.13991775932E-01 -0.68961161623E-03  0.14180700889E-01  0.00000000000E+00 0. -1.
     999901    1    3    3    0    0 -0.13388442501E+00 -0.16711583679E-01  0.69792203938E-03  0.89028355224E+00  0.88000000000E+00 0. -1.
        -11    1    4    4    0    0  0.72169818432E-01 -0.20796546688E-01  0.50193954089E-02  0.75275723164E-01  0.51100000000E-03 0.  1.
         11    1    4    4    0    0  0.59513034461E-01  0.23516354436E-01 -0.50277058321E-02  0.64190023708E-01  0.51100000000E-03 0. -1.
</event>
<event>
 8    1  0.2924722E+004  0.1043930E+01  0.7957747E-01            NaN
         13   -1    0    0    0    0  0.00000000000E+00  0.00000000000E+00  0.74505805969E-08  0.10566000000E+00  0.10566000000E+00 0. -1.
     999900   -1    0    0    0    0 -0.00000000000E+00 -0.00000000000E+00 -0.74505805969E-08  0.93827000000E+00  0.93827000000E+00 0. -1.
     999902    2    1    2    0    0 -0.90171715787E-02  0.10121825298E-01  0.19316933822E-02  0.10302372220E+01  0.10301462233E+01 0.  0.
     999903    2    3    3    0    0 -0.53039804991E-01 -0.11367468106E+00 -0.42470175064E-01  0.13937522752E+00  0.43434827602E-01 0.  0.
         14    1    1    2    0    0  0.90171715787E-02 -0.10121825298E-01 -0.19316933822E-02  0.13692778022E-01  0.00000000000E+00 0. -1.
     999901    1    3    3    0    0  0.44022633412E-01  0.12379650636E+00  0.44401868447E-01  0.89086199445E+00  0.88000000000E+00 0.  1.
        -11    1    4    4    0    0 -0.83943264946E-02 -0.58344579399E-01 -0.33259807745E-01  0.67683311051E-01  0.51100000000E-03 0.  1.
         11    1    4    4    0    0 -0.44645478497E-01 -0.55330101666E-01 -0.92103673190E-02  0.71691916474E-01  0.51100000000E-03 0. -1.
</event>
<event>
 8    1  0.2924722E+004  0.1043930E+01  0.7957747E-01            NaN
         13   -1    0    0    0    0  0.00000000000E+00  0.00000000000E+00  0.74505805969E-08  0.10566000000E+00  0.10566000000E+00 0. -1.
     999900   -1    0    0    0    0 -0.00000000000E+00 -0.00000000000E+00 -0.74505805969E-08  0.93827000000E+00  0.93827000000E+00 0.  1.
     999902    2    1    2    0    0 -0.84989196067E-02  0.34793801006E-02  0.99837896339E-02  0.10303648323E+01  0.10302755329E+01 0.  0.
     999903    2    3    3    0    0 -0.66327416108E-01 -0.99446188482E-01  0.57958207919E-01  0.14118579940E+00  0.47805915479E-01 0.  0.
         14    1    1    2    0    0  0.84989196067E-02 -0.34793801006E-02 -0.99837896339E-02  0.13565167740E-01  0.00000000000E+00 0.  1.
     999901    1    3    3    0    0  0.57828496501E-01  0.10292556858E+00 -0.47974418285E-01  0.88917903286E+00  0.88000000000E+00 0. -1.
        -11    1    4    4    0    0 -0.67050010144E-01 -0.76901485889E-01  0.32300944874E-01  0.10701941204E+00  0.51100000000E-03 0. -1.
         11    1    4    4    0    0  0.72259403588E-03 -0.22544702593E-01  0.25657263044E-01  0.34166387358E-01  0.51100000000E-03 0.  1.
</event>
<event>
 8    1  0.2924722E+004  0.1043930E+01  0.7957747E-01            NaN
         13   -1    0    0    0    0  0.00000000000E+00  0.00000000000E+00  0.74505805969E-08  0.10566000000E+00  0.10566000000E+00 0.  1.
     999900   -1    0    0    0    0 -0.00000000000E+00 -0.00000000000E+00 -0.74505805969E-08  0.93827000000E+00  0.93827000000E+00 0.  1.
     999902    2    1    2    0    0 -0.50703704382E-02 -0.25001808309E-02 -0.12878203416E-01  0.10298655880E+01  0.10297695479E+01 0.  0.
     999903    2    3    3    0    0  0.79691458376E-02 -0.61304762636E-01  0.11525136000E+00  0.13854903773E+00  0.45729407025E-01 0.  0.
         14    1    1    2    0    0  0.50703704382E-02  0.25001808309E-02  0.12878203416E-01  0.14064411961E-01  0.00000000000E+00 0.  1.
     999901    1    3    3    0    0 -0.13039516276E-01  0.58804581806E-01 -0.12812956342E+00  0.89131655031E+00  0.88000000000E+00 0.  1.
        -11    1    4    4    0    0 -0.53202434719E-02 -0.51324709104E-01  0.52429068152E-01  0.73563571579E-01  0.51100000000E-03 0. -1.
         11    1    4    4    0    0  0.13289389309E-01 -0.99800535322E-02  0.62822291852E-01  0.64985466154E-01  0.51100000000E-03 0.  1.
</event>
<event>
 8    1  0.2924722E+004  0.1043930E+01  0.7957747E-01            NaN
         13   -1    0    0    0    0  0.00000000000E+00  0.00000000000E+00  0.74505805969E-08  0.10566000000E+00  0.10566000000E+00 0. -1.
     999900   -1    0    0    0    0 -0.00000000000E+00 -0.00000000000E+00 -0.74505805969E-08  0.93827000000E+00  0.93827000000E+00 0.  1.
     999902    2    1    2    0    0 -0.11499834986E-01  0.54474938232E-02  0.45842257267E-02  0.10304045973E+01  0.10303158242E+01 0.  0.
     999903    2    3    3    0    0 -0.12068837973E+00 -0.57118955410E-01 -0.12813098878E-01  0.14128179035E+00  0.44363371280E-01 0.  0.
         14    1    1    2    0    0  0.11499834986E-01 -0.54474938232E-02 -0.45842257267E-02  0.13525402736E-01  0.00000000000E+00 0.  1.
     999901    1    3    3    0    0  0.10918854475E+00  0.62566449234E-01  0.17397324605E-01  0.88912280692E+00  0.88000000000E+00 0. -1.
        -11    1    4    4    0    0 -0.85667611370E-01 -0.19797771550E-01  0.21638925205E-02  0.87953595424E-01  0.51100000000E-03 0.  1.
         11    1    4    4    0    0 -0.35020768363E-01 -0.37321183861E-01 -0.14976991399E-01  0.53328194924E-01  0.51100000000E-03 0. -1.
</event>
<event>
 8    1  0.2924722E+004  0.1043930E+01  0.7957747E-01            NaN
         13   -1    0    0    0    0  0.00000000000E+00  0.00000000000E+00  0.74505805969E-08  0.10566000000E+00  0.10566000000E+00 0.  1.
     999900   -1    0    0    0    0 -0.00000000000E+00 -0.00000000000E+00 -0.74505805969E-08  0.93827000000E+00  0.93827000000E+00 0.  1.
     999902    2    1    2    0    0 -0.97528715365E-02  0.23231022805E-02 -0.10293974502E-01  0.10295605456E+01  0.10294602644E+01 0.  0.
     999903    2    3    3    0    0 -0.48656661692E-01  0.11338620666E+00 -0.50552994260E-01  0.14081462767E+00  0.45268659696E-01 0.  0.
         14    1    1    2    0    0  0.97528715365E-02 -0.23231022805E-02  0.10293974502E-01  0.14369454355E-01  0.00000000000E+00 0.  1.
     999901    1    3    3    0    0  0.38903790155E-01 -0.11106310438E+00  0.40259019758E-01  0.88874591797E+00  0.88000000000E+00 0. -1.
        -11    1    4    4    0    0 -0.27471383418E-01  0.17032873126E-01 -0.17554247983E-01  0.36785981258E-01  0.51100000000E-03 0. -1.
         11    1    4    4    0    0 -0.21185278274E-01  0.96353333530E-01 -0.32998746277E-01  0.10402864641E+00  0.51100000000E-03 0.  1.
</event>
<event>
 8    1  0.2924722E+004  0.1043930E+01  0.7957747E-01            NaN
         13   -1    0    0    0    0  0.00000000000E+00  0.00000000000E+00  0.74505805969E-08  0.10566000000E+00  0.10566000000E+00 0.  1.
     999900   -1    0    0    0    0 -0.00000000000E+00 -0.00000000000E+00 -0.74505805969E-08  0.93827000000E+00  0.93827000000E+00 0. -1.
     999902    2    1    2    0    0  0.80912830472E-02  0.63365886276E-02 -0.48122425529E-02  0.10325819211E+01  0.10325195615E+01 0.  0.
     999903    2    3    3    0    0  0.13931026715E-01  0.12590497927E+00  0.48440743064E-01  0.14288164395E+00  0.44972450225E-01 0.  0.
         14    1    1    2    0    0 -0.80912830472E-02 -0.63365886276E-02  0.48122425529E-02  0.11348078920E-01  0.00000000000E+00 0.  1.
     999901    1    3    3    0    0 -0.58397436673E-02 -0.11956839064E+00 -0.53252985617E-01  0.88970027713E+00  0.88000000000E+00 0. -1.
        -11    1    4    4    0    0  0.30209210470E-01  0.80353194603E-01  0.34687165425E-01  0.92588837591E-01  0.51100000000E-03 0. -1.
         11    1    4    4    0    0 -0.16278183756E-01  0.45551784667E-01  0.13753577639E-01  0.50292806360E-01  0.51100000000E-03 0.  1.
</event>
<event>
 8    1  0.2924722E+004  0.1043930E+01  0.7957747E-01            NaN
         13   -1    0    0    0    0  0.00000000000E+00  0.00000000000E+00  0.74505805969E-08  0.10566000000E+00  0.10566000000E+00 0.  1.
     999900   -1    0    0    0    0 -0.00000000000E+00 -0.00000000000E+00 -0.74505805969E-08  0.93827000000E+00  0.93827000000E+00 0. -1.
     999902    2    1    2    0    0  0.64138748731E-02  0.12837311256E-01  0.16205066790E-02  0.10294883798E+01  0.10293870816E+01 0.  0.
     999903    2    3    3    0    0  0.56905847410E-01  0.74406786301E-02  0.11992699613E+00  0.14012063341E+00  0.44245545953E-01 0.  0.
         14    1    1    2    0    0 -0.64138748731E-02 -0.12837311256E-01 -0.16205066790E-02  0.14441620168E-01  0.00000000000E+00 0.  1.
     999901    1    3    3    0    0 -0.50491972536E-01  0.53966326261E-02 -0.11830648946E+00  0.88936774643E+00  0.88000000000E+00 0. -1.
        -11    1    4    4    0    0  0.76807747950E-02  0.18351410892E-01  0.20115422191E-01  0.28295934586E-01  0.51100000000E-03 0.  1.
         11    1    4    4    0    0  0.49225072615E-01 -0.10910732262E-01  0.99811573943E-01  0.11182469882E+00  0.51100000000E-03 0. -1.
</event>
<event>
 7    1  0.2924722E+004  0.1043930E+01  0.7957747E-01            NaN
         13   -1    0    0    0    0  0.00000000000E+00  0.00000000000E+00  0.74505805969E-08  0.10566000000E+00  0.10566000000E+00 0. -1.
     999900   -1    0    0    0    0 -0.00000000000E+00 -0.00000000000E+00 -0.74505805969E-08  0.93827000000E+00  0.93827000000E+00 0.  1.
     999902    2    1    2    0    0 -0.10844940660E-01 -0.33346663368E-02 -0.75201834815E-02  0.10303180238E+01  0.10302281030E+01 0.  0.
         14    1    1    2    0    0  0.10844940660E-01  0.33346663368E-02  0.75201834815E-02  0.13611976237E-01  0.00000000000E+00 0. -1.
     999901    1    3    3    0    0  0.58959281085E-01 -0.86174609635E-01  0.80317966192E-01  0.88980516736E+00  0.88000000000E+00 0. -1.
        -11    1    3    3    0    0 -0.32694927231E-01  0.26686305522E-01 -0.30215063916E-01  0.51906920324E-01  0.51100000000E-03 0. -1.
         11    1    3    3    0    0 -0.37109294513E-01  0.56153637776E-01 -0.57623085757E-01  0.88605936076E-01  0.51100000000E-03 0.  1.
</event>
<event>
 8    1  0.2924722E+004  0.1043930E+01  0.7957747E-01            NaN
         13   -1    0    0    0    0  0.00000000000E+00  0.00000000000E+00  0.74505805969E-08  0.10566000000E+00  0.10566000000E+00 0. -1.
     999900   -1    0    0    0    0 -0.00000000000E+00 -0.00000000000E+00 -0.74505805969E-08  0.93827000000E+00  0.93827000000E+00 0.  1.
     999902    2    1    2    0    0 -0.21130623582E-02 -0.59746791641E-02 -0.12548423997E-01  0.10298720923E+01  0.10297761416E+01 0.  0.
     999903    2    3    3    0    0  0.25662407244E-01 -0.94378079854E-01  0.87205607701E-01  0.13940170830E+00  0.47562980990E-01 0.  0.
         14    1    1    2    0    0  0.21130623582E-02  0.59746791641E-02  0.12548423997E-01  0.14057907684E-01  0.00000000000E+00 0.  1.
     999901    1    3    3    0    0 -0.27775469602E-01  0.88403400690E-01 -0.99754031698E-01  0.89047038401E+00  0.88000000000E+00 0.  1.
        -11    1    4    4    0    0  0.80398172091E-02 -0.89824841560E-01  0.76628231109E-01  0.11834393836E+00  0.51100000000E-03 0. -1.
         11    1    4    4    0    0  0.17622590035E-01 -0.45532382943E-02  0.10577376592E-01  0.21057769946E-01  0.51100000000E-03 0.  1.
</event>
<event>
 7    1  0.2924722E+004  0.1043930E+01  0.7957747E-01            NaN
         13   -1    0    0    0    0  0.00000000000E+00  0.00000000000E+00  0.74505805969E-08  0.10566000000E+00  0.10566000000E+00 0.  1.
     999900   -1    0    0    0    0 -0.00000000000E+00 -0.00000000000E+00 -0.74505805969E-08  0.93827000000E+00  0.93827000000E+00 0. -1.
     999903    2    1    2    0    0  0.80909232414E-01 -0.70481735882E-01 -0.18897133361E-01  0.11807093667E+00  0.45493575955E-01 0.  0.
         14    1    1    2    0    0  0.27269751514E-01  0.82171120045E-02  0.23678507470E-01  0.37038250409E-01  0.00000000000E+00 0.  1.
     999901    1    1    2    0    0 -0.10817898393E+00  0.62264623877E-01 -0.47813741088E-02  0.88882081293E+00  0.88000000000E+00 0.  1.
        -11    1    3    3    0    0  0.56554011784E-01 -0.72599890210E-01 -0.16557730726E-01  0.93506790530E-01  0.51100000000E-03 0. -1.
         11    1    3    3    0    0  0.24355220630E-01  0.21181543286E-02 -0.23394026350E-02  0.24564146136E-01  0.51100000000E-03 0.  1.
</event>
<event>
 8    1  0.2924722E+004  0.1043930E+01  0.7957747E-01            NaN
         13   -1    0    0    0    0  0.00000000000E+00  0.00000000000E+00  0.74505805969E-08  0.10566000000E+00  0.10566000000E+00 0.  1.
     999900   -1    0    0    0    0 -0.00000000000E+00 -0.00000000000E+00 -0.74505805969E-08  0.93827000000E+00  0.93827000000E+00 0.  1.
     999902    2    1    2    0    0 -0.12806463130E-01  0.14416110654E-02 -0.90294469010E-03  0.10310110585E+01  0.10309301158E+01 0.  0.
     999903    2    3    3    0    0  0.61444575684E-01 -0.11235150679E+00 -0.33953847712E-01  0.13996984025E+00  0.45170736609E-01 0.  0.
         14    1    1    2    0    0  0.12806463130E-01 -0.14416110654E-02  0.90294469010E-03  0.12918941500E-01  0.00000000000E+00 0. -1.
     999901    1    3    3    0    0 -0.74251038814E-01  0.11379311785E+00  0.33050903022E-01  0.89104121825E+00  0.88000000000E+00 0. -1.
        -11    1    4    4    0    0  0.58218565251E-02 -0.29235655370E-02  0.79219886983E-02  0.10269385317E-01  0.51100000000E-03 0.  1.
         11    1    4    4    0    0  0.55622719159E-01 -0.10942794125E+00 -0.41875836410E-01  0.12970045493E+00  0.51100000000E-03 0. -1.
</event>
<event>
 8    1  0.2924722E+004  0.1043930E+01  0.7957747E-01            NaN
         13   -1    0    0    0    0  0.00000000000E+00  0.00000000000E+00  0.74505805969E-08  0.10566000000E+00  0.10566000000E+00 0. -1.
     999900   -1    0    0    0    0 -0.00000000000E+00 -0.00000000000E+00 -0.74505805969E-08  0.93827000000E+00  0.93827000000E+00 0. -1.
     999902    2    1    2    0    0 -0.13477895174E-01  0.12522479943E-03  0.41330402418E-02  0.10298320795E+01  0.10297355780E+01 0.  0.
     999903    2    3    3    0    0 -0.12936657461E+00 -0.31717718720E-02 -0.34099500515E-01  0.14140493938E+00  0.45681617557E-01 0.  0.
         14    1    1    2    0    0  0.13477895174E-01 -0.12522479943E-03 -0.41330402418E-02  0.14097920457E-01  0.00000000000E+00 0.  1.
     999901    1    3    3    0    0  0.11588867943E+00  0.32969966714E-02  0.38232540757E-01  0.88842714016E+00  0.88000000000E+00 0.  1.
        -11    1    4    4    0    0 -0.76776846273E-01  0.19360565514E-01 -0.12079014593E-01  0.80097935898E-01  0.51100000000E-03 0.  1.
         11    1    4    4    0    0 -0.52589728335E-01 -0.22532337386E-01 -0.22020485922E-01  0.61307003480E-01  0.51100000000E-03 0. -1.
</event>
<event>
 8    1  0.2924722E+004  0.1043930E+01  0.7957747E-01            NaN
         13   -1    0    0    0    0  0.00000000000E+00  0.00000000000E+00  0.74505805969E-08  0.10566000000E+00  0.10566000000E+00 0. -1.
     999900   -1    0    0    0    0 -0.00000000000E+00 -0.00000000000E+00 -0.74505805969E-08  0.93827000000E+00  0.93827000000E+00 0.  1.
     999902    2    1    2    0    0 -0.67508139299E-02 -0.12724368230E-01  0.45618106781E-03  0.10295185068E+01  0.10294176337E+01 0.  0.
     999903    2    3    3    0    0 -0.52268537191E-01  0.11676394301E+00  0.27428922177E-01  0.13847046395E+00  0.45342091331E-01 0.  0.
         14    1    1    2    0    0  0.67508139299E-02  0.12724368230E-01 -0.45618106781E-03  0.14411493217E-01  0.00000000000E+00 0. -1.
     999901    1    3    3    0    0  0.45517723261E-01 -0.12948831124E+00 -0.26972741109E-01  0.89104804284E+00  0.88000000000E+00 0.  1.
        -11    1    4    4    0    0 -0.12365937729E-01  0.21586484052E-01  0.24948201465E-01  0.35235870743E-01  0.51100000000E-03 0. -1.
         11    1    4    4    0    0 -0.39902599461E-01  0.95177458960E-01  0.24807207115E-02  0.10323459320E+00  0.51100000000E-03 0.  1.
</event>
<event>
 8    1  0.2924722E+004  0.1043930E+01  0.7957747E-01            NaN
         13   -1    0    0    0    0  0.00000000000E+00  0.00000000000E+00  0.74505805969E-08  0.10566000000E+00  0.10566000000E+00 0. -1.
     999900   -1    0    0    0    0 -0.00000000000E+00 -0.00000000000E+00 -0.74505805969E-08  0.93827000000E+00  0.93827000000E+00 0. -1.
     999902    2    1    2    0    0 -0.13471532250E-01 -0.29380445465E-02  0.40373684517E-02  0.10295628628E+01  0.10294626141E+01 0.  0.
     999903    2    3    3    0    0 -0.61671216936E-03 -0.13273797095E+00 -0.13749030320E-02  0.13993228781E+00  0.44265173096E-01 0.  0.
         14    1    1    2    0    0  0.13471532250E-01  0.29380445465E-02 -0.40373684517E-02  0.14367137186E-01  0.00000000000E+00 0. -1.
     999901    1    3    3    0    0 -0.12854820080E-01  0.12979992640E+00  0.54122714838E-02  0.88963057500E+00  0.88000000000E+00 0.  1.
        -11    1    4    4    0    0 -0.72213952832E-02 -0.74422198052E-01  0.20113415497E-01  0.77431406527E-01  0.51100000000E-03 0. -1.
         11    1    4    4    0    0  0.66046831139E-02 -0.58315772895E-01 -0.21488318529E-01  0.62500881286E-01  0.51100000000E-03 0.  1.
</event>
<event>
 8    1  0.2924722E+004  0.1043930E+01  0.7957747E-01            NaN
         13   -1    0    0    0    0  0.00000000000E+00  0.00000000000E+00  0.74505805969E-08  0.10566000000E+00  0.10566000000E+00 0. -1.
     999900   -1    0    0    0    0 -0.00000000000E+00 -0.00000000000E+00 -0.74505805969E-08  0.93827000000E+00  0.93827000000E+00 0.  1.
     999902    2    1    2    0    0 -0.92285547540E-02  0.87574009041E-02 -0.64250847663E-02  0.10296772807E+01  0.10295786334E+01 0.  0.
     999903    2    3    3    0    0 -0.91685335276E-01 -0.94193432832E-01  0.14521650395E-01  0.13960045225E+00  0.44707990826E-01 0.  0.
         14    1    1    2    0    0  0.92285547540E-02 -0.87574009041E-02  0.64250847663E-02  0.14252719309E-01  0.00000000000E+00 0. -1.
     999901    1    3    3    0    0  0.82456780522E-01  0.10295083374E+00 -0.20946735161E-01  0.89007682845E+00  0.88000000000E+00 0. -1.
        -11    1    4    4    0    0 -0.45281762133E-01 -0.19692745227E-01 -0.51565494675E-02  0.49649706141E-01  0.51100000000E-03 0.  1.
         11    1    4    4    0    0 -0.46403573143E-01 -0.74500687605E-01  0.19678199862E-01  0.89950746105E-01  0.51100000000E-03 0. -1.
</event>
<event>
 8    1  0.2924722E+004  0.1043930E+01  0.7957747E-01            NaN
         13   -1    0    0    0    0  0.00000000000E+00  0.00000000000E+00  0.74505805969E-08  0.10566000000E+00  0.10566000000E+00 0.  1.
     999900   -1    0    0    0    0 -0.00000000000E+00 -0.00000000000E+00 -0.74505805969E-08  0.93827000000E+00  0.93827000000E+00 0.  1.
     999902    2    1    2    0    0  0.10920884484E-02 -0.10246074182E-01  0.10847958851E-01  0.10289682854E+01  0.10288595042E+01 0.  0.
     999903    2    3    3    0    0 -0.28085289955E-01  0.64368783374E-01 -0.10943168698E+00  0.13718025586E+00  0.43715039722E-01 0.  0.
         14    1    1    2    0    0 -0.10920884484E-02  0.10246074182E-01 -0.10847958851E-01  0.14961714626E-01  0.00000000000E+00 0. -1.
     999901    1    3    3    0    0  0.29177378403E-01 -0.74614857555E-01  0.12027964583E+00  0.89178802951E+00  0.88000000000E+00 0. -1.
        -11    1    4    4    0    0 -0.33682363668E-01  0.48544025491E-01 -0.10385194443E+00  0.11948435679E+00  0.51100000000E-03 0.  1.
         11    1    4    4    0    0  0.55970737132E-02  0.15824757883E-01 -0.55797425491E-02  0.17695899076E-01  0.51100000000E-03 0. -1.
</event>
<event>
 8    1  0.2924722E+004  0.1043930E+01  0.7957747E-01            NaN
         13   -1    0    0    0    0  0.00000000000E+00  0.00000000000E+00  0.74505805969E-08  0.10566000000E+00  0.10566000000E+00 0.  1.
     999900   -1    0    0    0    0 -0.00000000000E+00 -0.00000000000E+00 -0.74505805969E-08  0.93827000000E+00  0.93827000000E+00 0. -1.
     999902    2    1    2    0    0  0.14254760265E-02  0.13571701412E-01  0.17502370132E-02  0.10301718609E+01  0.10300799856E+01 0.  0.
     999903    2    3    3    0    0 -0.10408298840E+00  0.72820016909E-01  0.42753838419E-01  0.14094540255E+00  0.43608398996E-01 0.  0.
         14    1    1    2    0    0 -0.14254760265E-02 -0.13571701412E-01 -0.17502370132E-02  0.13758139072E-01  0.00000000000E+00 0.  1.
     999901    1    3    3    0    0  0.10550846443E+00 -0.59248315497E-01 -0.41003601406E-01  0.88922645838E+00  0.88000000000E+00 0.  1.
        -11    1    4    4    0    0 -0.51051313312E-01  0.53844265269E-01  0.76930724065E-02  0.74598163364E-01  0.51100000000E-03 0. -1.
         11    1    4    4    0    0 -0.53031675089E-01  0.18975751639E-01  0.35060766013E-01  0.66347239184E-01  0.51100000000E-03 0.  1.
</event>
<event>
 7    1  0.2924722E+004  0.1043930E+01  0.7957747E-01            NaN
         13   -1    0    0    0    0  0.00000000000E+00  0.00000000000E+00  0.74505805969E-08  0.10566000000E+00  0.10566000000E+00 0.  1.
     999900   -1    0    0    0    0 -0.00000000000E+00 -0.00000000000E+00 -0.74505805969E-08  0.93827000000E+00  0.93827000000E+00 0.  1.
     999903    2    1    2    0    0  0.47447134754E-01 -0.96217905003E-01  0.34766660304E-01  0.12070257084E+00  0.43026434899E-01 0.  0.
         14    1    1    2    0    0 -0.31362414260E-01  0.23932287732E-01 -0.55288527461E-03  0.39454544813E-01  0.00000000000E+00 0.  1.
     999901    1    1    2    0    0 -0.16084720494E-01  0.72285617271E-01 -0.34213775030E-01  0.88377288434E+00  0.88000000000E+00 0.  1.
        -11    1    3    3    0    0  0.19904060118E-01 -0.72364509544E-01  0.79803228343E-02  0.75476754860E-01  0.51100000000E-03 0.  1.
         11    1    3    3    0    0  0.27543074636E-01 -0.23853395459E-01  0.26786337470E-01  0.45225815984E-01  0.51100000000E-03 0. -1.
</event>
<event>
 8    1  0.2924722E+004  0.1043930E+01  0.7957747E-01            NaN
         13   -1    0    0    0    0  0.00000000000E+00  0.00000000000E+00  0.74505805969E-08  0.10566000000E+00  0.10566000000E+00 0. -1.
     999900   -1    0    0    0    0 -0.00000000000E+00 -0.00000000000E+00 -0.74505805969E-08  0.93827000000E+00  0.93827000000E+00 0.  1.
     999902    2    1    2    0    0 -0.16168673761E-02  0.12660020941E-01  0.67363139383E-02  0.10294984957E+01  0.10293973404E+01 0.  0.
     999903    2    3    3    0    0  0.11831232346E+00  0.59980798702E-01 -0.92283617798E-03  0.14007119155E+00  0.44984274811E-01 0.  0.
         14    1    1    2    0    0  0.16168673761E-02 -0.12660020941E-01 -0.67363139383E-02  0.14431504281E-01  0.00000000000E+00 0.  1.
     999901    1    3    3    0    0 -0.11992919084E+00 -0.47320777761E-01  0.76591501163E-02  0.88942730417E+00  0.88000000000E+00 0.  1.
        -11    1    4    4    0    0  0.39676614260E-01  0.34128680640E-02 -0.14228613062E-01  0.42291795164E-01  0.51100000000E-03 0. -1.
         11    1    4    4    0    0  0.78635709200E-01  0.56567930638E-01  0.13305776884E-01  0.97779396385E-01  0.51100000000E-03 0.  1.
</event>
<event>
 8    1  0.2924722E+004  0.1043930E+01  0.7957747E-01            NaN
         13   -1    0    0    0    0  0.00000000000E+00  0.00000000000E+00  0.74505805969E-08  0.10566000000E+00  0.10566000000E+00 0.  1.
     999900   -1    0    0    0    0 -0.00000000000E+00 -0.00000000000E+00 -0.74505805969E-08  0.93827000000E+00  0.93827000000E+00 0. -1.
     999902    2    1    2    0    0  0.36457207445E-02 -0.11163440266E-01 -0.66276816311E-02  0.10304451996E+01  0.10303569622E+01 0.  0.
     999903    2    3    3    0    0  0.11653594765E+00  0.20002491812E-01 -0.62846652480E-01  0.14090819005E+00  0.43871283585E-01 0.  0.
         14    1    1    2    0    0 -0.36457207445E-02  0.11163440266E-01  0.66276816311E-02  0.13484800411E-01  0.00000000000E+00 0.  1.
     999901    1    3    3    0    0 -0.11289022690E+00 -0.31165932078E-01  0.56218970849E-01  0.88953700954E+00  0.88000000000E+00 0.  1.
        -11    1    4    4    0    0  0.89472305405E-01  0.21173760375E-01 -0.26716646041E-01  0.95747907861E-01  0.51100000000E-03 0. -1.
         11    1    4    4    0    0  0.27063642241E-01 -0.11712685629E-02 -0.36130006439E-01  0.45160282192E-01  0.51100000000E-03 0.  1.
</event>
<event>
 8    1  0.2924722E+004  0.1043930E+01  0.7957747E-01            NaN
         13   -1    0    0    0    0  0.00000000000E+00  0.00000000000E+00  0.74505805969E-08  0.10566000000E+00  0.10566000000E+00 0.  1.
     999900   -1    0    0    0    0 -0.00000000000E+00 -0.00000000000E+00 -0.74505805969E-08  0.93827000000E+00  0.93827000000E+00 0.  1.
     999902    2    1    2    0    0  0.52342580335E-02 -0.37902141158E-02 -0.11009006885E-01  0.10311643659E+01  0.10310853448E+01 0.  0.
     999903    2    3    3    0    0  0.46992031487E-01 -0.81545143984E-01  0.94103354932E-01  0.14052518571E+00  0.45100164956E-01 0.  0.
         14    1    1    2    0    0 -0.52342580335E-02  0.37902141158E-02  0.11009006885E-01  0.12765634054E-01  0.00000000000E+00 0.  1.
     999901    1    3    3    0    0 -0.41757773453E-01  0.77754929868E-01 -0.10511236182E+00  0.89063918023E+00  0.88000000000E+00 0.  1.
        -11    1    4    4    0    0 -0.47081237429E-02 -0.32315358113E-01  0.24599340149E-01  0.40888108979E-01  0.51100000000E-03 0. -1.
         11    1    4    4    0    0  0.51700155230E-01 -0.49229785871E-01  0.69504014782E-01  0.99637076731E-01  0.51100000000E-03 0.  1.
</event>
<event>
 8    1  0.2924722E+004  0.1043930E+01  0.7957747E-01            NaN
         13   -1    0    0    0    0  0.00000000000E+00  0.00000000000E+00  0.74505805969E-08  0.10566000000E+00  0.10566000000E+00 0. -1.
     999900   -1    0    0    0    0 -0.00000000000E+00 -0.00000000000E+00 -0.74505805969E-08  0.93827000000E+00  0.93827000000E+00 0.  1.
     999902    2    1    2    0    0 -0.66034965530E-02 -0.79510016004E-02  0.80518604661E-02  0.10308282043E+01  0.10307449392E+01 0.  0.
     999903    2    3    3    0    0  0.90699190541E-01 -0.52429243058E-01 -0.85487094181E-01  0.13942724913E+00  0.34010966388E-01 0.  0.
         14    1    1    2    0    0  0.66034965530E-02  0.79510016004E-02 -0.80518604661E-02  0.13101795684E-01  0.00000000000E+00 0.  1.
     999901    1    3    3    0    0 -0.97302687094E-01  0.44478241457E-01  0.93538954647E-01  0.89140095519E+00  0.88000000000E+00 0. -1.
        -11    1    4    4    0    0  0.48868680947E-01 -0.97091985870E-02 -0.45676585039E-01  0.67594586000E-01  0.51100000000E-03 0.  1.
         11    1    4    4    0    0  0.41830509594E-01 -0.42720044471E-01 -0.39810509142E-01  0.71832663125E-01  0.51100000000E-03 0. -1.
</event>
<event>
 7    1  0.2924722E+004  0.1043930E+01  0.7957747E-01            NaN
         13   -1    0    0    0    0  0.00000000000E+00  0.00000000000E+00  0.74505805969E-08  0.10566000000E+00  0.10566000000E+00 0.  1.
     999900   -1    0    0    0    0 -0.00000000000E+00 -0.00000000000E+00 -0.74505805969E-08  0.93827000000E+00  0.93827000000E+00 0. -1.
     999903    2    1    2    0    0 -0.23758273506E-01  0.83535681317E-01 -0.29039663453E-01  0.10154832708E+00  0.43887299600E-01 0.  0.
         14    1    1    2    0    0 -0.14444037533E-01 -0.57186754583E-01 -0.12051693923E-01  0.60201315986E-01  0.00000000000E+00 0. -1.
     999901    1    1    2    0    0  0.38202311039E-01 -0.26348926734E-01  0.41091357376E-01  0.88218035693E+00  0.88000000000E+00 0. -1.
        -11    1    3    3    0    0 -0.76529213641E-02  0.79741079688E-01 -0.19523529022E-01  0.82453843462E-01  0.51100000000E-03 0.  1.
         11    1    3    3    0    0 -0.16105352142E-01  0.37946016295E-02 -0.95161344308E-02  0.19094483618E-01  0.51100000000E-03 0. -1.
</event>
<event>
 8    1  0.2924722E+004  0.1043930E+01  0.7957747E-01            NaN
         13   -1    0    0    0    0  0.00000000000E+00  0.00000000000E+00  0.74505805969E-08  0.10566000000E+00  0.10566000000E+00 0. -1.
     999900   -1    0    0    0    0 -0.00000000000E+00 -0.00000000000E+00 -0.74505805969E-08  0.93827000000E+00  0.93827000000E+00 0.  1.
     999902    2    1    2    0    0  0.83723661954E-02 -0.66929080756E-02  0.75085170530E-02  0.10308430079E+01  0.10307599321E+01 0.  0.
     999903    2    3    3    0    0 -0.80724811191E-01 -0.63346667983E-02  0.10619467253E+00  0.14085570874E+00  0.44792846160E-01 0.  0.
         14    1    1    2    0    0 -0.83723661954E-02  0.66929080756E-02 -0.75085170530E-02  0.13086992113E-01  0.00000000000E+00 0. -1.
     999901    1    3    3    0    0  0.89097177387E-01 -0.35824127734E-03 -0.98686155475E-01  0.88998729914E+00  0.88000000000E+00 0.  1.
        -11    1    4    4    0    0 -0.16308395123E-01  0.15848852263E-01  0.15953468560E-01  0.27783522988E-01  0.51100000000E-03 0.  1.
         11    1    4    4    0    0 -0.64416416068E-01 -0.22183519061E-01  0.90241203967E-01  0.11307218576E+00  0.51100000000E-03 0. -1.
</event>
<event>
 8    1  0.2924722E+004  0.1043930E+01  0.7957747E-01            NaN
         13   -1    0    0    0    0  0.00000000000E+00  0.00000000000E+00  0.74505805969E-08  0.10566000000E+00  0.10566000000E+00 0. -1.
     999900   -1    0    0    0    0 -0.00000000000E+00 -0.00000000000E+00 -0.74505805969E-08  0.93827000000E+00  0.93827000000E+00 0. -1.
     999902    2    1    2    0    0  0.37562619170E-02 -0.24320168517E-02 -0.13197847403E-01  0.10299941690E+01  0.10298998887E+01 0.  0.
     999903    2    3    3    0    0  0.11632126020E+00 -0.32816220583E-01  0.53501632288E-01  0.13980154981E+00  0.45546775564E-01 0.  0.
         14    1    1    2    0    0 -0.37562619170E-02  0.24320168517E-02  0.13197847403E-01  0.13935830999E-01  0.00000000000E+00 0. -1.
     999901    1    3    3    0    0 -0.11256499828E+00  0.30384203732E-01 -0.66699479692E-01  0.89019261919E+00  0.88000000000E+00 0. -1.
        -11    1    4    4    0    0  0.92615561569E-01 -0.13622832489E-01  0.56181766808E-01  0.10917818396E+00  0.51100000000E-03 0. -1.
         11    1    4    4    0    0  0.23705698627E-01 -0.19193388094E-01 -0.26801345198E-02  0.30623365850E-01  0.51100000000E-03 0.  1.
</event>
<event>
 8    1  0.2924722E+004  0.1043930E+01  0.7957747E-01            NaN
         13   -1    0    0    0    0  0.00000000000E+00  0.00000000000E+00  0.74505805969E-08  0.10566000000E+00  0.10566000000E+00 0. -1.
     999900   -1    0    0    0    0 -0.00000000000E+00 -0.00000000000E+00 -0.74505805969E-08  0.93827000000E+00  0.93827000000E+00 0. -1.
     999902    2    1    2    0    0  0.75031975395E-02  0.14880054779E-01  0.49092769068E-02  0.10265571763E+01  0.10264101623E+01 0.  0.
     999903    2    3    3    0    0  0.11682263513E+00 -0.46665669256E-01  0.32110287947E-01  0.13724367107E+00  0.44492042999E-01 0.  0.
         14    1    1    2    0    0 -0.75031975395E-02 -0.14880054779E-01 -0.49092769068E-02  0.17372823699E-01  0.00000000000E+00 0. -1.
     999901    1    3    3    0    0 -0.10931943759E+00  0.61545724034E-01 -0.27201011041E-01  0.88931350523E+00  0.88000000000E+00 0. -1.
        -11    1    4    4    0    0  0.30988465439E-01  0.71041542306E-02  0.11965118490E-01  0.33973212669E-01  0.51100000000E-03 0. -1.
         11    1    4    4    0    0  0.85834169695E-01 -0.53769823486E-01  0.20145169458E-01  0.10327045840E+00  0.51100000000E-03 0.  1.
</event>
<event>
 8    1  0.2924722E+004  0.1043930E+01  0.7957747E-01            NaN
         13   -1    0    0    0    0  0.00000000000E+00  0.00000000000E+00  0.74505805969E-08  0.10566000000E+00  0.10566000000E+00 0.  1.
     999900   -1    0    0    0    0 -0.00000000000E+00 -0.00000000000E+00 -0.74505805969E-08  0.93827000000E+00  0.93827000000E+00 0.  1.
     999902    2    1    2    0    0 -0.10255661611E-01 -0.60139055333E-03 -0.81976153331E-02  0.10307868968E+01  0.10307031024E+01 0.  0.
     999903    2    3    3    0    0  0.83278094470E-01  0.10330519153E+00  0.64408079742E-02  0.13963066760E+00  0.42988785898E-01 0.  0.
         14    1    1    2    0    0  0.10255661611E-01  0.60139055333E-03  0.81976153331E-02  0.13143103242E-01  0.00000000000E+00 0.  1.
     999901    1    3    3    0    0 -0.93533756081E-01 -0.10390658208E+00 -0.14638423307E-01  0.89115622916E+00  0.88000000000E+00 0.  1.
        -11    1    4    4    0    0  0.28576423318E-01  0.58546873617E-01  0.18950747933E-01  0.67850868441E-01  0.51100000000E-03 0. -1.
         11    1    4    4    0    0  0.54701671152E-01  0.44758317909E-01 -0.12509939959E-01  0.71779799162E-01  0.51100000000E-03 0.  1.
</event>
<event>
 8    1  0.2924722E+004  0.1043930E+01  0.7957747E-01            NaN
         13   -1    0    0    0    0  0.00000000000E+00  0.00000000000E+00  0.74505805969E-08  0.10566000000E+00  0.10566000000E+00 0. -1.
     999900   -1    0    0    0    0 -0.00000000000E+00 -0.00000000000E+00 -0.74505805969E-08  0.93827000000E+00  0.93827000000E+00 0.  1.
     999902    2    1    2    0    0 -0.61677403843E-02  0.46236816485E-03  0.11308966495E-01  0.10310401773E+01  0.10309596014E+01 0.  0.
     999903    2    3    3    0    0  0.93208388690E-01  0.94167882437E-01 -0.15274083072E-01  0.14010639921E+00  0.42908177329E-01 0.  0.
         14    1    1    2    0    0  0.61677403843E-02 -0.46236816485E-03 -0.11308966495E-01  0.12889822689E-01  0.00000000000E+00 0.  1.
     999901    1    3    3    0    0 -0.99376129074E-01 -0.93705514272E-01  0.26583049567E-01  0.89093377810E+00  0.88000000000E+00 0. -1.
        -11    1    4    4    0    0  0.82539929526E-01  0.56290033108E-01 -0.11638939173E-01  0.10058396403E+00  0.51100000000E-03 0. -1.
         11    1    4    4    0    0  0.10668459163E-01  0.37877849329E-01 -0.36351438988E-02  0.39522435183E-01  0.51100000000E-03 0.  1.
</event>
<event>
 7    1  0.2924722E+004  0.1043930E+01  0.7957747E-01            NaN
         13   -1    0    0    0    0  0.00000000000E+00  0.00000000000E+00  0.74505805969E-08  0.10566000000E+00  0.10566000000E+00 0.  1.
     999900   -1    0    0    0    0 -0.00000000000E+00 -0.00000000000E+00 -0.74505805969E-08  0.93827000000E+00  0.93827000000E+00 0. -1.
     999902    2    1    2    0    0  0.81295477570E-02  0.31877579934E-02  0.10524870247E-01  0.10302543193E+01  0.10301635493E+01 0.  0.
         14    1    1    2    0    0 -0.81295477570E-02 -0.31877579934E-02 -0.10524870247E-01  0.13675680659E-01  0.00000000000E+00 0. -1.
     999901    1    3    3    0    0 -0.21413069615E-01  0.13762926138E+00  0.28329093567E-02  0.89095923505E+00  0.88000000000E+00 0.  1.
        -11    1    3    3    0    0  0.68435312969E-02 -0.57125370887E-01 -0.48657557660E-02  0.57741480928E-01  0.51100000000E-03 0. -1.
         11    1    3    3    0    0  0.22699086075E-01 -0.77316132501E-01  0.12557716657E-01  0.81553603367E-01  0.51100000000E-03 0.  1.
</event>
<event>
 8    1  0.2924722E+004  0.1043930E+01  0.7957747E-01            NaN
         13   -1    0    0    0    0  0.00000000000E+00  0.00000000000E+00  0.74505805969E-08  0.10566000000E+00  0.10566000000E+00 0. -1.
     999900   -1    0    0    0    0 -0.00000000000E+00 -0.00000000000E+00 -0.74505805969E-08  0.93827000000E+00  0.93827000000E+00 0. -1.
     999902    2    1    2    0    0 -0.21068464596E-02 -0.13791083264E-01  0.31501337848E-02  0.10296276882E+01  0.10295283484E+01 0.  0.
     999903    2    3    3    0    0  0.34061385461E-01  0.12587128389E+00 -0.35951366864E-02  0.13785461367E+00  0.44578149545E-01 0.  0.
         14    1    1    2    0    0  0.21068464596E-02  0.13791083264E-01 -0.31501337848E-02  0.14302311787E-01  0.00000000000E+00 0. -1.
     999901    1    3    3    0    0 -0.36168231921E-01 -0.13966236715E+00  0.67452704712E-02  0.89177307454E+00  0.88000000000E+00 0.  1.
        -11    1    4    4    0    0  0.24592661074E-01  0.25224098243E-01  0.79094349797E-02  0.36109200954E-01  0.51100000000E-03 0.  1.
         11    1    4    4    0    0  0.94687243873E-02  0.10064718564E+00 -0.11504571666E-01  0.10174541272E+00  0.51100000000E-03 0. -1.
</event>
<event>
 8    1  0.2924722E+004  0.1043930E+01  0.7957747E-01            NaN
         13   -1    0    0    0    0  0.00000000000E+00  0.00000000000E+00  0.74505805969E-08  0.10566000000E+00  0.10566000000E+00 0.  1.
     999900   -1    0    0    0    0 -0.00000000000E+00 -0.00000000000E+00 -0.74505805969E-08  0.93827000000E+00  0.93827000000E+00 0. -1.
     999902    2    1    2    0    0 -0.27731347475E-03  0.10080101681E-01 -0.88646432259E-02  0.10305036359E+01  0.10304161666E+01 0.  0.
     999903    2    3    3    0    0  0.99270251125E-01 -0.65239754517E-01 -0.59242150808E-01  0.14026732369E+00  0.45326386745E-01 0.  0.
         14    1    1    2    0    0  0.27731347475E-03 -0.10080101681E-01  0.88646432259E-02  0.13426364071E-01  0.00000000000E+00 0. -1.
     999901    1    3    3    0    0 -0.99547564600E-01  0.75319856197E-01  0.50377507582E-01  0.89023631224E+00  0.88000000000E+00 0. -1.
        -11    1    4    4    0    0  0.77010469234E-01 -0.52378594391E-01 -0.65427445942E-01  0.11382065421E+00  0.51100000000E-03 0. -1.
         11    1    4    4    0    0  0.22259781890E-01 -0.12861160125E-01  0.61852951338E-02  0.26446669478E-01  0.51100000000E-03 0.  1.
</event>
<event>
 8    1  0.2924722E+004  0.1043930E+01  0.7957747E-01            NaN
         13   -1    0    0    0    0  0.00000000000E+00  0.00000000000E+00  0.74505805969E-08  0.10566000000E+00  0.10566000000E+00 0. -1.
     999900   -1    0    0    0    0 -0.00000000000E+00 -0.00000000000E+00 -0.74505805969E-08  0.93827000000E+00  0.93827000000E+00 0.  1.
     999902    2    1    2    0    0 -0.34034173601E-02 -0.20273836937E-02 -0.12958161209E-01  0.10303798164E+01  0.10302907155E+01 0.  0.
     999903    2    3    3    0    0  0.52535805100E-01  0.89028284910E-01 -0.84559377202E-01  0.14102776824E+00  0.45304489950E-01 0.  0.
         14    1    1    2    0    0  0.34034173601E-02  0.20273836937E-02  0.12958161209E-01  0.13550183626E-01  0.00000000000E+00 0. -1.
     999901    1    3    3    0    0 -0.55939222460E-01 -0.91055668603E-01  0.71601215993E-01  0.88935204814E+00  0.88000000000E+00 0. -1.
        -11    1    4    4    0    0 -0.26189894884E-02  0.80260579690E-02  0.36173315338E-02  0.91990717406E-02  0.51100000000E-03 0.  1.
         11    1    4    4    0    0  0.55154794588E-01  0.81002226941E-01 -0.88176708736E-01  0.13182869650E+00  0.51100000000E-03 0. -1.
</event>
<event>
 8    1  0.2924722E+004  0.1043930E+01  0.7957747E-01            NaN
         13   -1    0    0    0    0  0.00000000000E+00  0.00000000000E+00  0.74505805969E-08  0.10566000000E+00  0.10566000000E+00 0.  1.
     999900   -1    0    0    0    0 -0.00000000000E+00 -0.00000000000E+00 -0.74505805969E-08  0.93827000000E+00  0.93827000000E+00 0. -1.
     999902    2    1    2    0    0 -0.90663839290E-02  0.81200851187E-02  0.76200621892E-02  0.10295703187E+01  0.10294701747E+01 0.  0.
     999903    2    3    3    0    0  0.12483418639E+00 -0.39764230369E-03  0.40391083317E-01  0.13879770222E+00  0.45272843042E-01 0.  0.
         14    1    1    2    0    0  0.90663839290E-02 -0.81200851187E-02 -0.76200621892E-02  0.14359681321E-01  0.00000000000E+00 0. -1.
     999901    1    3    3    0    0 -0.13390057032E+00  0.85177274224E-02 -0.32771021127E-01  0.89077261646E+00  0.88000000000E+00 0. -1.
        -11    1    4    4    0    0  0.29410731236E-01  0.63993178264E-03  0.31264687338E-01  0.42931834574E-01  0.51100000000E-03 0. -1.
         11    1    4    4    0    0  0.95423455158E-01 -0.10375740863E-02  0.91263959781E-02  0.95865867643E-01  0.51100000000E-03 0.  1.
</event>
<event>
 8    1  0.2924722E+004  0.1043930E+01  0.7957747E-01            NaN
         13   -1    0    0    0    0  0.00000000000E+00  0.00000000000E+00  0.74505805969E-08  0.10566000000E+00  0.10566000000E+00 0. -1.
     999900   -1    0    0    0    0 -0.00000000000E+00 -0.00000000000E+00 -0.74505805969E-08  0.93827000000E+00  0.93827000000E+00 0.  1.
     999902    2    1    2    0    0 -0.11282533025E-02 -0.71880662657E-02  0.12430201066E-01  0.10295268354E+01  0.10294260797E+01 0.  0.
     999903    2    3    3    0    0  0.36071132512E-01 -0.29116504152E-01 -0.12191087825E+00  0.13828490624E+00  0.45951666374E-01 0.  0.
         14    1    1    2    0    0  0.11282533025E-02  0.71880662657E-02 -0.12430201066E-01  0.14403164607E-01  0.00000000000E+00 0.  1.
     999901    1    3    3    0    0 -0.37199385815E-01  0.21928437886E-01  0.13434107932E+00  0.89124192916E+00  0.88000000000E+00 0.  1.
        -11    1    4    4    0    0  0.35618026688E-01  0.38677186543E-03 -0.62191217908E-01  0.71671487521E-01  0.51100000000E-03 0. -1.
         11    1    4    4    0    0  0.45310582404E-03 -0.29503276017E-01 -0.59719660343E-01  0.66613418716E-01  0.51100000000E-03 0.  1.
</event>
<event>
 8    1  0.2924722E+004  0.1043930E+01  0.7957747E-01            NaN
         13   -1    0    0    0    0  0.00000000000E+00  0.00000000000E+00  0.74505805969E-08  0.10566000000E+00  0.10566000000E+00 0. -1.
     999900   -1    0    0    0    0 -0.00000000000E+00 -0.00000000000E+00 -0.74505805969E-08  0.93827000000E+00  0.93827000000E+00 0.  1.
     999902    2    1    2    0    0 -0.91545347303E-02 -0.44730197680E-02 -0.12479318157E-01  0.10278195440E+01  0.10276932753E+01 0.  0.
     999903    2    3    3    0    0  0.89266651089E-01 -0.40823582643E-01 -0.86208567048E-01  0.13852538825E+00  0.46068061195E-01 0.  0.
         14    1    1    2    0    0  0.91545347303E-02  0.44730197680E-02  0.12479318157E-01  0.16110456034E-01  0.00000000000E+00 0. -1.
     999901    1    3    3    0    0 -0.98421185819E-01  0.36350562875E-01  0.73729248891E-01  0.88929415571E+00  0.88000000000E+00 0. -1.
        -11    1    4    4    0    0  0.62529951717E-01 -0.36517691436E-02 -0.49457165400E-01  0.79809790189E-01  0.51100000000E-03 0. -1.
         11    1    4    4    0    0  0.26736699372E-01 -0.37171813499E-01 -0.36751401648E-01  0.58715598066E-01  0.51100000000E-03 0.  1.
</event>
<event>
 8    1  0.2924722E+004  0.1043930E+01  0.7957747E-01            NaN
         13   -1    0    0    0    0  0.00000000000E+00  0.00000000000E+00  0.74505805969E-08  0.10566000000E+00  0.10566000000E+00 0.  1.
     999900   -1    0    0    0    0 -0.00000000000E+00 -0.00000000000E+00 -0.74505805969E-08  0.93827000000E+00  0.93827000000E+00 0. -1.
     999902    2    1    2    0    0  0.14173131056E-01 -0.10896763719E-02  0.14505887098E-02  0.10296412196E+01  0.10295420690E+01 0.  0.
     999903    2    3    3    0    0 -0.35879061476E-02 -0.64717517149E-01  0.11571860750E+00  0.13979789815E+00  0.44174948891E-01 0.  0.
         14    1    1    2    0    0 -0.14173131056E-01  0.10896763719E-02 -0.14505887098E-02  0.14288780428E-01  0.00000000000E+00 0. -1.
     999901    1    3    3    0    0  0.17761037204E-01  0.63627840777E-01 -0.11426801879E+00  0.88984332142E+00  0.88000000000E+00 0. -1.
        -11    1    4    4    0    0 -0.23895190375E-01 -0.37672778404E-01  0.65898875539E-01  0.79581035894E-01  0.51100000000E-03 0. -1.
         11    1    4    4    0    0  0.20307284228E-01 -0.27044738744E-01  0.49819731957E-01  0.60216862254E-01  0.51100000000E-03 0.  1.
</event>
<event>
 8    1  0.2924722E+004  0.1043930E+01  0.7957747E-01            NaN
         13   -1    0    0    0    0  0.00000000000E+00  0.00000000000E+00  0.74505805969E-08  0.10566000000E+00  0.10566000000E+00 0.  1.
     999900   -1    0    0    0    0 -0.00000000000E+00 -0.00000000000E+00 -0.74505805969E-08  0.93827000000E+00  0.93827000000E+00 0. -1.
     999902    2    1    2    0    0 -0.12823880538E-01 -0.15764335569E-04 -0.44383883856E-02  0.10303597586E+01  0.10302703920E+01 0.  0.
     999903    2    3    3    0    0 -0.33262778827E-02  0.81017311053E-01 -0.10615918575E+00  0.14075103314E+00  0.44341986835E-01 0.  0.
         14    1    1    2    0    0  0.12823880538E-01  0.15764335569E-04  0.44383883856E-02  0.13570241414E-01  0.00000000000E+00 0.  1.
     999901    1    3    3    0    0 -0.94976026558E-02 -0.81033075389E-01  0.10172079737E+00  0.88960872544E+00  0.88000000000E+00 0.  1.
        -11    1    4    4    0    0 -0.23883091607E-01  0.43946856835E-01 -0.56641192514E-01  0.75565958611E-01  0.51100000000E-03 0. -1.
         11    1    4    4    0    0  0.20556813724E-01  0.37070454218E-01 -0.49517993241E-01  0.65185074534E-01  0.51100000000E-03 0.  1.
</event>
<event>
 8    1  0.2924722E+004  0.1043930E+01  0.7957747E-01            NaN
         13   -1    0    0    0    0  0.00000000000E+00  0.00000000000E+00  0.74505805969E-08  0.10566000000E+00  0.10566000000E+00 0. -1.
     999900   -1    0    0    0    0 -0.00000000000E+00 -0.00000000000E+00 -0.74505805969E-08  0.93827000000E+00  0.93827000000E+00 0. -1.
     999902    2    1    2    0    0  0.12470618996E-01  0.24891654742E-02 -0.58707815450E-02  0.10299236315E+01  0.10298283878E+01 0.  0.
     999903    2    3    3    0    0 -0.82145089887E-01  0.26574414815E-01 -0.10008913959E+00  0.13952522033E+00  0.44670302543E-01 0.  0.
         14    1    1    2    0    0 -0.12470618996E-01 -0.24891654742E-02  0.58707815450E-02  0.14006368510E-01  0.00000000000E+00 0.  1.
     999901    1    3    3    0    0  0.94615708883E-01 -0.24085249341E-01  0.94218358043E-01  0.89039841116E+00  0.88000000000E+00 0.  1.
        -11    1    4    4    0    0  0.52142336267E-02  0.49551290880E-02 -0.75793186715E-02  0.10461774664E-01  0.51100000000E-03 0.  1.
         11    1    4    4    0    0 -0.87359323514E-01  0.21619285727E-01 -0.92509820917E-01  0.12906344567E+00  0.51100000000E-03 0. -1.
</event>
<event>
 8    1  0.2924722E+004  0.1043930E+01  0.7957747E-01            NaN
         13   -1    0    0    0    0  0.00000000000E+00  0.00000000000E+00  0.74505805969E-08  0.10566000000E+00  0.10566000000E+00 0. -1.
     999900   -1    0    0    0    0 -0.00000000000E+00 -0.00000000000E+00 -0.74505805969E-08  0.93827000000E+00  0.93827000000E+00 0.  1.
     999902    2    1    2    0    0 -0.83106843947E-03 -0.12604850777E-01 -0.35665261805E-02  0.10308039554E+01  0.10307203798E+01 0.  0.
     999903    2    3    3    0    0  0.23947426919E-01  0.45776899830E-01 -0.12211526060E+00  0.14059262933E+00  0.46745553097E-01 0.  0.
         14    1    1    2    0    0  0.83106843947E-03  0.12604850777E-01  0.35665261805E-02  0.13126044601E-01  0.00000000000E+00 0.  1.
     999901    1    3    3    0    0 -0.24778495358E-01 -0.58381750607E-01  0.11854873442E+00  0.89021132607E+00  0.88000000000E+00 0. -1.
        -11    1    4    4    0    0  0.36257434545E-01  0.21298966726E-01 -0.68470294678E-01  0.80353530835E-01  0.51100000000E-03 0. -1.
         11    1    4    4    0    0 -0.12310007626E-01  0.24477933103E-01 -0.53644965926E-01  0.60239098490E-01  0.51100000000E-03 0.  1.
</event>
<event>
 8    1  0.2924722E+004  0.1043930E+01  0.7957747E-01            NaN
         13   -1    0    0    0    0  0.00000000000E+00  0.00000000000E+00  0.74505805969E-08  0.10566000000E+00  0.10566000000E+00 0.  1.
     999900   -1    0    0    0    0 -0.00000000000E+00 -0.00000000000E+00 -0.74505805969E-08  0.93827000000E+00  0.93827000000E+00 0.  1.
     999902    2    1    2    0    0 -0.12876198079E-01 -0.11034840944E-01 -0.73473233996E-03  0.10269563727E+01  0.10268160923E+01 0.  0.
     999903    2    3    3    0    0 -0.71290744203E-01  0.96089636727E-01 -0.49412064425E-01  0.13720506163E+00  0.45476239194E-01 0.  0.
         14    1    1    2    0    0  0.12876198079E-01  0.11034840944E-01  0.73473233996E-03  0.16973627286E-01  0.00000000000E+00 0. -1.
     999901    1    3    3    0    0  0.58414546123E-01 -0.10712447767E+00  0.48677332085E-01  0.88975131108E+00  0.88000000000E+00 0.  1.
        -11    1    4    4    0    0 -0.13490865353E-01  0.54095899503E-01 -0.29284332167E-01  0.62977797853E-01  0.51100000000E-03 0. -1.
         11    1    4    4    0    0 -0.57799878850E-01  0.41993737224E-01 -0.20127732258E-01  0.74227263778E-01  0.51100000000E-03 0.  1.
</event>
<event>
 8    1  0.2924722E+004  0.1043930E+01  0.7957747E-01            NaN
         13   -1    0    0    0    0  0.00000000000E+00  0.00000000000E+00  0.74505805969E-08  0.10566000000E+00  0.10566000000E+00 0.  1.
     999900   -1    0    0    0    0 -0.00000000000E+00 -0.00000000000E+00 -0.74505805969E-08  0.93827000000E+00  0.93827000000E+00 0.  1.
     999902    2    1    2    0    0 -0.11160142061E-01  0.14814212804E-02  0.71961407096E-02  0.10305685697E+01  0.10304819498E+01 0.  0.
     999903    2    3    3    0    0  0.12829171968E+00  0.20757034320E-01 -0.20445102895E-01  0.13895070905E+00  0.44717753752E-01 0.  0.
         14    1    1    2    0    0  0.11160142061E-01 -0.14814212804E-02 -0.71961407096E-02  0.13361430348E-01  0.00000000000E+00 0.  1.
     999901    1    3    3    0    0 -0.13945186174E+00 -0.19275613040E-01  0.27641243604E-01  0.89161786060E+00  0.88000000000E+00 0. -1.
        -11    1    4    4    0    0  0.45136770980E-01  0.60633983547E-02  0.14152645142E-01  0.47693305396E-01  0.51100000000E-03 0. -1.
         11    1    4    4    0    0  0.83154948699E-01  0.14693635965E-01 -0.34597748037E-01  0.91257403651E-01  0.51100000000E-03 0.  1.
</event>
<event>
 8    1  0.2924722E+004  0.1043930E+01  0.7957747E-01            NaN
         13   -1    0    0    0    0  0.00000000000E+00  0.00000000000E+00  0.74505805969E-08  0.10566000000E+00  0.10566000000E+00 0. -1.
     999900   -1    0    0    0    0 -0.00000000000E+00 -0.00000000000E+00 -0.74505805969E-08  0.93827000000E+00  0.93827000000E+00 0. -1.
     999902    2    1    2    0    0  0.81575945720E-02 -0.90225160533E-02 -0.60929453078E-02  0.10303257313E+01  0.10302359130E+01 0.  0.
     999903    2    3    3    0    0  0.10978775643E+00 -0.14421032529E-01  0.75132121131E-01  0.14074417503E+00  0.43620746656E-01 0.  0.
         14    1    1    2    0    0 -0.81575945720E-02  0.90225160533E-02  0.60929453078E-02  0.13604268729E-01  0.00000000000E+00 0. -1.
     999901    1    3    3    0    0 -0.10163016186E+00  0.53985164756E-02 -0.81225066439E-01  0.88958155624E+00  0.88000000000E+00 0.  1.
        -11    1    4    4    0    0  0.96838333510E-01 -0.19457452443E-01  0.47049826223E-01  0.10940842089E+00  0.51100000000E-03 0. -1.
         11    1    4    4    0    0  0.12949422921E-01  0.50364199145E-02  0.28082294908E-01  0.31335754145E-01  0.51100000000E-03 0.  1.
</event>
<event>
 8    1  0.2924722E+004  0.1043930E+01  0.7957747E-01            NaN
         13   -1    0    0    0    0  0.00000000000E+00  0.00000000000E+00  0.74505805969E-08  0.10566000000E+00  0.10566000000E+00 0.  1.
     999900   -1    0    0    0    0 -0.00000000000E+00 -0.00000000000E+00 -0.74505805969E-08  0.93827000000E+00  0.93827000000E+00 0. -1.
     999902    2    1    2    0    0 -0.72140362242E-03 -0.47117792090E-02  0.11827640808E-01  0.10311779659E+01  0.10310991140E+01 0.  0.
     999903    2    3    3    0    0 -0.10923156147E+00 -0.70503762696E-01  0.33508820238E-01  0.14181127382E+00  0.45664885569E-01 0.  0.
         14    1    1    2    0    0  0.72140362242E-03  0.47117792090E-02 -0.11827640808E-01  0.12752034095E-01  0.00000000000E+00 0. -1.
     999901    1    3    3    0    0  0.10851015784E+00  0.65791983487E-01 -0.21681179431E-01  0.88936669208E+00  0.88000000000E+00 0.  1.
        -11    1    4    4    0    0 -0.56647470761E-01 -0.61762548298E-01  0.13587671756E-01  0.84902498553E-01  0.51100000000E-03 0.  1.
         11    1    4    4    0    0 -0.52584090706E-01 -0.87412143979E-02  0.19921148482E-01  0.56908775267E-01  0.51100000000E-03 0. -1.
</event>
<event>
 8    1  0.2924722E+004  0.1043930E+01  0.7957747E-01            NaN
         13   -1    0    0    0    0  0.00000000000E+00  0.00000000000E+00  0.74505805969E-08  0.10566000000E+00  0.10566000000E+00 0. -1.
     999900   -1    0    0    0    0 -0.00000000000E+00 -0.00000000000E+00 -0.74505805969E-08  0.93827000000E+00  0.93827000000E+00 0. -1.
     999902    2    1    2    0    0 -0.77241254821E-02  0.18020162010E-02 -0.10980737783E-01  0.10303843003E+01  0.10302952589E+01 0.  0.
     999903    2    3    3    0    0 -0.87093058835E-01 -0.48267596603E-01  0.87671676220E-01  0.13991324944E+00  0.44434589899E-01 0.  0.
         14    1    1    2    0    0  0.77241254821E-02 -0.18020162010E-02  0.10980737783E-01  0.13545699654E-01  0.00000000000E+00 0. -1.
     999901    1    3    3    0    0  0.79368933353E-01  0.50069612804E-01 -0.98652414003E-01  0.89047105090E+00  0.88000000000E+00 0.  1.
        -11    1    4    4    0    0 -0.42227698726E-01  0.64576187207E-03  0.40204271131E-01  0.58311577635E-01  0.51100000000E-03 0.  1.
         11    1    4    4    0    0 -0.44865360109E-01 -0.48913358475E-01  0.47467405088E-01  0.81601671808E-01  0.51100000000E-03 0. -1.
</event>
<event>
 8    1  0.2924722E+004  0.1043930E+01  0.7957747E-01            NaN
         13   -1    0    0    0    0  0.00000000000E+00  0.00000000000E+00  0.74505805969E-08  0.10566000000E+00  0.10566000000E+00 0.  1.
     999900   -1    0    0    0    0 -0.00000000000E+00 -0.00000000000E+00 -0.74505805969E-08  0.93827000000E+00  0.93827000000E+00 0. -1.
     999902    2    1    2    0    0  0.93118637769E-02  0.53160884317E-03  0.70122472631E-03  0.10345766513E+01  0.10345343698E+01 0.  0.
     999903    2    3    3    0    0  0.79438913318E-01  0.79500095318E-01 -0.78742349131E-01  0.14470862385E+00  0.45928446137E-01 0.  0.
         14    1    1    2    0    0 -0.93118637769E-02 -0.53160884317E-03 -0.70122472631E-03  0.93533486559E-02  0.00000000000E+00 0. -1.
     999901    1    3    3    0    0 -0.70127049541E-01 -0.78968486475E-01  0.79443573857E-01  0.88986802750E+00  0.88000000000E+00 0.  1.
        -11    1    4    4    0    0  0.40878489993E-01  0.10252348489E-01 -0.27311902571E-01  0.50223129499E-01  0.51100000000E-03 0.  1.
         11    1    4    4    0    0  0.38560423325E-01  0.69247746829E-01 -0.51430446560E-01  0.94485494348E-01  0.51100000000E-03 0. -1.
</event>
<event>
 8    1  0.2924722E+004  0.1043930E+01  0.7957747E-01            NaN
         13   -1    0    0    0    0  0.00000000000E+00  0.00000000000E+00  0.74505805969E-08  0.10566000000E+00  0.10566000000E+00 0.  1.
     999900   -1    0    0    0    0 -0.00000000000E+00 -0.00000000000E+00 -0.74505805969E-08  0.93827000000E+00  0.93827000000E+00 0.  1.
     999902    2    1    2    0    0 -0.27813189321E-02 -0.64690015685E-02 -0.12255434345E-01  0.10297956664E+01  0.10296986623E+01 0.  0.
     999903    2    3    3    0    0  0.73665096097E-01  0.10936554763E+00  0.14048497548E-01  0.13853050156E+00  0.40074557876E-01 0.  0.
         14    1    1    2    0    0  0.27813189321E-02  0.64690015685E-02  0.12255434345E-01  0.14134333634E-01  0.00000000000E+00 0.  1.
     999901    1    3    3    0    0 -0.76446415029E-01 -0.11583454920E+00 -0.26303931893E-01  0.89126516480E+00  0.88000000000E+00 0. -1.
        -11    1    4    4    0    0  0.27541894018E-01  0.28765739068E-01 -0.12847219132E-01  0.41848964511E-01  0.51100000000E-03 0.  1.
         11    1    4    4    0    0  0.46123202079E-01  0.80599808561E-01  0.26895716680E-01  0.96681537052E-01  0.51100000000E-03 0. -1.
</event>
<event>
 8    1  0.2924722E+004  0.1043930E+01  0.7957747E-01            NaN
         13   -1    0    0    0    0  0.00000000000E+00  0.00000000000E+00  0.74505805969E-08  0.10566000000E+00  0.10566000000E+00 0.  1.
     999900   -1    0    0    0    0 -0.00000000000E+00 -0.00000000000E+00 -0.74505805969E-08  0.93827000000E+00  0.93827000000E+00 0.  1.
     999902    2    1    2    0    0  0.14103996419E-01  0.20732689344E-02 -0.14120904695E-02  0.10296046672E+01  0.10295050052E+01 0.  0.
     999903    2    3    3    0    0 -0.15191513152E-01  0.97388945216E-01  0.88085231637E-01  0.13946250124E+00  0.44445387824E-01 0.  0.
         14    1    1    2    0    0 -0.14103996419E-01 -0.20732689344E-02  0.14120904695E-02  0.14325332756E-01  0.00000000000E+00 0.  1.
     999901    1    3    3    0    0  0.29295509572E-01 -0.95315676282E-01 -0.89497322106E-01  0.89014216600E+00  0.88000000000E+00 0.  1.
        -11    1    4    4    0    0 -0.10920771779E-01  0.65606138079E-01  0.29684458480E-01  0.72834447936E-01  0.51100000000E-03 0.  1.
         11    1    4    4    0    0 -0.42707413735E-02  0.31782807136E-01  0.58400773157E-01  0.66628053308E-01  0.51100000000E-03 0. -1.
</event>
<event>
 8    1  0.2924722E+004  0.1043930E+01  0.7957747E-01            NaN
         13   -1    0    0    0    0  0.00000000000E+00  0.00000000000E+00  0.74505805969E-08  0.10566000000E+00  0.10566000000E+00 0. -1.
     999900   -1    0    0    0    0 -0.00000000000E+00 -0.00000000000E+00 -0.74505805969E-08  0.93827000000E+00  0.93827000000E+00 0. -1.
     999902    2    1    2    0    0 -0.68530718320E-02 -0.11443228068E-01 -0.43952927034E-02  0.10298861166E+01  0.10297903586E+01 0.  0.
     999903    2    3    3    0    0 -0.65409295001E-01 -0.48767628824E-01 -0.10697027811E+00  0.14121093987E+00  0.42909575231E-01 0.  0.
         14    1    1    2    0    0  0.68530718320E-02  0.11443228068E-01  0.43952927034E-02  0.14043883370E-01  0.00000000000E+00 0.  1.
     999901    1    3    3    0    0  0.58556223169E-01  0.37324400755E-01  0.10257498540E+00  0.88867517676E+00  0.88000000000E+00 0.  1.
        -11    1    4    4    0    0 -0.49300047973E-01 -0.14576451145E-01 -0.43539625439E-01  0.67371564940E-01  0.51100000000E-03 0. -1.
         11    1    4    4    0    0 -0.16109247028E-01 -0.34191177679E-01 -0.63430652667E-01  0.73839374927E-01  0.51100000000E-03 0.  1.
</event>
<event>
 8    1  0.2924722E+004  0.1043930E+01  0.7957747E-01            NaN
         13   -1    0    0    0    0  0.00000000000E+00  0.00000000000E+00  0.74505805969E-08  0.10566000000E+00  0.10566000000E+00 0. -1.
     999900   -1    0    0    0    0 -0.00000000000E+00 -0.00000000000E+00 -0.74505805969E-08  0.93827000000E+00  0.93827000000E+00 0. -1.
     999902    2    1    2    0    0  0.89446117102E-02 -0.95126364624E-02 -0.40633252847E-02  0.10302549518E+01  0.10301641902E+01 0.  0.
     999903    2    3    3    0    0 -0.15281872852E-01  0.85326285916E-01  0.98780810031E-01  0.13887497674E+00  0.44883182024E-01 0.  0.
         14    1    1    2    0    0 -0.89446117102E-02  0.95126364624E-02  0.40633252847E-02  0.13675048208E-01  0.00000000000E+00 0. -1.
     999901    1    3    3    0    0  0.24226484562E-01 -0.94838922378E-01 -0.10284413532E+00  0.89137997505E+00  0.88000000000E+00 0. -1.
        -11    1    4    4    0    0  0.12327044168E-02  0.72129138978E-01  0.91481936930E-01  0.11650467010E+00  0.51100000000E-03 0.  1.
         11    1    4    4    0    0 -0.16514577269E-01  0.13197146938E-01  0.72988731008E-02  0.22370306641E-01  0.51100000000E-03 0. -1.
</event>
<event>
 8    1  0.2924722E+004  0.1043930E+01  0.7957747E-01            NaN
         13   -1    0    0    0    0  0.00000000000E+00  0.00000000000E+00  0.74505805969E-08  0.10566000000E+00  0.10566000000E+00 0. -1.
     999900   -1    0    0    0    0 -0.00000000000E+00 -0.00000000000E+00 -0.74505805969E-08  0.93827000000E+00  0.93827000000E+00 0. -1.
     999902    2    1    2    0    0 -0.13550047872E-01 -0.58916840756E-04  0.21663032920E-01  0.10183782043E+01  0.10180575979E+01 0.  0.
     999903    2    3    3    0    0 -0.65073297160E-01 -0.99230996315E-01  0.33164353689E-01  0.13123558501E+00  0.45183844295E-01 0.  0.
         14    1    1    2    0    0  0.13550047872E-01  0.58916840756E-04 -0.21663032920E-01  0.25551795706E-01  0.00000000000E+00 0. -1.
     999901    1    3    3    0    0  0.51523249288E-01  0.99172079474E-01 -0.11501320769E-01  0.88714261928E+00  0.88000000000E+00 0. -1.
        -11    1    4    4    0    0 -0.38801893612E-01 -0.72602733219E-01  0.42546198034E-01  0.92667059449E-01  0.51100000000E-03 0.  1.
         11    1    4    4    0    0 -0.26271403548E-01 -0.26628263096E-01 -0.93818443451E-02  0.38568525564E-01  0.51100000000E-03 0. -1.
</event>
<event>
 8    1  0.2924722E+004  0.1043930E+01  0.7957747E-01            NaN
         13   -1    0    0    0    0  0.00000000000E+00  0.00000000000E+00  0.74505805969E-08  0.10566000000E+00  0.10566000000E+00 0. -1.
     999900   -1    0    0    0    0 -0.00000000000E+00 -0.00000000000E+00 -0.74505805969E-08  0.93827000000E+00  0.93827000000E+00 0. -1.
     999902    2    1    2    0    0  0.14043067243E-01  0.33975328169E-02  0.93987827424E-02  0.10266937567E+01  0.10265490645E+01 0.  0.
     999903    2    3    3    0    0 -0.97282665685E-01 -0.72990459530E-01  0.38948211678E-01  0.13590662558E+00  0.46498639307E-01 0.  0.
         14    1    1    2    0    0 -0.14043067243E-01 -0.33975328169E-02 -0.93987827424E-02  0.17236243322E-01  0.00000000000E+00 0.  1.
     999901    1    3    3    0    0  0.11132573293E+00  0.76387992347E-01 -0.29549428936E-01  0.89078713110E+00  0.88000000000E+00 0.  1.
        -11    1    4    4    0    0 -0.29142794851E-01 -0.33202470321E-01 -0.67926392372E-02  0.44700196822E-01  0.51100000000E-03 0.  1.
         11    1    4    4    0    0 -0.68139870834E-01 -0.39787989208E-01  0.45740850915E-01  0.91206428753E-01  0.51100000000E-03 0. -1.
</event>
<event>
 8    1  0.2924722E+004  0.1043930E+01  0.7957747E-01            NaN
         13   -1    0    0    0    0  0.00000000000E+00  0.00000000000E+00  0.74505805969E-08  0.10566000000E+00  0.10566000000E+00 0. -1.
     999900   -1    0    0    0    0 -0.00000000000E+00 -0.00000000000E+00 -0.74505805969E-08  0.93827000000E+00  0.93827000000E+00 0. -1.
     999902    2    1    2    0    0  0.92585840491E-02 -0.10009894346E-01  0.11153321683E-03  0.10302943188E+01  0.10302040824E+01 0.  0.
     999903    2    3    3    0    0 -0.54445714725E-01 -0.11420439007E-01 -0.12032761415E+00  0.13980803838E+00  0.44416107299E-01 0.  0.
         14    1    1    2    0    0 -0.92585840491E-02  0.10009894346E-01 -0.11153321683E-03  0.13635681247E-01  0.00000000000E+00 0.  1.
     999901    1    3    3    0    0  0.63704298774E-01  0.14105446613E-02  0.12043914737E+00  0.89048628038E+00  0.88000000000E+00 0.  1.
        -11    1    4    4    0    0 -0.51418573342E-01  0.13787688618E-02 -0.64764147863E-01  0.82706871888E-01  0.51100000000E-03 0. -1.
         11    1    4    4    0    0 -0.30271413830E-02 -0.12799207869E-01 -0.55563466291E-01  0.57101166489E-01  0.51100000000E-03 0.  1.
</event>
<event>
 8    1  0.2924722E+004  0.1043930E+01  0.7957747E-01            NaN
         13   -1    0    0    0    0  0.00000000000E+00  0.00000000000E+00  0.74505805969E-08  0.10566000000E+00  0.10566000000E+00 0.  1.
     999900   -1    0    0    0    0 -0.00000000000E+00 -0.00000000000E+00 -0.74505805969E-08  0.93827000000E+00  0.93827000000E+00 0.  1.
     999902    2    1    2    0    0 -0.49321725997E-02 -0.10110898281E-01  0.84494596938E-02  0.10298605309E+01  0.10297644212E+01 0.  0.
     999903    2    3    3    0    0  0.94359409144E-01 -0.66989125753E-01 -0.63996886860E-01  0.13949969167E+00  0.44422082189E-01 0.  0.
         14    1    1    2    0    0  0.49321725997E-02  0.10110898281E-01 -0.84494596938E-02  0.14069469063E-01  0.00000000000E+00 0. -1.
     999901    1    3    3    0    0 -0.99291581744E-01  0.56878227472E-01  0.72446346554E-01  0.89036083926E+00  0.88000000000E+00 0.  1.
        -11    1    4    4    0    0  0.19747052594E-01 -0.36176920112E-01 -0.33820963556E-01  0.53318236390E-01  0.51100000000E-03 0. -1.
         11    1    4    4    0    0  0.74612356550E-01 -0.30812205641E-01 -0.30175923304E-01  0.86181455283E-01  0.51100000000E-03 0.  1.
</event>
<event>
 8    1  0.2924722E+004  0.1043930E+01  0.7957747E-01            NaN
         13   -1    0    0    0    0  0.00000000000E+00  0.00000000000E+00  0.74505805969E-08  0.10566000000E+00  0.10566000000E+00 0.  1.
     999900   -1    0    0    0    0 -0.00000000000E+00 -0.00000000000E+00 -0.74505805969E-08  0.93827000000E+00  0.93827000000E+00 0.  1.
     999902    2    1    2    0    0 -0.56470385268E-02 -0.15662308966E-02 -0.12897793917E-01  0.10297633063E+01  0.10296658544E+01 0.  0.
     999903    2    3    3    0    0 -0.46862878513E-01  0.53801753761E-01 -0.11392404066E+00  0.14129796551E+00  0.43539291764E-01 0.  0.
         14    1    1    2    0    0  0.56470385268E-02  0.15662308966E-02  0.12897793917E-01  0.14166693731E-01  0.00000000000E+00 0.  1.
     999901    1    3    3    0    0  0.41215839987E-01 -0.55367984658E-01  0.10102624675E+00  0.88846534075E+00  0.88000000000E+00 0. -1.
        -11    1    4    4    0    0 -0.26031801172E-01  0.40341630088E-02 -0.20380461341E-01  0.33309960506E-01  0.51100000000E-03 0. -1.
         11    1    4    4    0    0 -0.20831077342E-01  0.49767590752E-01 -0.93543579321E-01  0.10798800501E+00  0.51100000000E-03 0.  1.
</event>
<event>
 8    1  0.2924722E+004  0.1043930E+01  0.7957747E-01            NaN
         13   -1    0    0    0    0  0.00000000000E+00  0.00000000000E+00  0.74505805969E-08  0.10566000000E+00  0.10566000000E+00 0.  1.
     999900   -1    0    0    0    0 -0.00000000000E+00 -0.00000000000E+00 -0.74505805969E-08  0.93827000000E+00  0.93827000000E+00 0. -1.
     999902    2    1    2    0    0 -0.13999867101E-01  0.45399130686E-03  0.30869542078E-02  0.10295866506E+01  0.10294867359E+01 0.  0.
     999903    2    3    3    0    0 -0.19422162842E-02 -0.75127370899E-01  0.10766828639E+00  0.14009511923E+00  0.48849651761E-01 0.  0.
         14    1    1    2    0    0  0.13999867101E-01 -0.45399130686E-03 -0.30869542078E-02  0.14343349443E-01  0.00000000000E+00 0.  1.
     999901    1    3    3    0    0 -0.12057650817E-01  0.75581362206E-01 -0.10458133218E+00  0.88949153132E+00  0.88000000000E+00 0. -1.
        -11    1    4    4    0    0 -0.72293915330E-02 -0.57825728881E-01  0.10716859967E+00  0.12198954422E+00  0.51100000000E-03 0. -1.
         11    1    4    4    0    0  0.52871752487E-02 -0.17301642018E-01  0.49968671216E-03  0.18105575010E-01  0.51100000000E-03 0.  1.
</event>
<event>
 8    1  0.2924722E+004  0.1043930E+01  0.7957747E-01            NaN
         13   -1    0    0    0    0  0.00000000000E+00  0.00000000000E+00  0.74505805969E-08  0.10566000000E+00  0.10566000000E+00 0. -1.
     999900   -1    0    0    0    0 -0.00000000000E+00 -0.00000000000E+00 -0.74505805969E-08  0.93827000000E+00  0.93827000000E+00 0.  1.
     999902    2    1    2    0    0  0.89537781550E-02 -0.26758834435E-02 -0.10431533231E-01  0.10299247374E+01  0.10298295088E+01 0.  0.
     999903    2    3    3    0    0 -0.57948059785E-01 -0.83650039819E-01 -0.85791931446E-01  0.14048004571E+00  0.44934184620E-01 0.  0.
         14    1    1    2    0    0 -0.89537781550E-02  0.26758834435E-02  0.10431533231E-01  0.14005262618E-01  0.00000000000E+00 0. -1.
     999901    1    3    3    0    0  0.66901837940E-01  0.80974156376E-01  0.75360398215E-01  0.88944469167E+00  0.88000000000E+00 0.  1.
        -11    1    4    4    0    0 -0.22356187808E-02 -0.29678888436E-01 -0.41763457271E-01  0.51286273937E-01  0.51100000000E-03 0. -1.
         11    1    4    4    0    0 -0.55712441004E-01 -0.53971151383E-01 -0.44028474175E-01  0.89193771775E-01  0.51100000000E-03 0.  1.
</event>
<event>
 8    1  0.2924722E+004  0.1043930E+01  0.7957747E-01            NaN
         13   -1    0    0    0    0  0.00000000000E+00  0.00000000000E+00  0.74505805969E-08  0.10566000000E+00  0.10566000000E+00 0.  1.
     999900   -1    0    0    0    0 -0.00000000000E+00 -0.00000000000E+00 -0.74505805969E-08  0.93827000000E+00  0.93827000000E+00 0. -1.
     999902    2    1    2    0    0 -0.13535374475E-01  0.20282048040E-02  0.35451895202E-02  0.10297918125E+01  0.10296947551E+01 0.  0.
     999903    2    3    3    0    0 -0.88364894808E-01 -0.65858842084E-01  0.75544021053E-01  0.14108942138E+00  0.45316486994E-01 0.  0.
         14    1    1    2    0    0  0.13535374475E-01 -0.20282048040E-02 -0.35451895202E-02  0.14138187495E-01  0.00000000000E+00 0. -1.
     999901    1    3    3    0    0  0.74829520333E-01  0.67887046888E-01 -0.71998831533E-01  0.88870239112E+00  0.88000000000E+00 0. -1.
        -11    1    4    4    0    0 -0.83681271002E-01 -0.40198576761E-01  0.55223627397E-01  0.10802032602E+00  0.51100000000E-03 0.  1.
         11    1    4    4    0    0 -0.46836238052E-02 -0.25660265324E-01  0.20320393656E-01  0.33069095358E-01  0.51100000000E-03 0. -1.
</event>
<event>
 8    1  0.2924722E+004  0.1043930E+01  0.7957747E-01            NaN
         13   -1    0    0    0    0  0.00000000000E+00  0.00000000000E+00  0.74505805969E-08  0.10566000000E+00  0.10566000000E+00 0. -1.
     999900   -1    0    0    0    0 -0.00000000000E+00 -0.00000000000E+00 -0.74505805969E-08  0.93827000000E+00  0.93827000000E+00 0.  1.
     999902    2    1    2    0    0  0.99733571542E-02  0.55919556247E-02 -0.63706846067E-02  0.10308409419E+01  0.10307578396E+01 0.  0.
     999903    2    3    3    0    0 -0.46148051756E-01 -0.30391507319E-01 -0.12141127691E+00  0.14085287451E+00  0.45227731524E-01 0.  0.
         14    1    1    2    0    0 -0.99733571542E-02 -0.55919556247E-02  0.63706846067E-02  0.13089058140E-01  0.00000000000E+00 0. -1.
     999901    1    3    3    0    0  0.56121408910E-01  0.35983462943E-01  0.11504059231E+00  0.88998806735E+00  0.88000000000E+00 0. -1.
        -11    1    4    4    0    0 -0.16767531790E-01  0.11077068671E-01 -0.42115606354E-01  0.46667301103E-01  0.51100000000E-03 0. -1.
         11    1    4    4    0    0 -0.29380519966E-01 -0.41468575990E-01 -0.79295670559E-01  0.94185573410E-01  0.51100000000E-03 0.  1.
</event>
<event>
 8    1  0.2924722E+004  0.1043930E+01  0.7957747E-01            NaN
         13   -1    0    0    0    0  0.00000000000E+00  0.00000000000E+00  0.74505805969E-08  0.10566000000E+00  0.10566000000E+00 0.  1.
     999900   -1    0    0    0    0 -0.00000000000E+00 -0.00000000000E+00 -0.74505805969E-08  0.93827000000E+00  0.93827000000E+00 0. -1.
     999902    2    1    2    0    0 -0.13972496921E-01  0.18060798771E-02 -0.16554405054E-02  0.10297443355E+01  0.10296466206E+01 0.  0.
     999903    2    3    3    0    0 -0.94462575415E-01  0.38974165614E-01 -0.86377971182E-01  0.14124108476E+00  0.45229706813E-01 0.  0.
         14    1    1    2    0    0  0.13972496921E-01 -0.18060798771E-02  0.16554405054E-02  0.14185664524E-01  0.00000000000E+00 0.  1.
     999901    1    3    3    0    0  0.80490078494E-01 -0.37168085737E-01  0.84722530677E-01  0.88850325072E+00  0.88000000000E+00 0.  1.
        -11    1    4    4    0    0 -0.11633771092E-01  0.25228050323E-01 -0.21460340480E-01  0.35108495944E-01  0.51100000000E-03 0. -1.
         11    1    4    4    0    0 -0.82828804323E-01  0.13746115291E-01 -0.64917630702E-01  0.10613258881E+00  0.51100000000E-03 0.  1.
</event>
<event>
 8    1  0.2924722E+004  0.1043930E+01  0.7957747E-01            NaN
         13   -1    0    0    0    0  0.00000000000E+00  0.00000000000E+00  0.74505805969E-08  0.10566000000E+00  0.10566000000E+00 0. -1.
     999900   -1    0    0    0    0 -0.00000000000E+00 -0.00000000000E+00 -0.74505805969E-08  0.93827000000E+00  0.93827000000E+00 0. -1.
     999902    2    1    2    0    0  0.18761275874E-01 -0.65615362246E-02 -0.12883666089E-01  0.10202439686E+01  0.10199689836E+01 0.  0.
     999903    2    3    3    0    0 -0.32184237761E-01  0.11664151669E+00  0.19254293121E-01  0.12962211508E+00  0.42309530120E-01 0.  0.
         14    1    1    2    0    0 -0.18761275874E-01  0.65615362246E-02  0.12883666089E-01  0.23686031367E-01  0.00000000000E+00 0. -1.
     999901    1    3    3    0    0  0.50945513635E-01 -0.12320305291E+00 -0.32137959210E-01  0.89062185355E+00  0.88000000000E+00 0. -1.
        -11    1    4    4    0    0  0.71876278053E-03  0.30481602954E-01  0.21588115233E-01  0.37362448781E-01  0.51100000000E-03 0.  1.
         11    1    4    4    0    0 -0.32903000541E-01  0.86159913731E-01 -0.23338221115E-02  0.92259666298E-01  0.51100000000E-03 0. -1.
</event>
<event>
 8    1  0.2924722E+004  0.1043930E+01  0.7957747E-01            NaN
         13   -1    0    0    0    0  0.00000000000E+00  0.00000000000E+00  0.74505805969E-08  0.10566000000E+00  0.10566000000E+00 0. -1.
     999900   -1    0    0    0    0 -0.00000000000E+00 -0.00000000000E+00 -0.74505805969E-08  0.93827000000E+00  0.93827000000E+00 0. -1.
     999902    2    1    2    0    0 -0.43524324358E-03  0.77805781269E-02 -0.11707571958E-01  0.10298660719E+01  0.10297700384E+01 0.  0.
     999903    2    3    3    0    0 -0.89095962645E-01 -0.23893868278E-01  0.93403554640E-01  0.13862404940E+00  0.44535329257E-01 0.  0.
         14    1    1    2    0    0  0.43524324358E-03 -0.77805781269E-02  0.11707571958E-01  0.14063928108E-01  0.00000000000E+00 0. -1.
     999901    1    3    3    0    0  0.88660719401E-01  0.31674446405E-01 -0.10511112660E+00  0.89124202249E+00  0.88000000000E+00 0. -1.
        -11    1    4    4    0    0 -0.84544862550E-01 -0.21115226267E-01  0.98300969275E-01  0.13136600871E+00  0.51100000000E-03 0.  1.
         11    1    4    4    0    0 -0.45511000942E-02 -0.27786420106E-02 -0.48974146358E-02  0.72580406864E-02  0.51100000000E-03 0. -1.
</event>
<event>
 8    1  0.2924722E+004  0.1043930E+01  0.7957747E-01            NaN
         13   -1    0    0    0    0  0.00000000000E+00  0.00000000000E+00  0.74505805969E-08  0.10566000000E+00  0.10566000000E+00 0. -1.
     999900   -1    0    0    0    0 -0.00000000000E+00 -0.00000000000E+00 -0.74505805969E-08  0.93827000000E+00  0.93827000000E+00 0.  1.
     999902    2    1    2    0    0  0.14596339164E-01  0.16259748144E-02 -0.86806381087E-03  0.10292177450E+01  0.10291125868E+01 0.  0.
     999903    2    3    3    0    0  0.90847470487E-01 -0.48867222194E-01 -0.85277295991E-01  0.14046090741E+00  0.42611981870E-01 0.  0.
         14    1    1    2    0    0 -0.14596339164E-01 -0.16259748144E-02  0.86806381087E-03  0.14712254955E-01  0.00000000000E+00 0.  1.
     999901    1    3    3    0    0 -0.76251131324E-01  0.50493197009E-01  0.84409232180E-01  0.88875683764E+00  0.88000000000E+00 0. -1.
        -11    1    4    4    0    0  0.34214412879E-01 -0.42533433777E-01 -0.40001459992E-01  0.67676413616E-01  0.51100000000E-03 0. -1.
         11    1    4    4    0    0  0.56633057609E-01 -0.63337884176E-02 -0.45275836000E-01  0.72784493790E-01  0.51100000000E-03 0.  1.
</event>
<event>
 8    1  0.2924722E+004  0.1043930E+01  0.7957747E-01            NaN
         13   -1    0    0    0    0  0.00000000000E+00  0.00000000000E+00  0.74505805969E-08  0.10566000000E+00  0.10566000000E+00 0. -1.
     999900   -1    0    0    0    0 -0.00000000000E+00 -0.00000000000E+00 -0.74505805969E-08  0.93827000000E+00  0.93827000000E+00 0. -1.
     999902    2    1    2    0    0  0.83146389631E-03 -0.37204574913E-02  0.13338919137E-01  0.10300570083E+01  0.10299635821E+01 0.  0.
     999903    2    3    3    0    0  0.34871400146E-01 -0.10914751151E+00 -0.66332465158E-01  0.13953968083E+00  0.44069635501E-01 0.  0.
         14    1    1    2    0    0 -0.83146389631E-03  0.37204574913E-02 -0.13338919137E-01  0.13872991743E-01  0.00000000000E+00 0.  1.
     999901    1    3    3    0    0 -0.34039936249E-01  0.10542705402E+00  0.79671384295E-01  0.89051732743E+00  0.88000000000E+00 0. -1.
        -11    1    4    4    0    0 -0.81842856041E-02 -0.43393576243E-01 -0.24515421764E-01  0.50509919969E-01  0.51100000000E-03 0.  1.
         11    1    4    4    0    0  0.43055685750E-01 -0.65753935271E-01 -0.41817043394E-01  0.89029760857E-01  0.51100000000E-03 0. -1.
</event>
<event>
 8    1  0.2924722E+004  0.1043930E+01  0.7957747E-01            NaN
         13   -1    0    0    0    0  0.00000000000E+00  0.00000000000E+00  0.74505805969E-08  0.10566000000E+00  0.10566000000E+00 0.  1.
     999900   -1    0    0    0    0 -0.00000000000E+00 -0.00000000000E+00 -0.74505805969E-08  0.93827000000E+00  0.93827000000E+00 0. -1.
     999902    2    1    2    0    0  0.13096874419E-01 -0.68746268551E-02  0.54197291480E-02  0.10281768391E+01  0.10280561514E+01 0.  0.
     999903    2    3    3    0    0  0.94690210552E-01  0.81977353434E-01  0.40678113016E-01  0.13924753903E+00  0.45261968562E-01 0.  0.
         14    1    1    2    0    0 -0.13096874419E-01  0.68746268551E-02 -0.54197291480E-02  0.15753160889E-01  0.00000000000E+00 0.  1.
     999901    1    3    3    0    0 -0.81593336133E-01 -0.88851980289E-01 -0.35258383868E-01  0.88892930008E+00  0.88000000000E+00 0. -1.
        -11    1    4    4    0    0  0.61600962682E-01  0.77795223957E-01  0.24691387854E-01  0.10225801303E+00  0.51100000000E-03 0.  1.
         11    1    4    4    0    0  0.33089247870E-01  0.41821294775E-02  0.15986725162E-01  0.36989526003E-01  0.51100000000E-03 0. -1.
</event>
<event>
 7    1  0.2924722E+004  0.1043930E+01  0.7957747E-01            NaN
         13   -1    0    0    0    0  0.00000000000E+00  0.00000000000E+00  0.74505805969E-08  0.10566000000E+00  0.10566000000E+00 0. -1.
     999900   -1    0    0    0    0 -0.00000000000E+00 -0.00000000000E+00 -0.74505805969E-08  0.93827000000E+00  0.93827000000E+00 0.  1.
     999902    2    1    2    0    0  0.48172429747E-02 -0.10487923897E-01  0.64041138005E-02  0.10307309451E+01  0.10306464312E+01 0.  0.
         14    1    1    2    0    0 -0.48172429747E-02  0.10487923897E-01 -0.64041138005E-02  0.13199054933E-01  0.00000000000E+00 0.  1.
     999901    1    3    3    0    0  0.60063338737E-01 -0.13473636777E+00  0.65899528449E-03  0.89227906382E+00  0.88000000000E+00 0. -1.
        -11    1    3    3    0    0 -0.39130220792E-01  0.67777716981E-01 -0.62452741842E-02  0.78512786660E-01  0.51100000000E-03 0. -1.
         11    1    3    3    0    0 -0.16115874971E-01  0.56470726891E-01  0.11990392700E-01  0.59939094586E-01  0.51100000000E-03 0.  1.
</event>
<event>
 8    1  0.2924722E+004  0.1043930E+01  0.7957747E-01            NaN
         13   -1    0    0    0    0  0.00000000000E+00  0.00000000000E+00  0.74505805969E-08  0.10566000000E+00  0.10566000000E+00 0. -1.
     999900   -1    0    0    0    0 -0.00000000000E+00 -0.00000000000E+00 -0.74505805969E-08  0.93827000000E+00  0.93827000000E+00 0.  1.
     999902    2    1    2    0    0  0.13678849998E-01 -0.20755806573E-02  0.17937335728E-02  0.10299787831E+01  0.10298842931E+01 0.  0.
     999903    2    3    3    0    0  0.72932364249E-01 -0.86046149619E-01  0.72342406974E-01  0.14119357244E+00  0.44487430051E-01 0.  0.
         14    1    1    2    0    0 -0.13678849998E-01  0.20755806573E-02 -0.17937335728E-02  0.13951216881E-01  0.00000000000E+00 0.  1.
     999901    1    3    3    0    0 -0.59253514251E-01  0.83970568961E-01 -0.70548673401E-01  0.88878521068E+00  0.88000000000E+00 0. -1.
        -11    1    4    4    0    0 -0.35514185760E-02 -0.14666013008E-01  0.22515473181E-02  0.15265487145E-01  0.51100000000E-03 0. -1.
         11    1    4    4    0    0  0.76483782825E-01 -0.71380136610E-01  0.70090859656E-01  0.12592808529E+00  0.51100000000E-03 0.  1.
</event>
<event>
 8    1  0.2924722E+004  0.1043930E+01  0.7957747E-01            NaN
         13   -1    0    0    0    0  0.00000000000E+00  0.00000000000E+00  0.74505805969E-08  0.10566000000E+00  0.10566000000E+00 0.  1.
     999900   -1    0    0    0    0 -0.00000000000E+00 -0.00000000000E+00 -0.74505805969E-08  0.93827000000E+00  0.93827000000E+00 0.  1.
     999902    2    1    2    0    0  0.81701212709E-02 -0.82166326407E-02  0.68627424263E-02  0.10304629600E+01  0.10303749564E+01 0.  0.
     999903    2    3    3    0    0  0.47060731243E-01  0.45249723942E-01 -0.11489290424E+00  0.13962314927E+00  0.45077648858E-01 0.  0.
         14    1    1    2    0    0 -0.81701212709E-02  0.82166326407E-02 -0.68627424263E-02  0.13467040029E-01  0.00000000000E+00 0. -1.
     999901    1    3    3    0    0 -0.38890609972E-01 -0.53466356583E-01  0.12175564666E+00  0.89083981070E+00  0.88000000000E+00 0. -1.
        -11    1    4    4    0    0  0.20992146776E-01  0.48695719798E-01 -0.76010122668E-01  0.92680867615E-01  0.51100000000E-03 0.  1.
         11    1    4    4    0    0  0.26068584467E-01 -0.34459958563E-02 -0.38882781570E-01  0.46942281657E-01  0.51100000000E-03 0. -1.
</event>
<event>
 8    1  0.2924722E+004  0.1043930E+01  0.7957747E-01            NaN
         13   -1    0    0    0    0  0.00000000000E+00  0.00000000000E+00  0.74505805969E-08  0.10566000000E+00  0.10566000000E+00 0. -1.
     999900   -1    0    0    0    0 -0.00000000000E+00 -0.00000000000E+00 -0.74505805969E-08  0.93827000000E+00  0.93827000000E+00 0. -1.
     999902    2    1    2    0    0 -0.81889037468E-02  0.10793178482E-01  0.40232498343E-02  0.10297971522E+01  0.10297001687E+01 0.  0.
     999903    2    3    3    0    0 -0.67595643518E-01 -0.63445996364E-01  0.94159433443E-01  0.14009768197E+00  0.46548857248E-01 0.  0.
         14    1    1    2    0    0  0.81889037468E-02 -0.10793178482E-01 -0.40232498343E-02  0.14132847751E-01  0.00000000000E+00 0.  1.
     999901    1    3    3    0    0  0.59406739771E-01  0.74239174846E-01 -0.90136183609E-01  0.88969947027E+00  0.88000000000E+00 0. -1.
        -11    1    4    4    0    0 -0.16418192477E-01 -0.23980462191E-02  0.41249546109E-01  0.44464523443E-01  0.51100000000E-03 0.  1.
         11    1    4    4    0    0 -0.51177451041E-01 -0.61047950144E-01  0.52909887334E-01  0.95633158531E-01  0.51100000000E-03 0. -1.
</event>
<event>
 8    1  0.2924722E+004  0.1043930E+01  0.7957747E-01            NaN
         13   -1    0    0    0    0  0.00000000000E+00  0.00000000000E+00  0.74505805969E-08  0.10566000000E+00  0.10566000000E+00 0.  1.
     999900   -1    0    0    0    0 -0.00000000000E+00 -0.00000000000E+00 -0.74505805969E-08  0.93827000000E+00  0.93827000000E+00 0.  1.
     999902    2    1    2    0    0 -0.52484787298E-02  0.17344221283E-03 -0.11532803741E-01  0.10312578978E+01  0.10311800375E+01 0.  0.
     999903    2    3    3    0    0  0.97053327649E-01  0.48754898084E-01  0.75479789970E-01  0.13974401185E+00  0.45108775844E-01 0.  0.
         14    1    1    2    0    0  0.52484787298E-02 -0.17344221283E-03  0.11532803741E-01  0.12672102166E-01  0.00000000000E+00 0.  1.
     999901    1    3    3    0    0 -0.10230180638E+00 -0.48581455871E-01 -0.87012593711E-01  0.89151388599E+00  0.88000000000E+00 0.  1.
        -11    1    4    4    0    0  0.70179367265E-01  0.48367336726E-01  0.73910697906E-01  0.11281664433E+00  0.51100000000E-03 0.  1.
         11    1    4    4    0    0  0.26873960384E-01  0.38756135819E-03  0.15690920638E-02  0.26927367518E-01  0.51100000000E-03 0. -1.
</event>
<event>
 8    1  0.2924722E+004  0.1043930E+01  0.7957747E-01            NaN
         13   -1    0    0    0    0  0.00000000000E+00  0.00000000000E+00  0.74505805969E-08  0.10566000000E+00  0.10566000000E+00 0. -1.
     999900   -1    0    0    0    0 -0.00000000000E+00 -0.00000000000E+00 -0.74505805969E-08  0.93827000000E+00  0.93827000000E+00 0. -1.
     999902    2    1    2    0    0 -0.61849217865E-02 -0.41929432768E-02  0.11751977624E-01  0.10300036577E+01  0.10299095067E+01 0.  0.
     999903    2    3    3    0    0  0.90500924378E-01 -0.88402798815E-01 -0.37759349275E-01  0.13933490668E+00  0.44530614293E-01 0.  0.
         14    1    1    2    0    0  0.61849217865E-02  0.41929432768E-02 -0.11751977624E-01  0.13926342266E-01  0.00000000000E+00 0.  1.
     999901    1    3    3    0    0 -0.96685846165E-01  0.84209855538E-01  0.49511326899E-01  0.89066875106E+00  0.88000000000E+00 0.  1.
        -11    1    4    4    0    0  0.73649702514E-01 -0.88612040986E-01 -0.24294018154E-01  0.11775751750E+00  0.51100000000E-03 0. -1.
         11    1    4    4    0    0  0.16851221864E-01  0.20924217109E-03 -0.13465331121E-01  0.21577389179E-01  0.51100000000E-03 0.  1.
</event>
<event>
 8    1  0.2924722E+004  0.1043930E+01  0.7957747E-01            NaN
         13   -1    0    0    0    0  0.00000000000E+00  0.00000000000E+00  0.74505805969E-08  0.10566000000E+00  0.10566000000E+00 0.  1.
     999900   -1    0    0    0    0 -0.00000000000E+00 -0.00000000000E+00 -0.74505805969E-08  0.93827000000E+00  0.93827000000E+00 0. -1.
     999902    2    1    2    0    0  0.10122113296E-01  0.38533679750E-02  0.84467242658E-02  0.10301949072E+01  0.10301033415E+01 0.  0.
     999903    2    3    3    0    0  0.12390267484E+00  0.36642950270E-01  0.37493346034E-01  0.14178909955E+00  0.44764038221E-01 0.  0.
         14    1    1    2    0    0 -0.10122113296E-01 -0.38533679750E-02 -0.84467242658E-02  0.13735092761E-01  0.00000000000E+00 0. -1.
     999901    1    3    3    0    0 -0.11378056155E+00 -0.32789582295E-01 -0.29046621768E-01  0.88840580769E+00  0.88000000000E+00 0. -1.
        -11    1    4    4    0    0  0.15512704392E-01  0.18367744843E-01 -0.38431193091E-02  0.24352591961E-01  0.51100000000E-03 0.  1.
         11    1    4    4    0    0  0.10838997045E+00  0.18275205427E-01  0.41336465343E-01  0.11743650759E+00  0.51100000000E-03 0. -1.
</event>
<event>
 8    1  0.2924722E+004  0.1043930E+01  0.7957747E-01            NaN
         13   -1    0    0    0    0  0.00000000000E+00  0.00000000000E+00  0.74505805969E-08  0.10566000000E+00  0.10566000000E+00 0. -1.
     999900   -1    0    0    0    0 -0.00000000000E+00 -0.00000000000E+00 -0.74505805969E-08  0.93827000000E+00  0.93827000000E+00 0.  1.
     999902    2    1    2    0    0  0.82458051555E-02 -0.11204919257E-01 -0.41357369384E-02  0.10294162879E+01  0.10293139686E+01 0.  0.
     999903    2    3    3    0    0  0.95900038647E-01 -0.52550739262E-01 -0.76979638695E-01  0.14110385668E+00  0.45011509489E-01 0.  0.
         14    1    1    2    0    0 -0.82458051555E-02  0.11204919257E-01  0.41357369384E-02  0.14513712077E-01  0.00000000000E+00 0.  1.
     999901    1    3    3    0    0 -0.87654233492E-01  0.41345820004E-01  0.72843901757E-01  0.88831243124E+00  0.88000000000E+00 0. -1.
        -11    1    4    4    0    0  0.55593755249E-01 -0.44021301053E-01 -0.25940607194E-01  0.75509713227E-01  0.51100000000E-03 0.  1.
         11    1    4    4    0    0  0.40306283398E-01 -0.85294382088E-02 -0.51039031501E-01  0.65594143451E-01  0.51100000000E-03 0. -1.
</event>
<event>
 8    1  0.2924722E+004  0.1043930E+01  0.7957747E-01            NaN
         13   -1    0    0    0    0  0.00000000000E+00  0.00000000000E+00  0.74505805969E-08  0.10566000000E+00  0.10566000000E+00 0. -1.
     999900   -1    0    0    0    0 -0.00000000000E+00 -0.00000000000E+00 -0.74505805969E-08  0.93827000000E+00  0.93827000000E+00 0. -1.
     999902    2    1    2    0    0 -0.12665814556E-01  0.30043018946E-02  0.66540288477E-02  0.10293106707E+01  0.10292068461E+01 0.  0.
     999903    2    3    3    0    0 -0.55333800523E-01 -0.87379528601E-01 -0.81904439439E-01  0.13923629399E+00  0.44512884249E-01 0.  0.
         14    1    1    2    0    0  0.12665814556E-01 -0.30043018946E-02 -0.66540288477E-02  0.14619329265E-01  0.00000000000E+00 0.  1.
     999901    1    3    3    0    0  0.42667985966E-01  0.90383830496E-01  0.88558468286E-01  0.89007437675E+00  0.88000000000E+00 0.  1.
        -11    1    4    4    0    0 -0.49656528181E-01 -0.38517764048E-01 -0.39015491358E-01  0.73972012445E-01  0.51100000000E-03 0.  1.
         11    1    4    4    0    0 -0.56772723411E-02 -0.48861764554E-01 -0.42888948080E-01  0.65264281540E-01  0.51100000000E-03 0. -1.
</event>
<event>
 8    1  0.2924722E+004  0.1043930E+01  0.7957747E-01            NaN
         13   -1    0    0    0    0  0.00000000000E+00  0.00000000000E+00  0.74505805969E-08  0.10566000000E+00  0.10566000000E+00 0.  1.
     999900   -1    0    0    0    0 -0.00000000000E+00 -0.00000000000E+00 -0.74505805969E-08  0.93827000000E+00  0.93827000000E+00 0. -1.
     999902    2    1    2    0    0 -0.48557237412E-02  0.12461811139E-01  0.90194358450E-03  0.10305252138E+01  0.10304380273E+01 0.  0.
     999903    2    3    3    0    0 -0.27284601900E-01 -0.11086259116E+00 -0.65636626755E-01  0.13915584925E+00  0.44957980266E-01 0.  0.
         14    1    1    2    0    0  0.48557237412E-02 -0.12461811139E-01 -0.90194358450E-03  0.13404786165E-01  0.00000000000E+00 0. -1.
     999901    1    3    3    0    0  0.22428878158E-01  0.12332440230E+00  0.66538570340E-01  0.89136936458E+00  0.88000000000E+00 0.  1.
        -11    1    4    4    0    0 -0.10864204058E-01 -0.45756007524E-02 -0.18014639966E-01  0.21534981452E-01  0.51100000000E-03 0. -1.
         11    1    4    4    0    0 -0.16420397842E-01 -0.10628699041E+00 -0.47621986789E-01  0.11762086780E+00  0.51100000000E-03 0.  1.
</event>
<event>
 8    1  0.2924722E+004  0.1043930E+01  0.7957747E-01            NaN
         13   -1    0    0    0    0  0.00000000000E+00  0.00000000000E+00  0.74505805969E-08  0.10566000000E+00  0.10566000000E+00 0. -1.
     999900   -1    0    0    0    0 -0.00000000000E+00 -0.00000000000E+00 -0.74505805969E-08  0.93827000000E+00  0.93827000000E+00 0. -1.
     999902    2    1    2    0    0 -0.51168508478E-03  0.30046456009E-02 -0.14408817951E-01  0.10292023474E+01  0.10290969673E+01 0.  0.
     999903    2    3    3    0    0  0.10641749868E+00  0.73604232702E-01  0.24482395332E-01  0.13907276215E+00  0.44716645607E-01 0.  0.
         14    1    1    2    0    0  0.51168508478E-03 -0.30046456009E-02  0.14408817951E-01  0.14727652616E-01  0.00000000000E+00 0. -1.
     999901    1    3    3    0    0 -0.10692918376E+00 -0.70599587101E-01 -0.38891213283E-01  0.89012958523E+00  0.88000000000E+00 0. -1.
        -11    1    4    4    0    0  0.50518185666E-01  0.44244620583E-01 -0.87419649906E-02  0.67722644709E-01  0.51100000000E-03 0. -1.
         11    1    4    4    0    0  0.55899313012E-01  0.29359612119E-01  0.33224360322E-01  0.71350117441E-01  0.51100000000E-03 0.  1.
</event>
<event>
 8    1  0.2924722E+004  0.1043930E+01  0.7957747E-01            NaN
         13   -1    0    0    0    0  0.00000000000E+00  0.00000000000E+00  0.74505805969E-08  0.10566000000E+00  0.10566000000E+00 0. -1.
     999900   -1    0    0    0    0 -0.00000000000E+00 -0.00000000000E+00 -0.74505805969E-08  0.93827000000E+00  0.93827000000E+00 0.  1.
     999902    2    1    2    0    0 -0.23460822387E-02  0.13026730662E-01  0.29522508336E-02  0.10303684515E+01  0.10302792001E+01 0.  0.
     999903    2    3    3    0    0 -0.93770878261E-01 -0.83418977323E-01  0.41877084419E-01  0.13953995474E+00  0.44339659240E-01 0.  0.
         14    1    1    2    0    0  0.23460822387E-02 -0.13026730662E-01 -0.29522508336E-02  0.13561548532E-01  0.00000000000E+00 0.  1.
     999901    1    3    3    0    0  0.91424796022E-01  0.96445707984E-01 -0.38924833586E-01  0.89082849673E+00  0.88000000000E+00 0.  1.
        -11    1    4    4    0    0 -0.70726015102E-01 -0.81449063176E-01  0.43580516335E-01  0.11634277644E+00  0.51100000000E-03 0. -1.
         11    1    4    4    0    0 -0.23044863159E-01 -0.19699141466E-02 -0.17034319160E-02  0.23197178300E-01  0.51100000000E-03 0.  1.
</event>
<event>
 8    1  0.2924722E+004  0.1043930E+01  0.7957747E-01            NaN
         13   -1    0    0    0    0  0.00000000000E+00  0.00000000000E+00  0.74505805969E-08  0.10566000000E+00  0.10566000000E+00 0. -1.
     999900   -1    0    0    0    0 -0.00000000000E+00 -0.00000000000E+00 -0.74505805969E-08  0.93827000000E+00  0.93827000000E+00 0. -1.
     999902    2    1    2    0    0 -0.10573623611E-01 -0.95788495577E-02 -0.43038690306E-03  0.10296562091E+01  0.10295572678E+01 0.  0.
     999903    2    3    3    0    0  0.59238472241E-01 -0.95774464750E-01  0.69658895980E-01  0.13992820546E+00  0.45228267729E-01 0.  0.
         14    1    1    2    0    0  0.10573623611E-01  0.95788495577E-02  0.43038690306E-03  0.14273790947E-01  0.00000000000E+00 0.  1.
     999901    1    3    3    0    0 -0.69812095852E-01  0.86195615193E-01 -0.70089282884E-01  0.88972800359E+00  0.88000000000E+00 0. -1.
        -11    1    4    4    0    0  0.15190642006E-01 -0.37030172719E-01  0.49744672067E-01  0.63849689242E-01  0.51100000000E-03 0. -1.
         11    1    4    4    0    0  0.44047830235E-01 -0.58744292031E-01  0.19914223914E-01  0.76078516216E-01  0.51100000000E-03 0.  1.
</event>
<event>
 8    1  0.2924722E+004  0.1043930E+01  0.7957747E-01            NaN
         13   -1    0    0    0    0  0.00000000000E+00  0.00000000000E+00  0.74505805969E-08  0.10566000000E+00  0.10566000000E+00 0.  1.
     999900   -1    0    0    0    0 -0.00000000000E+00 -0.00000000000E+00 -0.74505805969E-08  0.93827000000E+00  0.93827000000E+00 0. -1.
     999902    2    1    2    0    0 -0.82524306199E-02 -0.65589106698E-02 -0.84838202214E-02  0.10303986613E+01  0.10303098098E+01 0.  0.
     999903    2    3    3    0    0  0.86957822186E-01  0.78775634811E-01  0.57186569912E-01  0.13873752782E+00  0.47016320235E-01 0.  0.
         14    1    1    2    0    0  0.82524306199E-02  0.65589106698E-02  0.84838202214E-02  0.13531338657E-01  0.00000000000E+00 0.  1.
     999901    1    3    3    0    0 -0.95210252806E-01 -0.85334545481E-01 -0.65670390134E-01  0.89166113352E+00  0.88000000000E+00 0. -1.
        -11    1    4    4    0    0  0.65134699743E-01  0.75423795468E-01  0.30757221031E-01  0.10429547354E+00  0.51100000000E-03 0.  1.
         11    1    4    4    0    0  0.21823122444E-01  0.33518393430E-02  0.26429348881E-01  0.34442054286E-01  0.51100000000E-03 0. -1.
</event>
<event>
 8    1  0.2924722E+004  0.1043930E+01  0.7957747E-01            NaN
         13   -1    0    0    0    0  0.00000000000E+00  0.00000000000E+00  0.74505805969E-08  0.10566000000E+00  0.10566000000E+00 0. -1.
     999900   -1    0    0    0    0 -0.00000000000E+00 -0.00000000000E+00 -0.74505805969E-08  0.93827000000E+00  0.93827000000E+00 0.  1.
     999902    2    1    2    0    0 -0.47868071127E-02  0.10017384860E-01 -0.92930530397E-02  0.10294516591E+01  0.10293498414E+01 0.  0.
     999903    2    3    3    0    0 -0.56264488004E-01  0.11462031648E+00 -0.39970229325E-01  0.14123275919E+00  0.45227905946E-01 0.  0.
         14    1    1    2    0    0  0.47868071127E-02 -0.10017384860E-01  0.92930530397E-02  0.14478340946E-01  0.00000000000E+00 0.  1.
     999901    1    3    3    0    0  0.51477680892E-01 -0.10460293162E+00  0.30677176285E-01  0.88821889987E+00  0.88000000000E+00 0. -1.
        -11    1    4    4    0    0  0.67781964128E-02  0.24026668832E-01 -0.51123223239E-02  0.25487677852E-01  0.51100000000E-03 0. -1.
         11    1    4    4    0    0 -0.63042684417E-01  0.90593647645E-01 -0.34857907001E-01  0.11574508134E+00  0.51100000000E-03 0.  1.
</event>
<event>
 8    1  0.2924722E+004  0.1043930E+01  0.7957747E-01            NaN
         13   -1    0    0    0    0  0.00000000000E+00  0.00000000000E+00  0.74505805969E-08  0.10566000000E+00  0.10566000000E+00 0.  1.
     999900   -1    0    0    0    0 -0.00000000000E+00 -0.00000000000E+00 -0.74505805969E-08  0.93827000000E+00  0.93827000000E+00 0. -1.
     999902    2    1    2    0    0  0.85738982510E-02  0.82516643828E-02  0.81478489020E-02  0.10295081715E+01  0.10294071527E+01 0.  0.
     999903    2    3    3    0    0 -0.56128878075E-01 -0.11377524346E+00  0.32907821225E-01  0.13839085499E+00  0.44427998719E-01 0.  0.
         14    1    1    2    0    0 -0.85738982510E-02 -0.82516643828E-02 -0.81478489020E-02  0.14421828526E-01  0.00000000000E+00 0. -1.
     999901    1    3    3    0    0  0.64702776326E-01  0.12202690784E+00 -0.24759972323E-01  0.89111731648E+00  0.88000000000E+00 0. -1.
        -11    1    4    4    0    0 -0.36112324643E-01 -0.10614095447E+00  0.33300870929E-01  0.11695816061E+00  0.51100000000E-03 0. -1.
         11    1    4    4    0    0 -0.20016553432E-01 -0.76342889904E-02 -0.39304970484E-03  0.21432694389E-01  0.51100000000E-03 0.  1.
</event>
<event>
 7    1  0.2924722E+004  0.1043930E+01  0.7957747E-01            NaN
         13   -1    0    0    0    0  0.00000000000E+00  0.00000000000E+00  0.74505805969E-08  0.10566000000E+00  0.10566000000E+00 0.  1.
     999900   -1    0    0    0    0 -0.00000000000E+00 -0.00000000000E+00 -0.74505805969E-08  0.93827000000E+00  0.93827000000E+00 0.  1.
     999902    2    1    2    0    0 -0.53915291349E-02  0.13113334874E-01  0.53573888192E-02  0.10287731615E+01  0.10286615032E+01 0.  0.
         14    1    1    2    0    0  0.53915291349E-02 -0.13113334874E-01 -0.53573888192E-02  0.15156838486E-01  0.00000000000E+00 0. -1.
     999901    1    3    3    0    0  0.11077661485E+00 -0.32795233273E-01 -0.18912949538E-01  0.88775260370E+00  0.88000000000E+00 0.  1.
        -11    1    3    3    0    0 -0.89625456571E-01  0.16683573186E-01 -0.58599003181E-02  0.91354603784E-01  0.51100000000E-03 0.  1.
         11    1    3    3    0    0 -0.26542687415E-01  0.29224994961E-01  0.30130238676E-01  0.49665954026E-01  0.51100000000E-03 0. -1.
</event>
<event>
 8    1  0.2924722E+004  0.1043930E+01  0.7957747E-01            NaN
         13   -1    0    0    0    0  0.00000000000E+00  0.00000000000E+00  0.74505805969E-08  0.10566000000E+00  0.10566000000E+00 0. -1.
     999900   -1    0    0    0    0 -0.00000000000E+00 -0.00000000000E+00 -0.74505805969E-08  0.93827000000E+00  0.93827000000E+00 0.  1.
     999902    2    1    2    0    0 -0.12465532005E-01  0.47218613551E-02 -0.19652218407E-02  0.10304560414E+01  0.10303679468E+01 0.  0.
     999903    2    3    3    0    0  0.12802422616E+00 -0.27706624283E-01 -0.10505234002E-01  0.13868145632E+00  0.44320727358E-01 0.  0.
         14    1    1    2    0    0  0.12465532005E-01 -0.47218613551E-02  0.19652218407E-02  0.13473958576E-01  0.00000000000E+00 0.  1.
     999901    1    3    3    0    0 -0.14048975816E+00  0.32428485638E-01  0.85400121612E-02  0.89177458510E+00  0.88000000000E+00 0.  1.
        -11    1    4    4    0    0  0.12388142888E+00 -0.18112369256E-01 -0.20290845102E-02  0.12521599198E+00  0.51100000000E-03 0.  1.
         11    1    4    4    0    0  0.41427972754E-02 -0.95942550273E-02 -0.84761494917E-02  0.13465464344E-01  0.51100000000E-03 0. -1.
</event>
<event>
 8    1  0.2924722E+004  0.1043930E+01  0.7957747E-01            NaN
         13   -1    0    0    0    0  0.00000000000E+00  0.00000000000E+00  0.74505805969E-08  0.10566000000E+00  0.10566000000E+00 0.  1.
     999900   -1    0    0    0    0 -0.00000000000E+00 -0.00000000000E+00 -0.74505805969E-08  0.93827000000E+00  0.93827000000E+00 0.  1.
     999902    2    1    2    0    0  0.48917747209E-02 -0.75051826346E-02 -0.89859684696E-02  0.10312412311E+01  0.10311631645E+01 0.  0.
     999903    2    3    3    0    0  0.70357797719E-02  0.13094470661E+00  0.26609705264E-01  0.13970322263E+00  0.40160871679E-01 0.  0.
         14    1    1    2    0    0 -0.48917747209E-02  0.75051826346E-02  0.89859684696E-02  0.12688768878E-01  0.00000000000E+00 0.  1.
     999901    1    3    3    0    0 -0.21440050510E-02 -0.13844988924E+00 -0.35595673733E-01  0.89153800849E+00  0.88000000000E+00 0. -1.
        -11    1    4    4    0    0  0.54412178837E-02  0.77402515927E-01  0.35623482559E-01  0.85381789361E-01  0.51100000000E-03 0. -1.
         11    1    4    4    0    0  0.15945618883E-02  0.53542190683E-01 -0.90137772949E-02  0.54321433273E-01  0.51100000000E-03 0.  1.
</event>
<event>
 8    1  0.2924722E+004  0.1043930E+01  0.7957747E-01            NaN
         13   -1    0    0    0    0  0.00000000000E+00  0.00000000000E+00  0.74505805969E-08  0.10566000000E+00  0.10566000000E+00 0.  1.
     999900   -1    0    0    0    0 -0.00000000000E+00 -0.00000000000E+00 -0.74505805969E-08  0.93827000000E+00  0.93827000000E+00 0. -1.
     999902    2    1    2    0    0 -0.14194572630E-01 -0.26144738110E-02 -0.46968118401E-03  0.10294890178E+01  0.10293877286E+01 0.  0.
     999903    2    3    3    0    0  0.90573809846E-01  0.87994521563E-01  0.27366939294E-01  0.13821954038E+00  0.49081983668E-01 0.  0.
         14    1    1    2    0    0  0.14194572630E-01  0.26144738110E-02  0.46968118401E-03  0.14440982164E-01  0.00000000000E+00 0.  1.
     999901    1    3    3    0    0 -0.10476838248E+00 -0.90608995374E-01 -0.27836620478E-01  0.89126947746E+00  0.88000000000E+00 0.  1.
        -11    1    4    4    0    0  0.67760783363E-01  0.62976491539E-01 -0.32545054851E-02  0.92565734349E-01  0.51100000000E-03 0. -1.
         11    1    4    4    0    0  0.22813026483E-01  0.25018030023E-01  0.30621444779E-01  0.45653806028E-01  0.51100000000E-03 0.  1.
</event>
<event>
 8    1  0.2924722E+004  0.1043930E+01  0.7957747E-01            NaN
         13   -1    0    0    0    0  0.00000000000E+00  0.00000000000E+00  0.74505805969E-08  0.10566000000E+00  0.10566000000E+00 0.  1.
     999900   -1    0    0    0    0 -0.00000000000E+00 -0.00000000000E+00 -0.74505805969E-08  0.93827000000E+00  0.93827000000E+00 0. -1.
     999902    2    1    2    0    0 -0.40855679566E-02 -0.52774599585E-02 -0.11953504520E-01  0.10302395026E+01  0.10301485344E+01 0.  0.
     999903    2    3    3    0    0 -0.46171017863E-01 -0.19608476840E-01 -0.12373264794E+00  0.14205532121E+00  0.48514851981E-01 0.  0.
         14    1    1    2    0    0  0.40855679566E-02  0.52774599585E-02  0.11953504520E-01  0.13690497414E-01  0.00000000000E+00 0. -1.
     999901    1    3    3    0    0  0.42085449906E-01  0.14331016882E-01  0.11177914342E+00  0.88818418137E+00  0.88000000000E+00 0.  1.
        -11    1    4    4    0    0 -0.41444101153E-02 -0.12392955549E-02 -0.75019032888E-01  0.75145381795E-01  0.51100000000E-03 0.  1.
         11    1    4    4    0    0 -0.42026607748E-01 -0.18369181285E-01 -0.48713615056E-01  0.66909939417E-01  0.51100000000E-03 0. -1.
</event>
<event>
 8    1  0.2924722E+004  0.1043930E+01  0.7957747E-01            NaN
         13   -1    0    0    0    0  0.00000000000E+00  0.00000000000E+00  0.74505805969E-08  0.10566000000E+00  0.10566000000E+00 0.  1.
     999900   -1    0    0    0    0 -0.00000000000E+00 -0.00000000000E+00 -0.74505805969E-08  0.93827000000E+00  0.93827000000E+00 0. -1.
     999902    2    1    2    0    0  0.15594683354E-02 -0.52884732365E-02  0.73167489294E-02  0.10347684114E+01  0.10347278534E+01 0.  0.
     999903    2    3    3    0    0  0.16540875197E-01 -0.10508463680E+00 -0.86367100355E-01  0.14406061396E+00  0.44472497432E-01 0.  0.
         14    1    1    2    0    0 -0.15594683354E-02  0.52884732365E-02 -0.73167489294E-02  0.91615885936E-02  0.00000000000E+00 0. -1.
     999901    1    3    3    0    0 -0.14981406861E-01  0.99796163562E-01  0.93683849284E-01  0.89070779745E+00  0.88000000000E+00 0.  1.
        -11    1    4    4    0    0  0.18631191835E-01 -0.15064398625E-01 -0.27514234199E-01  0.36487691345E-01  0.51100000000E-03 0. -1.
         11    1    4    4    0    0 -0.20903166382E-02 -0.90020238173E-01 -0.58852866156E-01  0.10757292262E+00  0.51100000000E-03 0.  1.
</event>
<event>
 7    1  0.2924722E+004  0.1043930E+01  0.7957747E-01            NaN
         13   -1    0    0    0    0  0.00000000000E+00  0.00000000000E+00  0.74505805969E-08  0.10566000000E+00  0.10566000000E+00 0. -1.
     999900   -1    0    0    0    0 -0.00000000000E+00 -0.00000000000E+00 -0.74505805969E-08  0.93827000000E+00  0.93827000000E+00 0. -1.
     999903    2    1    2    0    0  0.34383691858E-01  0.56106333974E-01  0.85960495187E-01  0.11730077459E+00  0.45167532681E-01 0.  0.
         14    1    1    2    0    0 -0.27422786238E-01  0.12874353288E-01  0.21837165709E-01  0.37344611175E-01  0.00000000000E+00 0. -1.
     999901    1    1    2    0    0 -0.69609056200E-02 -0.68980687263E-01 -0.10779766090E+00  0.88928461424E+00  0.88000000000E+00 0. -1.
        -11    1    3    3    0    0 -0.10003181653E-01  0.18773697273E-01  0.29349630564E-01  0.36251583244E-01  0.51100000000E-03 0. -1.
         11    1    3    3    0    0  0.44386873511E-01  0.37332636701E-01  0.56610864623E-01  0.81049191344E-01  0.51100000000E-03 0.  1.
</event>
<event>
 8    1  0.2924722E+004  0.1043930E+01  0.7957747E-01            NaN
         13   -1    0    0    0    0  0.00000000000E+00  0.00000000000E+00  0.74505805969E-08  0.10566000000E+00  0.10566000000E+00 0.  1.
     999900   -1    0    0    0    0 -0.00000000000E+00 -0.00000000000E+00 -0.74505805969E-08  0.93827000000E+00  0.93827000000E+00 0. -1.
     999902    2    1    2    0    0  0.14225803306E-01 -0.76605308837E-02 -0.79465526204E-02  0.10259243089E+01  0.10257662905E+01 0.  0.
     999903    2    3    3    0    0  0.10652425975E-01 -0.20585886187E-01  0.12611283768E+00  0.13567055072E+00  0.44326037686E-01 0.  0.
         14    1    1    2    0    0 -0.14225803306E-01  0.76605308837E-02  0.79465526204E-02  0.18005691091E-01  0.00000000000E+00 0.  1.
     999901    1    3    3    0    0  0.35733773316E-02  0.12925355303E-01 -0.13405939030E+00  0.89025375819E+00  0.88000000000E+00 0. -1.
        -11    1    4    4    0    0  0.26136345615E-01 -0.21659439331E-01  0.76760353441E-01  0.83932430297E-01  0.51100000000E-03 0.  1.
         11    1    4    4    0    0 -0.15483919640E-01  0.10735531441E-02  0.49352484238E-01  0.51738120426E-01  0.51100000000E-03 0. -1.
</event>
<event>
 8    1  0.2924722E+004  0.1043930E+01  0.7957747E-01            NaN
         13   -1    0    0    0    0  0.00000000000E+00  0.00000000000E+00  0.74505805969E-08  0.10566000000E+00  0.10566000000E+00 0. -1.
     999900   -1    0    0    0    0 -0.00000000000E+00 -0.00000000000E+00 -0.74505805969E-08  0.93827000000E+00  0.93827000000E+00 0.  1.
     999902    2    1    2    0    0  0.11464930764E-01 -0.69480916598E-02  0.22694492015E-02  0.10303332719E+01  0.10302435538E+01 0.  0.
     999903    2    3    3    0    0  0.84722287362E-01 -0.87635725188E-01 -0.56182832102E-01  0.14168609575E+00  0.45393312299E-01 0.  0.
         14    1    1    2    0    0 -0.11464930764E-01  0.69480916598E-02 -0.22694492015E-02  0.13596728092E-01  0.00000000000E+00 0.  1.
     999901    1    3    3    0    0 -0.73257356598E-01  0.80687633528E-01  0.58452281304E-01  0.88864717616E+00  0.88000000000E+00 0. -1.
        -11    1    4    4    0    0  0.31299436619E-01 -0.23050861654E-01  0.31359998682E-02  0.39001186800E-01  0.51100000000E-03 0.  1.
         11    1    4    4    0    0  0.53422850743E-01 -0.64584863534E-01 -0.59318831970E-01  0.10268490895E+00  0.51100000000E-03 0. -1.
</event>
<event>
 8    1  0.2924722E+004  0.1043930E+01  0.7957747E-01            NaN
         13   -1    0    0    0    0  0.00000000000E+00  0.00000000000E+00  0.74505805969E-08  0.10566000000E+00  0.10566000000E+00 0.  1.
     999900   -1    0    0    0    0 -0.00000000000E+00 -0.00000000000E+00 -0.74505805969E-08  0.93827000000E+00  0.93827000000E+00 0.  1.
     999902    2    1    2    0    0  0.72152412704E-02  0.59686902977E-02  0.10886484136E-01  0.10295703166E+01  0.10294701726E+01 0.  0.
     999903    2    3    3    0    0  0.36280304575E-01  0.12822183793E+00 -0.16260002907E-02  0.14055559666E+00  0.44678089179E-01 0.  0.
         14    1    1    2    0    0 -0.72152412704E-02 -0.59686902977E-02 -0.10886484136E-01  0.14359683399E-01  0.00000000000E+00 0. -1.
     999901    1    3    3    0    0 -0.29065063305E-01 -0.12225314763E+00  0.12512484427E-01  0.88901471994E+00  0.88000000000E+00 0. -1.
        -11    1    4    4    0    0  0.43113972918E-01  0.12611772037E+00 -0.26714525074E-02  0.13331125921E+00  0.51100000000E-03 0.  1.
         11    1    4    4    0    0 -0.68336683422E-02  0.21041175562E-02  0.10454522167E-02  0.72443374466E-02  0.51100000000E-03 0. -1.
</event>
<event>
 8    1  0.2924722E+004  0.1043930E+01  0.7957747E-01            NaN
         13   -1    0    0    0    0  0.00000000000E+00  0.00000000000E+00  0.74505805969E-08  0.10566000000E+00  0.10566000000E+00 0.  1.
     999900   -1    0    0    0    0 -0.00000000000E+00 -0.00000000000E+00 -0.74505805969E-08  0.93827000000E+00  0.93827000000E+00 0. -1.
     999902    2    1    2    0    0  0.64515738102E-02  0.83331044383E-02 -0.94804106301E-02  0.10297546122E+01  0.10296570398E+01 0.  0.
     999903    2    3    3    0    0  0.41999400997E-01  0.12627964027E+00  0.78802747104E-02  0.14100468856E+00  0.45931756293E-01 0.  0.
         14    1    1    2    0    0 -0.64515738102E-02 -0.83331044383E-02  0.94804106301E-02  0.14175387823E-01  0.00000000000E+00 0.  1.
     999901    1    3    3    0    0 -0.35547827187E-01 -0.11794653583E+00 -0.17360685341E-01  0.88874992362E+00  0.88000000000E+00 0. -1.
        -11    1    4    4    0    0  0.50457482124E-01  0.91852201736E-01  0.11189595494E-01  0.10539569552E+00  0.51100000000E-03 0.  1.
         11    1    4    4    0    0 -0.84580811268E-02  0.34427438533E-01 -0.33093207835E-02  0.35608993040E-01  0.51100000000E-03 0. -1.
</event>
<event>
 8    1  0.2924722E+004  0.1043930E+01  0.7957747E-01            NaN
         13   -1    0    0    0    0  0.00000000000E+00  0.00000000000E+00  0.74505805969E-08  0.10566000000E+00  0.10566000000E+00 0.  1.
     999900   -1    0    0    0    0 -0.00000000000E+00 -0.00000000000E+00 -0.74505805969E-08  0.93827000000E+00  0.93827000000E+00 0.  1.
     999902    2    1    2    0    0  0.16887557900E-02  0.13464931487E-01 -0.30207987291E-02  0.10300274283E+01  0.10299336005E+01 0.  0.
     999903    2    3    3    0    0 -0.98847001286E-02 -0.11330631060E+00 -0.65490837523E-01  0.13867598329E+00  0.44787846827E-01 0.  0.
         14    1    1    2    0    0 -0.16887557900E-02 -0.13464931487E-01  0.30207987291E-02  0.13902571742E-01  0.00000000000E+00 0.  1.
     999901    1    3    3    0    0  0.11573455919E-01  0.12677124209E+00  0.62470038794E-01  0.89135144497E+00  0.88000000000E+00 0. -1.
        -11    1    4    4    0    0 -0.26131149262E-02 -0.60184901134E-01 -0.92127816711E-02  0.60944131475E-01  0.51100000000E-03 0. -1.
         11    1    4    4    0    0 -0.72715852024E-02 -0.53121409465E-01 -0.56278055852E-01  0.77731851814E-01  0.51100000000E-03 0.  1.
</event>
<event>
 8    1  0.2924722E+004  0.1043930E+01  0.7957747E-01            NaN
         13   -1    0    0    0    0  0.00000000000E+00  0.00000000000E+00  0.74505805969E-08  0.10566000000E+00  0.10566000000E+00 0. -1.
     999900   -1    0    0    0    0 -0.00000000000E+00 -0.00000000000E+00 -0.74505805969E-08  0.93827000000E+00  0.93827000000E+00 0. -1.
     999902    2    1    2    0    0 -0.10528809490E-01 -0.70988961780E-02 -0.37910088230E-02  0.10306777585E+01  0.10305925577E+01 0.  0.
     999903    2    3    3    0    0 -0.10118856136E+00 -0.16585470279E-01  0.86083701448E-01  0.14141590213E+00  0.45539553620E-01 0.  0.
         14    1    1    2    0    0  0.10528809490E-01  0.70988961780E-02  0.37910088230E-02  0.13252241475E-01  0.00000000000E+00 0. -1.
     999901    1    3    3    0    0  0.90659751874E-01  0.94865741007E-02 -0.89874710271E-01  0.88926185640E+00  0.88000000000E+00 0. -1.
        -11    1    4    4    0    0 -0.67115146369E-01  0.10235568964E-01  0.61272102011E-01  0.91453492825E-01  0.51100000000E-03 0. -1.
         11    1    4    4    0    0 -0.34073414996E-01 -0.26821039243E-01  0.24811599437E-01  0.49962409301E-01  0.51100000000E-03 0.  1.
</event>
<event>
 8    1  0.2924722E+004  0.1043930E+01  0.7957747E-01            NaN
         13   -1    0    0    0    0  0.00000000000E+00  0.00000000000E+00  0.74505805969E-08  0.10566000000E+00  0.10566000000E+00 0.  1.
     999900   -1    0    0    0    0 -0.00000000000E+00 -0.00000000000E+00 -0.74505805969E-08  0.93827000000E+00  0.93827000000E+00 0. -1.
     999902    2    1    2    0    0  0.26125193544E-02  0.58080358716E-02  0.11036835370E-01  0.10311875405E+01  0.10311088078E+01 0.  0.
     999903    2    3    3    0    0  0.11355441040E+00  0.58943787253E-01  0.40848437065E-01  0.14213172516E+00  0.46517290434E-01 0.  0.
         14    1    1    2    0    0 -0.26125193544E-02 -0.58080358716E-02 -0.11036835370E-01  0.12742459458E-01  0.00000000000E+00 0. -1.
     999901    1    3    3    0    0 -0.11094189105E+00 -0.53135751381E-01 -0.29811601695E-01  0.88905581538E+00  0.88000000000E+00 0. -1.
        -11    1    4    4    0    0  0.14339006602E-01  0.41459355313E-02  0.22952834282E-01  0.27384112444E-01  0.51100000000E-03 0.  1.
         11    1    4    4    0    0  0.99215403801E-01  0.54797851722E-01  0.17895602783E-01  0.11474761272E+00  0.51100000000E-03 0. -1.
</event>
<event>
 8    1  0.2924722E+004  0.1043930E+01  0.7957747E-01            NaN
         13   -1    0    0    0    0  0.00000000000E+00  0.00000000000E+00  0.74505805969E-08  0.10566000000E+00  0.10566000000E+00 0. -1.
     999900   -1    0    0    0    0 -0.00000000000E+00 -0.00000000000E+00 -0.74505805969E-08  0.93827000000E+00  0.93827000000E+00 0. -1.
     999902    2    1    2    0    0 -0.25161661171E-02  0.39020989934E-02 -0.13715414342E-01  0.10294500118E+01  0.10293481708E+01 0.  0.
     999903    2    3    3    0    0 -0.87341024947E-01 -0.59332599617E-01  0.80671278976E-01  0.13810118462E+00  0.37620073457E-01 0.  0.
         14    1    1    2    0    0  0.25161661171E-02 -0.39020989934E-02  0.13715414342E-01  0.14479988227E-01  0.00000000000E+00 0. -1.
     999901    1    3    3    0    0  0.84824858830E-01  0.63234698611E-01 -0.94386693317E-01  0.89134882715E+00  0.88000000000E+00 0. -1.
        -11    1    4    4    0    0 -0.86539960806E-01 -0.62562479319E-01  0.71981735252E-01  0.12878221914E+00  0.51100000000E-03 0.  1.
         11    1    4    4    0    0 -0.80106414095E-03  0.32298797012E-02  0.86895437234E-02  0.93189654878E-02  0.51100000000E-03 0. -1.
</event>
<event>
 8    1  0.2924722E+004  0.1043930E+01  0.7957747E-01            NaN
         13   -1    0    0    0    0  0.00000000000E+00  0.00000000000E+00  0.74505805969E-08  0.10566000000E+00  0.10566000000E+00 0.  1.
     999900   -1    0    0    0    0 -0.00000000000E+00 -0.00000000000E+00 -0.74505805969E-08  0.93827000000E+00  0.93827000000E+00 0.  1.
     999902    2    1    2    0    0  0.48016908969E-02 -0.36275147800E-02 -0.12045795974E-01  0.10304646259E+01  0.10303766442E+01 0.  0.
     999903    2    3    3    0    0 -0.45412560556E-01 -0.57648980971E-01  0.10889904988E+00  0.13913559261E+00  0.45978303609E-01 0.  0.
         14    1    1    2    0    0 -0.48016908969E-02  0.36275147800E-02  0.12045795974E-01  0.13465374098E-01  0.00000000000E+00 0.  1.
     999901    1    3    3    0    0  0.50214251453E-01  0.54021466191E-01 -0.12094484585E+00  0.89132903330E+00  0.88000000000E+00 0.  1.
        -11    1    4    4    0    0 -0.23911084865E-01 -0.40799045567E-01  0.30906450409E-01  0.56495768837E-01  0.51100000000E-03 0. -1.
         11    1    4    4    0    0 -0.21501475691E-01 -0.16849935404E-01  0.77992599466E-01  0.82639823769E-01  0.51100000000E-03 0.  1.
</event>
<event>
 8    1  0.2924722E+004  0.1043930E+01  0.7957747E-01            NaN
         13   -1    0    0    0    0  0.00000000000E+00  0.00000000000E+00  0.74505805969E-08  0.10566000000E+00  0.10566000000E+00 0.  1.
     999900   -1    0    0    0    0 -0.00000000000E+00 -0.00000000000E+00 -0.74505805969E-08  0.93827000000E+00  0.93827000000E+00 0.  1.
     999902    2    1    2    0    0 -0.10036990816E-01 -0.69921959750E-02 -0.72498305795E-02  0.10297105755E+01  0.10296123918E+01 0.  0.
     999903    2    3    3    0    0 -0.16712935639E-01 -0.11187947296E+00 -0.70109583354E-01  0.14123026756E+00  0.47268341505E-01 0.  0.
         14    1    1    2    0    0  0.10036990816E-01  0.69921959750E-02  0.72498305795E-02  0.14219424483E-01  0.00000000000E+00 0. -1.
     999901    1    3    3    0    0  0.66759448228E-02  0.10488727699E+00  0.62859752774E-01  0.88848030796E+00  0.88000000000E+00 0. -1.
        -11    1    4    4    0    0 -0.13092402034E-02 -0.59493198055E-01 -0.10569428486E-01  0.60441117331E-01  0.51100000000E-03 0.  1.
         11    1    4    4    0    0 -0.15403695435E-01 -0.52386274906E-01 -0.59540154868E-01  0.80789150226E-01  0.51100000000E-03 0. -1.
</event>
<event>
 8    1  0.2924722E+004  0.1043930E+01  0.7957747E-01            NaN
         13   -1    0    0    0    0  0.00000000000E+00  0.00000000000E+00  0.74505805969E-08  0.10566000000E+00  0.10566000000E+00 0. -1.
     999900   -1    0    0    0    0 -0.00000000000E+00 -0.00000000000E+00 -0.74505805969E-08  0.93827000000E+00  0.93827000000E+00 0.  1.
     999902    2    1    2    0    0 -0.10410525915E-01 -0.65391785216E-02 -0.60291402738E-02  0.10302372852E+01  0.10301462874E+01 0.  0.
     999903    2    3    3    0    0  0.11785082839E-01  0.12791661597E+00  0.28615116477E-01  0.13907443240E+00  0.44959137418E-01 0.  0.
         14    1    1    2    0    0  0.10410525915E-01  0.65391785216E-02  0.60291402738E-02  0.13692714779E-01  0.00000000000E+00 0. -1.
     999901    1    3    3    0    0 -0.22195608755E-01 -0.13445579449E+00 -0.34644256751E-01  0.89116285282E+00  0.88000000000E+00 0.  1.
        -11    1    4    4    0    0  0.26331156124E-01  0.10894272041E+00  0.21494656464E-01  0.11412329951E+00  0.51100000000E-03 0. -1.
         11    1    4    4    0    0 -0.14546073284E-01  0.18973895558E-01  0.71204600129E-02  0.24951132889E-01  0.51100000000E-03 0.  1.
</event>
<event>
 8    1  0.2924722E+004  0.1043930E+01  0.7957747E-01            NaN
         13   -1    0    0    0    0  0.00000000000E+00  0.00000000000E+00  0.74505805969E-08  0.10566000000E+00  0.10566000000E+00 0.  1.
     999900   -1    0    0    0    0 -0.00000000000E+00 -0.00000000000E+00 -0.74505805969E-08  0.93827000000E+00  0.93827000000E+00 0. -1.
     999902    2    1    2    0    0 -0.47194059080E-03 -0.95555771027E-02 -0.10040557920E-01  0.10300611650E+01  0.10299677951E+01 0.  0.
     999903    2    3    3    0    0  0.86362750360E-01  0.48411172335E-01  0.86250041002E-01  0.13867332176E+00  0.44598815424E-01 0.  0.
         14    1    1    2    0    0  0.47194059080E-03  0.95555771027E-02  0.10040557920E-01  0.13868835028E-01  0.00000000000E+00 0.  1.
     999901    1    3    3    0    0 -0.86834690950E-01 -0.57966749438E-01 -0.96290598923E-01  0.89138784322E+00  0.88000000000E+00 0. -1.
        -11    1    4    4    0    0  0.48825499036E-01  0.11261021625E-01  0.20015686251E-01  0.53959510572E-01  0.51100000000E-03 0. -1.
         11    1    4    4    0    0  0.37537251324E-01  0.37150150710E-01  0.66234354752E-01  0.84713811183E-01  0.51100000000E-03 0.  1.
</event>
<event>
 8    1  0.2924722E+004  0.1043930E+01  0.7957747E-01            NaN
         13   -1    0    0    0    0  0.00000000000E+00  0.00000000000E+00  0.74505805969E-08  0.10566000000E+00  0.10566000000E+00 0. -1.
     999900   -1    0    0    0    0 -0.00000000000E+00 -0.00000000000E+00 -0.74505805969E-08  0.93827000000E+00  0.93827000000E+00 0.  1.
     999902    2    1    2    0    0  0.24996406577E-02  0.13487414423E-01  0.64857009944E-02  0.10287569031E+01  0.10286450033E+01 0.  0.
     999903    2    3    3    0    0 -0.41786507709E-01  0.82826575874E-01  0.94755304484E-01  0.14052230284E+00  0.46492966896E-01 0.  0.
         14    1    1    2    0    0 -0.24996406577E-02 -0.13487414423E-01 -0.64857009944E-02  0.15173096870E-01  0.00000000000E+00 0. -1.
     999901    1    3    3    0    0  0.44286148367E-01 -0.69339161451E-01 -0.88269603490E-01  0.88823460029E+00  0.88000000000E+00 0.  1.
        -11    1    4    4    0    0 -0.73350343387E-02  0.62131506135E-01  0.67046446998E-01  0.91703947349E-01  0.51100000000E-03 0. -1.
         11    1    4    4    0    0 -0.34451473371E-01  0.20695069739E-01  0.27708857486E-01  0.48818355494E-01  0.51100000000E-03 0.  1.
</event>
<event>
 8    1  0.2924722E+004  0.1043930E+01  0.7957747E-01            NaN
         13   -1    0    0    0    0  0.00000000000E+00  0.00000000000E+00  0.74505805969E-08  0.10566000000E+00  0.10566000000E+00 0.  1.
     999900   -1    0    0    0    0 -0.00000000000E+00 -0.00000000000E+00 -0.74505805969E-08  0.93827000000E+00  0.93827000000E+00 0. -1.
     999902    2    1    2    0    0  0.29047101834E-02 -0.37967503089E-03  0.17569221296E-01  0.10261182333E+01  0.10259636298E+01 0.  0.
     999903    2    3    3    0    0  0.52317618491E-01 -0.83255915720E-01 -0.81270272146E-01  0.13534365342E+00  0.45214673276E-01 0.  0.
         14    1    1    2    0    0 -0.29047101834E-02  0.37967503089E-03 -0.17569221296E-01  0.17811766654E-01  0.00000000000E+00 0. -1.
     999901    1    3    3    0    0 -0.49412908308E-01  0.82876240689E-01  0.98839493442E-01  0.89077457993E+00  0.88000000000E+00 0.  1.
        -11    1    4    4    0    0  0.41426409499E-01 -0.68391406853E-01 -0.38453245117E-01  0.88726800440E-01  0.51100000000E-03 0. -1.
         11    1    4    4    0    0  0.10891208992E-01 -0.14864508867E-01 -0.42817027029E-01  0.46616852980E-01  0.51100000000E-03 0.  1.
</event>
<event>
 8    1  0.2924722E+004  0.1043930E+01  0.7957747E-01            NaN
         13   -1    0    0    0    0  0.00000000000E+00  0.00000000000E+00  0.74505805969E-08  0.10566000000E+00  0.10566000000E+00 0. -1.
     999900   -1    0    0    0    0 -0.00000000000E+00 -0.00000000000E+00 -0.74505805969E-08  0.93827000000E+00  0.93827000000E+00 0. -1.
     999902    2    1    2    0    0  0.10591243172E-01  0.89593493014E-02 -0.94266815909E-03  0.10300255764E+01  0.10299317235E+01 0.  0.
     999903    2    3    3    0    0 -0.37007906980E-01 -0.10295531942E+00  0.70718608023E-01  0.13877594210E+00  0.47835735700E-01 0.  0.
         14    1    1    2    0    0 -0.10591243172E-01 -0.89593493014E-02  0.94266815909E-03  0.13904423580E-01  0.00000000000E+00 0.  1.
     999901    1    3    3    0    0  0.47599150153E-01  0.11191466872E+00 -0.71661276182E-01  0.89124963432E+00  0.88000000000E+00 0. -1.
        -11    1    4    4    0    0 -0.41014770718E-01 -0.69228593920E-01  0.66802498160E-01  0.10458319423E+00  0.51100000000E-03 0.  1.
         11    1    4    4    0    0  0.40068637376E-02 -0.33726725497E-01  0.39161098634E-02  0.34192747875E-01  0.51100000000E-03 0. -1.
</event>
<event>
 8    1  0.2924722E+004  0.1043930E+01  0.7957747E-01            NaN
         13   -1    0    0    0    0  0.00000000000E+00  0.00000000000E+00  0.74505805969E-08  0.10566000000E+00  0.10566000000E+00 0. -1.
     999900   -1    0    0    0    0 -0.00000000000E+00 -0.00000000000E+00 -0.74505805969E-08  0.93827000000E+00  0.93827000000E+00 0. -1.
     999902    2    1    2    0    0 -0.70258880449E-02  0.22990154319E-02 -0.11489732952E-01  0.10302675501E+01  0.10301769567E+01 0.  0.
     999903    2    3    3    0    0 -0.13283187419E+00 -0.92074509411E-02 -0.63987360812E-02  0.14123129481E+00  0.46650303940E-01 0.  0.
         14    1    1    2    0    0  0.70258880449E-02 -0.22990154319E-02  0.11489732952E-01  0.13662449930E-01  0.00000000000E+00 0. -1.
     999901    1    3    3    0    0  0.12580598614E+00  0.11506466373E-01 -0.50909968711E-02  0.88903625526E+00  0.88000000000E+00 0. -1.
        -11    1    4    4    0    0 -0.49628848740E-01  0.18957329616E-01 -0.51790831046E-02  0.53380586323E-01  0.51100000000E-03 0.  1.
         11    1    4    4    0    0 -0.83203025446E-01 -0.28164780557E-01 -0.12196529766E-02  0.87850708487E-01  0.51100000000E-03 0. -1.
</event>
<event>
 8    1  0.2924722E+004  0.1043930E+01  0.7957747E-01            NaN
         13   -1    0    0    0    0  0.00000000000E+00  0.00000000000E+00  0.74505805969E-08  0.10566000000E+00  0.10566000000E+00 0. -1.
     999900   -1    0    0    0    0 -0.00000000000E+00 -0.00000000000E+00 -0.74505805969E-08  0.93827000000E+00  0.93827000000E+00 0.  1.
     999902    2    1    2    0    0 -0.16521248909E-01 -0.71684622475E-02 -0.10396043724E-01  0.10231353795E+01  0.10229240385E+01 0.  0.
     999903    2    3    3    0    0 -0.11959518569E+00 -0.38323653181E-01  0.25171901043E-01  0.13585866897E+00  0.45301683165E-01 0.  0.
         14    1    1    2    0    0  0.16521248909E-01  0.71684622475E-02  0.10396043724E-01  0.20794620498E-01  0.00000000000E+00 0. -1.
     999901    1    3    3    0    0  0.10307393678E+00  0.31155190934E-01 -0.35567944767E-01  0.88727671054E+00  0.88000000000E+00 0. -1.
        -11    1    4    4    0    0 -0.79718986555E-01 -0.18952974948E-01 -0.52169533824E-02  0.82108524529E-01  0.51100000000E-03 0.  1.
         11    1    4    4    0    0 -0.39876199136E-01 -0.19370678233E-01  0.30388854425E-01  0.53750144437E-01  0.51100000000E-03 0. -1.
</event>
<event>
 8    1  0.2924722E+004  0.1043930E+01  0.7957747E-01            NaN
         13   -1    0    0    0    0  0.00000000000E+00  0.00000000000E+00  0.74505805969E-08  0.10566000000E+00  0.10566000000E+00 0. -1.
     999900   -1    0    0    0    0 -0.00000000000E+00 -0.00000000000E+00 -0.74505805969E-08  0.93827000000E+00  0.93827000000E+00 0. -1.
     999902    2    1    2    0    0  0.15901953196E-01  0.72277252608E-02 -0.65226069363E-02  0.10252844502E+01  0.10251148946E+01 0.  0.
     999903    2    3    3    0    0  0.14709943834E-01  0.11578499787E+00  0.55404883957E-01  0.13645312957E+00  0.43899968378E-01 0.  0.
         14    1    1    2    0    0 -0.15901953196E-01 -0.72277252608E-02  0.65226069363E-02  0.18645549848E-01  0.00000000000E+00 0. -1.
     999901    1    3    3    0    0  0.11920093613E-02 -0.10855727261E+00 -0.61927490893E-01  0.88883132058E+00  0.88000000000E+00 0. -1.
        -11    1    4    4    0    0 -0.39202067648E-02  0.41286642220E-01 -0.47786107381E-03  0.41478239103E-01  0.51100000000E-03 0. -1.
         11    1    4    4    0    0  0.18630150599E-01  0.74498355650E-01  0.55882745030E-01  0.94974890466E-01  0.51100000000E-03 0.  1.
</event>
<event>
 8    1  0.2924722E+004  0.1043930E+01  0.7957747E-01            NaN
         13   -1    0    0    0    0  0.00000000000E+00  0.00000000000E+00  0.74505805969E-08  0.10566000000E+00  0.10566000000E+00 0.  1.
     999900   -1    0    0    0    0 -0.00000000000E+00 -0.00000000000E+00 -0.74505805969E-08  0.93827000000E+00  0.93827000000E+00 0.  1.
     999902    2    1    2    0    0 -0.56607140060E-02 -0.10771660301E-01 -0.41082747685E-02  0.10310867033E+01  0.10310067116E+01 0.  0.
     999903    2    3    3    0    0  0.61673732495E-01 -0.47196697174E-01 -0.11046483307E+00  0.14138314115E+00  0.41899113982E-01 0.  0.
         14    1    1    2    0    0  0.56607140060E-02  0.10771660301E-01  0.41082747685E-02  0.12843296706E-01  0.00000000000E+00 0.  1.
     999901    1    3    3    0    0 -0.67334446501E-01  0.36425036873E-01  0.10635655830E+00  0.88970356214E+00  0.88000000000E+00 0. -1.
        -11    1    4    4    0    0  0.65922318430E-01 -0.42519344122E-01 -0.10989021422E+00  0.13501765438E+00  0.51100000000E-03 0.  1.
         11    1    4    4    0    0 -0.42485859352E-02 -0.46773530516E-02 -0.57461885052E-03  0.63654867718E-02  0.51100000000E-03 0. -1.
</event>
<event>
 8    1  0.2924722E+004  0.1043930E+01  0.7957747E-01            NaN
         13   -1    0    0    0    0  0.00000000000E+00  0.00000000000E+00  0.74505805969E-08  0.10566000000E+00  0.10566000000E+00 0.  1.
     999900   -1    0    0    0    0 -0.00000000000E+00 -0.00000000000E+00 -0.74505805969E-08  0.93827000000E+00  0.93827000000E+00 0. -1.
     999902    2    1    2    0    0 -0.68388720270E-02  0.47811638826E-02  0.12101642965E-01  0.10292303585E+01  0.10291253817E+01 0.  0.
     999903    2    3    3    0    0 -0.44795942889E-01 -0.98161570418E-01  0.77065644166E-01  0.14004068960E+00  0.45054531696E-01 0.  0.
         14    1    1    2    0    0  0.68388720270E-02 -0.47811638826E-02 -0.12101642965E-01  0.14699641531E-01  0.00000000000E+00 0. -1.
     999901    1    3    3    0    0  0.37957070862E-01  0.10294273430E+00 -0.64964001200E-01  0.88918966887E+00  0.88000000000E+00 0.  1.
        -11    1    4    4    0    0  0.54034604362E-02 -0.17931233021E-01  0.27305037790E-01  0.33114237301E-01  0.51100000000E-03 0.  1.
         11    1    4    4    0    0 -0.50199403325E-01 -0.80230337397E-01  0.49760606376E-01  0.10692645230E+00  0.51100000000E-03 0. -1.
</event>
<event>
 8    1  0.2924722E+004  0.1043930E+01  0.7957747E-01            NaN
         13   -1    0    0    0    0  0.00000000000E+00  0.00000000000E+00  0.74505805969E-08  0.10566000000E+00  0.10566000000E+00 0.  1.
     999900   -1    0    0    0    0 -0.00000000000E+00 -0.00000000000E+00 -0.74505805969E-08  0.93827000000E+00  0.93827000000E+00 0. -1.
     999902    2    1    2    0    0  0.35623625570E-02 -0.72894611971E-02 -0.87649358641E-02  0.10319863501E+01  0.10319172332E+01 0.  0.
     999903    2    3    3    0    0 -0.71095518736E-01  0.10316009403E+00  0.44579988753E-01  0.14034820353E+00  0.44873879397E-01 0.  0.
         14    1    1    2    0    0 -0.35623625570E-02  0.72894611971E-02  0.87649358641E-02  0.11943649871E-01  0.00000000000E+00 0.  1.
     999901    1    3    3    0    0  0.74657881293E-01 -0.11044955523E+00 -0.53344924617E-01  0.89163814660E+00  0.88000000000E+00 0. -1.
        -11    1    4    4    0    0 -0.62356184840E-01  0.56930821949E-01  0.18092330919E-01  0.86353956682E-01  0.51100000000E-03 0. -1.
         11    1    4    4    0    0 -0.87393338961E-02  0.46229272082E-01  0.26487657833E-01  0.53994246848E-01  0.51100000000E-03 0.  1.
</event>
<event>
 8    1  0.2924722E+004  0.1043930E+01  0.7957747E-01            NaN
         13   -1    0    0    0    0  0.00000000000E+00  0.00000000000E+00  0.74505805969E-08  0.10566000000E+00  0.10566000000E+00 0. -1.
     999900   -1    0    0    0    0 -0.00000000000E+00 -0.00000000000E+00 -0.74505805969E-08  0.93827000000E+00  0.93827000000E+00 0. -1.
     999902    2    1    2    0    0 -0.12468202529E-01 -0.10406659167E-02 -0.69738548173E-02  0.10296061140E+01  0.10295064722E+01 0.  0.
     999903    2    3    3    0    0  0.15328869074E-01 -0.10525810673E+00 -0.78927307699E-01  0.14010555100E+00  0.45670584190E-01 0.  0.
         14    1    1    2    0    0  0.12468202529E-01  0.10406659167E-02  0.69738548173E-02  0.14323886025E-01  0.00000000000E+00 0. -1.
     999901    1    3    3    0    0 -0.27797071603E-01  0.10421744081E+00  0.71953452882E-01  0.88950056298E+00  0.88000000000E+00 0.  1.
        -11    1    4    4    0    0  0.95695456016E-03 -0.79414096794E-01 -0.76755891790E-01  0.11045018143E+00  0.51100000000E-03 0.  1.
         11    1    4    4    0    0  0.14371914514E-01 -0.25844009933E-01 -0.21714159088E-02  0.29655369569E-01  0.51100000000E-03 0. -1.
</event>
<event>
 8    1  0.2924722E+004  0.1043930E+01  0.7957747E-01            NaN
         13   -1    0    0    0    0  0.00000000000E+00  0.00000000000E+00  0.74505805969E-08  0.10566000000E+00  0.10566000000E+00 0.  1.
     999900   -1    0    0    0    0 -0.00000000000E+00 -0.00000000000E+00 -0.74505805969E-08  0.93827000000E+00  0.93827000000E+00 0.  1.
     999902    2    1    2    0    0 -0.73943072817E-03  0.61201046559E-02 -0.10333597365E-01  0.10318973081E+01  0.10318271507E+01 0.  0.
     999903    2    3    3    0    0  0.12756710278E+00  0.41368150958E-01  0.84325801232E-02  0.14169667866E+00  0.44968330112E-01 0.  0.
         14    1    1    2    0    0  0.73943072817E-03 -0.61201046559E-02  0.10333597365E-01  0.12032691856E-01  0.00000000000E+00 0.  1.
     999901    1    3    3    0    0 -0.12830653350E+00 -0.35248046302E-01 -0.18766177488E-01  0.89020062948E+00  0.88000000000E+00 0. -1.
        -11    1    4    4    0    0  0.50167170601E-01  0.31854252626E-01 -0.12974065254E-01  0.60827838254E-01  0.51100000000E-03 0. -1.
         11    1    4    4    0    0  0.77399932174E-01  0.95138983318E-02  0.21406645377E-01  0.80868840411E-01  0.51100000000E-03 0.  1.
</event>
<event>
 8    1  0.2924722E+004  0.1043930E+01  0.7957747E-01            NaN
         13   -1    0    0    0    0  0.00000000000E+00  0.00000000000E+00  0.74505805969E-08  0.10566000000E+00  0.10566000000E+00 0.  1.
     999900   -1    0    0    0    0 -0.00000000000E+00 -0.00000000000E+00 -0.74505805969E-08  0.93827000000E+00  0.93827000000E+00 0. -1.
     999902    2    1    2    0    0  0.12307458839E-01 -0.32793729001E-02 -0.42603461585E-02  0.10304994982E+01  0.10304119746E+01 0.  0.
     999903    2    3    3    0    0  0.11575810593E+00 -0.54376567394E-01 -0.42424553222E-01  0.14214739098E+00  0.45269060924E-01 0.  0.
         14    1    1    2    0    0 -0.12307458839E-01  0.32793729001E-02  0.42603461585E-02  0.13430501818E-01  0.00000000000E+00 0.  1.
     999901    1    3    3    0    0 -0.10345064709E+00  0.51097194494E-01  0.38164207064E-01  0.88835210720E+00  0.88000000000E+00 0.  1.
        -11    1    4    4    0    0  0.44322791937E-03 -0.23952885656E-02 -0.11723033533E-01  0.11984343724E-01  0.51100000000E-03 0.  1.
         11    1    4    4    0    0  0.11531487801E+00 -0.51981278829E-01 -0.30701519690E-01  0.13016304726E+00  0.51100000000E-03 0. -1.
</event>
<event>
 8    1  0.2924722E+004  0.1043930E+01  0.7957747E-01            NaN
         13   -1    0    0    0    0  0.00000000000E+00  0.00000000000E+00  0.74505805969E-08  0.10566000000E+00  0.10566000000E+00 0.  1.
     999900   -1    0    0    0    0 -0.00000000000E+00 -0.00000000000E+00 -0.74505805969E-08  0.93827000000E+00  0.93827000000E+00 0.  1.
     999902    2    1    2    0    0  0.87037097162E-02  0.71452808207E-02  0.82649207688E-02  0.10299615170E+01  0.10298667914E+01 0.  0.
     999903    2    3    3    0    0 -0.82359500130E-01  0.95628335688E-01 -0.29783852079E-01  0.14003485248E+00  0.52866021372E-01 0.  0.
         14    1    1    2    0    0 -0.87037097162E-02 -0.71452808207E-02 -0.82649207688E-02  0.13968482958E-01  0.00000000000E+00 0. -1.
     999901    1    3    3    0    0  0.91063209847E-01 -0.88483054868E-01  0.38048772848E-01  0.88992666456E+00  0.88000000000E+00 0. -1.
        -11    1    4    4    0    0 -0.67222905622E-01  0.81169702929E-01 -0.22155707015E-02  0.10541636300E+00  0.51100000000E-03 0. -1.
         11    1    4    4    0    0 -0.15136594508E-01  0.14458632759E-01 -0.27568281377E-01  0.34618489477E-01  0.51100000000E-03 0.  1.
</event>
<event>
 8    1  0.2924722E+004  0.1043930E+01  0.7957747E-01            NaN
         13   -1    0    0    0    0  0.00000000000E+00  0.00000000000E+00  0.74505805969E-08  0.10566000000E+00  0.10566000000E+00 0. -1.
     999900   -1    0    0    0    0 -0.00000000000E+00 -0.00000000000E+00 -0.74505805969E-08  0.93827000000E+00  0.93827000000E+00 0.  1.
     999902    2    1    2    0    0 -0.11915387912E-01 -0.42223135190E-02 -0.34496488196E-02  0.10308263945E+01  0.10307431063E+01 0.  0.
     999903    2    3    3    0    0  0.67737468638E-01  0.11328732316E+00 -0.62937049288E-03  0.13944485651E+00  0.44967651197E-01 0.  0.
         14    1    1    2    0    0  0.11915387912E-01  0.42223135190E-02  0.34496488196E-02  0.13103605516E-01  0.00000000000E+00 0. -1.
     999901    1    3    3    0    0 -0.79652856550E-01 -0.11750963668E+00 -0.28202783267E-02  0.89138153797E+00  0.88000000000E+00 0. -1.
        -11    1    4    4    0    0  0.26835202195E-01  0.81569649378E-01  0.10465925131E-01  0.86507412898E-01  0.51100000000E-03 0.  1.
         11    1    4    4    0    0  0.40902266444E-01  0.31717673781E-01 -0.11095295624E-01  0.52937443613E-01  0.51100000000E-03 0. -1.
</event>
<event>
 8    1  0.2924722E+004  0.1043930E+01  0.7957747E-01            NaN
         13   -1    0    0    0    0  0.00000000000E+00  0.00000000000E+00  0.74505805969E-08  0.10566000000E+00  0.10566000000E+00 0. -1.
     999900   -1    0    0    0    0 -0.00000000000E+00 -0.00000000000E+00 -0.74505805969E-08  0.93827000000E+00  0.93827000000E+00 0.  1.
     999902    2    1    2    0    0  0.62874082223E-03 -0.82101773512E-02  0.84261168977E-02  0.10321485836E+01  0.10320813421E+01 0.  0.
     999903    2    3    3    0    0 -0.77865224114E-01 -0.89351127967E-01  0.66475030383E-01  0.14303957295E+00  0.44662876882E-01 0.  0.
         14    1    1    2    0    0 -0.62874082223E-03  0.82101773512E-02 -0.84261168977E-02  0.11781416432E-01  0.00000000000E+00 0.  1.
     999901    1    3    3    0    0  0.78493964936E-01  0.81140950615E-01 -0.58048913486E-01  0.88910901061E+00  0.88000000000E+00 0.  1.
        -11    1    4    4    0    0 -0.40943623950E-01 -0.14957324196E-01  0.23638615416E-01  0.49589788758E-01  0.51100000000E-03 0. -1.
         11    1    4    4    0    0 -0.36921600163E-01 -0.74393803771E-01  0.42836414968E-01  0.93449784197E-01  0.51100000000E-03 0.  1.
</event>
<event>
 8    1  0.2924722E+004  0.1043930E+01  0.7957747E-01            NaN
         13   -1    0    0    0    0  0.00000000000E+00  0.00000000000E+00  0.74505805969E-08  0.10566000000E+00  0.10566000000E+00 0.  1.
     999900   -1    0    0    0    0 -0.00000000000E+00 -0.00000000000E+00 -0.74505805969E-08  0.93827000000E+00  0.93827000000E+00 0.  1.
     999902    2    1    2    0    0 -0.38285512044E-02 -0.96432524218E-02  0.92736439116E-02  0.10300141604E+01  0.10299201522E+01 0.  0.
     999903    2    3    3    0    0  0.51624267270E-01 -0.11848509277E+00 -0.30394260798E-01  0.14069132586E+00  0.46545202798E-01 0.  0.
         14    1    1    2    0    0  0.38285512044E-02  0.96432524218E-02 -0.92736439116E-02  0.13915839644E-01  0.00000000000E+00 0. -1.
     999901    1    3    3    0    0 -0.55452818474E-01  0.10884184035E+00  0.39667904710E-01  0.88932283449E+00  0.88000000000E+00 0. -1.
        -11    1    4    4    0    0  0.36478513208E-01 -0.10215946140E+00 -0.41066984716E-01  0.11599136104E+00  0.51100000000E-03 0. -1.
         11    1    4    4    0    0  0.15145754062E-01 -0.16325631367E-01  0.10672723918E-01  0.24699964827E-01  0.51100000000E-03 0.  1.
</event>
<event>
 8    1  0.2924722E+004  0.1043930E+01  0.7957747E-01            NaN
         13   -1    0    0    0    0  0.00000000000E+00  0.00000000000E+00  0.74505805969E-08  0.10566000000E+00  0.10566000000E+00 0. -1.
     999900   -1    0    0    0    0 -0.00000000000E+00 -0.00000000000E+00 -0.74505805969E-08  0.93827000000E+00  0.93827000000E+00 0. -1.
     999902    2    1    2    0    0  0.31405590905E-03  0.31553566281E-02 -0.13035298325E-01  0.10305145645E+01  0.10304272385E+01 0.  0.
     999903    2    3    3    0    0  0.26635107035E-01  0.63630836723E-01 -0.11602094439E+00  0.14205740477E+00  0.44284697180E-01 0.  0.
         14    1    1    2    0    0 -0.31405590905E-03 -0.31553566281E-02  0.13035298325E-01  0.13415435475E-01  0.00000000000E+00 0. -1.
     999901    1    3    3    0    0 -0.26321051126E-01 -0.60475480094E-01  0.10298564606E+00  0.88845715976E+00  0.88000000000E+00 0.  1.
        -11    1    4    4    0    0  0.31637392541E-01  0.27533289620E-01 -0.82453048884E-01  0.92508232257E-01  0.51100000000E-03 0. -1.
         11    1    4    4    0    0 -0.50022855058E-02  0.36097547102E-01 -0.33567895505E-01  0.49549172513E-01  0.51100000000E-03 0.  1.
</event>
<event>
 8    1  0.2924722E+004  0.1043930E+01  0.7957747E-01            NaN
         13   -1    0    0    0    0  0.00000000000E+00  0.00000000000E+00  0.74505805969E-08  0.10566000000E+00  0.10566000000E+00 0.  1.
     999900   -1    0    0    0    0 -0.00000000000E+00 -0.00000000000E+00 -0.74505805969E-08  0.93827000000E+00  0.93827000000E+00 0. -1.
     999902    2    1    2    0    0 -0.10033502481E-01 -0.98826688783E-02  0.45109079374E-03  0.10298395139E+01  0.10297431148E+01 0.  0.
     999903    2    3    3    0    0 -0.78977370235E-01  0.10523930701E+00 -0.14603437177E-01  0.13954014566E+00  0.44107313753E-01 0.  0.
         14    1    1    2    0    0  0.10033502481E-01  0.98826688783E-02 -0.45109079374E-03  0.14090486120E-01  0.00000000000E+00 0. -1.
     999901    1    3    3    0    0  0.68943867754E-01 -0.11512197588E+00  0.15054527970E-01  0.89029936822E+00  0.88000000000E+00 0. -1.
        -11    1    4    4    0    0 -0.28442407773E-01  0.10113766073E-01 -0.97016490278E-02  0.31711858018E-01  0.51100000000E-03 0. -1.
         11    1    4    4    0    0 -0.50534962462E-01  0.95125540932E-01 -0.49017881487E-02  0.10782828765E+00  0.51100000000E-03 0.  1.
</event>
<event>
 8    1  0.2924722E+004  0.1043930E+01  0.7957747E-01            NaN
         13   -1    0    0    0    0  0.00000000000E+00  0.00000000000E+00  0.74505805969E-08  0.10566000000E+00  0.10566000000E+00 0. -1.
     999900   -1    0    0    0    0 -0.00000000000E+00 -0.00000000000E+00 -0.74505805969E-08  0.93827000000E+00  0.93827000000E+00 0.  1.
     999902    2    1    2    0    0  0.10115878362E-01 -0.61002770073E-02  0.49496788512E-02  0.10311220456E+01  0.10310424963E+01 0.  0.
     999903    2    3    3    0    0 -0.11286799139E+00 -0.68542461720E-01  0.11507113042E-01  0.14035436626E+00  0.46148477102E-01 0.  0.
         14    1    1    2    0    0 -0.10115878362E-01  0.61002770073E-02 -0.49496788512E-02  0.12807954377E-01  0.00000000000E+00 0.  1.
     999901    1    3    3    0    0  0.12298386975E+00  0.62442184713E-01 -0.65574341904E-02  0.89076767936E+00  0.88000000000E+00 0. -1.
        -11    1    4    4    0    0 -0.25945688898E-01  0.35662706269E-02  0.78880020770E-02  0.27356512138E-01  0.51100000000E-03 0.  1.
         11    1    4    4    0    0 -0.86922302492E-01 -0.72108732347E-01  0.36191109646E-02  0.11299785412E+00  0.51100000000E-03 0. -1.
</event>
<event>
 8    1  0.2924722E+004  0.1043930E+01  0.7957747E-01            NaN
         13   -1    0    0    0    0  0.00000000000E+00  0.00000000000E+00  0.74505805969E-08  0.10566000000E+00  0.10566000000E+00 0.  1.
     999900   -1    0    0    0    0 -0.00000000000E+00 -0.00000000000E+00 -0.74505805969E-08  0.93827000000E+00  0.93827000000E+00 0.  1.
     999902    2    1    2    0    0 -0.18847143586E-01 -0.98400810485E-02  0.93269569842E-04  0.10226685157E+01  0.10224474765E+01 0.  0.
     999903    2    3    3    0    0 -0.91569335885E-01 -0.37703242447E-01  0.80776087881E-01  0.13555263250E+00  0.45202456113E-01 0.  0.
         14    1    1    2    0    0  0.18847143586E-01  0.98400810485E-02 -0.93269569842E-04  0.21261484323E-01  0.00000000000E+00 0. -1.
     999901    1    3    3    0    0  0.72722192299E-01  0.27863161399E-01 -0.80682818312E-01  0.88711588318E+00  0.88000000000E+00 0.  1.
        -11    1    4    4    0    0 -0.69546665813E-01 -0.28779995764E-01  0.32986299969E-01  0.82178975344E-01  0.51100000000E-03 0. -1.
         11    1    4    4    0    0 -0.22022670072E-01 -0.89232466835E-02  0.47789787913E-01  0.53373657156E-01  0.51100000000E-03 0.  1.
</event>
<event>
 8    1  0.2924722E+004  0.1043930E+01  0.7957747E-01            NaN
         13   -1    0    0    0    0  0.00000000000E+00  0.00000000000E+00  0.74505805969E-08  0.10566000000E+00  0.10566000000E+00 0.  1.
     999900   -1    0    0    0    0 -0.00000000000E+00 -0.00000000000E+00 -0.74505805969E-08  0.93827000000E+00  0.93827000000E+00 0. -1.
     999902    2    1    2    0    0  0.11126019015E-01 -0.55503370685E-02  0.26162246245E-02  0.10312241284E+01  0.10311458500E+01 0.  0.
     999903    2    3    3    0    0  0.12714743076E+00  0.28808667061E-02  0.45084490526E-01  0.14255343196E+00  0.45979355526E-01 0.  0.
         14    1    1    2    0    0 -0.11126019015E-01  0.55503370685E-02 -0.26162246245E-02  0.12705871555E-01  0.00000000000E+00 0. -1.
     999901    1    3    3    0    0 -0.11602141175E+00 -0.84312037746E-02 -0.42468265901E-01  0.88867069648E+00  0.88000000000E+00 0. -1.
        -11    1    4    4    0    0  0.91365944878E-01 -0.71185857728E-02  0.11307183557E-01  0.92339177319E-01  0.51100000000E-03 0. -1.
         11    1    4    4    0    0  0.35781485887E-01  0.99994524789E-02  0.33777306969E-01  0.50214254642E-01  0.51100000000E-03 0.  1.
</event>
<event>
 8    1  0.2924722E+004  0.1043930E+01  0.7957747E-01            NaN
         13   -1    0    0    0    0  0.00000000000E+00  0.00000000000E+00  0.74505805969E-08  0.10566000000E+00  0.10566000000E+00 0.  1.
     999900   -1    0    0    0    0 -0.00000000000E+00 -0.00000000000E+00 -0.74505805969E-08  0.93827000000E+00  0.93827000000E+00 0.  1.
     999902    2    1    2    0    0 -0.25754830724E-02 -0.10616465834E-01  0.87528108405E-02  0.10299316373E+01  0.10298365032E+01 0.  0.
     999903    2    3    3    0    0  0.10444458021E-01 -0.54061264641E-01  0.12247305974E+00  0.14145582763E+00  0.44479138612E-01 0.  0.
         14    1    1    2    0    0  0.25754830724E-02  0.10616465834E-01 -0.87528108405E-02  0.13998362671E-01  0.00000000000E+00 0. -1.
     999901    1    3    3    0    0 -0.13019941094E-01  0.43444798808E-01 -0.11372024890E+00  0.88847580970E+00  0.88000000000E+00 0.  1.
        -11    1    4    4    0    0  0.22133021928E-02  0.31172666812E-02  0.43168830928E-01  0.43340802287E-01  0.51100000000E-03 0.  1.
         11    1    4    4    0    0  0.82311558284E-02 -0.57178531322E-01  0.79304228808E-01  0.98115025344E-01  0.51100000000E-03 0. -1.
</event>
<event>
 8    1  0.2924722E+004  0.1043930E+01  0.7957747E-01            NaN
         13   -1    0    0    0    0  0.00000000000E+00  0.00000000000E+00  0.74505805969E-08  0.10566000000E+00  0.10566000000E+00 0. -1.
     999900   -1    0    0    0    0 -0.00000000000E+00 -0.00000000000E+00 -0.74505805969E-08  0.93827000000E+00  0.93827000000E+00 0. -1.
     999902    2    1    2    0    0  0.10441789846E-01 -0.48038248624E-02  0.32525495677E-02  0.10319848425E+01  0.10319157080E+01 0.  0.
     999903    2    3    3    0    0  0.22843343439E-01 -0.64447088344E-01  0.11685536109E+00  0.14259363715E+00  0.44749574354E-01 0.  0.
         14    1    1    2    0    0 -0.10441789846E-01  0.48038248624E-02 -0.32525495677E-02  0.11945157479E-01  0.00000000000E+00 0. -1.
     999901    1    3    3    0    0 -0.12401553592E-01  0.59643263482E-01 -0.11360281152E+00  0.88939120537E+00  0.88000000000E+00 0. -1.
        -11    1    4    4    0    0  0.78265945191E-02 -0.48516655539E-01  0.42152736701E-01  0.64747477007E-01  0.51100000000E-03 0. -1.
         11    1    4    4    0    0  0.15016748920E-01 -0.15930432805E-01  0.74702624386E-01  0.77846160141E-01  0.51100000000E-03 0.  1.
</event>
<event>
 8    1  0.2924722E+004  0.1043930E+01  0.7957747E-01            NaN
         13   -1    0    0    0    0  0.00000000000E+00  0.00000000000E+00  0.74505805969E-08  0.10566000000E+00  0.10566000000E+00 0. -1.
     999900   -1    0    0    0    0 -0.00000000000E+00 -0.00000000000E+00 -0.74505805969E-08  0.93827000000E+00  0.93827000000E+00 0.  1.
     999902    2    1    2    0    0  0.63445927262E-02  0.68183212286E-02 -0.87891313830E-02  0.10311240564E+01  0.10310445322E+01 0.  0.
     999903    2    3    3    0    0  0.73890437897E-01  0.35368183048E-01 -0.10818813667E+00  0.14249719541E+00  0.43474965188E-01 0.  0.
         14    1    1    2    0    0 -0.63445927262E-02 -0.68183212286E-02  0.87891313830E-02  0.12805943609E-01  0.00000000000E+00 0. -1.
     999901    1    3    3    0    0 -0.67545845171E-01 -0.28549861819E-01  0.99399005287E-01  0.88862686098E+00  0.88000000000E+00 0. -1.
        -11    1    4    4    0    0  0.25088998129E-01  0.35950294525E-01 -0.48057579207E-01  0.65051314697E-01  0.51100000000E-03 0.  1.
         11    1    4    4    0    0  0.48801439768E-01 -0.58211147739E-03 -0.60130557463E-01  0.77445880710E-01  0.51100000000E-03 0. -1.
</event>
<event>
 8    1  0.2924722E+004  0.1043930E+01  0.7957747E-01            NaN
         13   -1    0    0    0    0  0.00000000000E+00  0.00000000000E+00  0.74505805969E-08  0.10566000000E+00  0.10566000000E+00 0.  1.
     999900   -1    0    0    0    0 -0.00000000000E+00 -0.00000000000E+00 -0.74505805969E-08  0.93827000000E+00  0.93827000000E+00 0. -1.
     999902    2    1    2    0    0  0.74477858632E-02  0.95153237746E-02 -0.52434723041E-02  0.10307578740E+01  0.10306737068E+01 0.  0.
     999903    2    3    3    0    0 -0.12342580651E+00  0.49500213569E-01 -0.41970465010E-02  0.14018065469E+00  0.44145213729E-01 0.  0.
         14    1    1    2    0    0 -0.74477858632E-02 -0.95153237746E-02  0.52434723041E-02  0.13172125971E-01  0.00000000000E+00 0.  1.
     999901    1    3    3    0    0  0.13087359237E+00 -0.39984889794E-01 -0.10464258031E-02  0.89057721934E+00  0.88000000000E+00 0. -1.
        -11    1    4    4    0    0 -0.20074742899E-01  0.25691861931E-01 -0.95744938275E-02  0.33985278062E-01  0.51100000000E-03 0. -1.
         11    1    4    4    0    0 -0.10335106361E+00  0.23808351638E-01  0.53774473265E-02  0.10619537663E+00  0.51100000000E-03 0.  1.
</event>
<event>
 8    1  0.2924722E+004  0.1043930E+01  0.7957747E-01            NaN
         13   -1    0    0    0    0  0.00000000000E+00  0.00000000000E+00  0.74505805969E-08  0.10566000000E+00  0.10566000000E+00 0.  1.
     999900   -1    0    0    0    0 -0.00000000000E+00 -0.00000000000E+00 -0.74505805969E-08  0.93827000000E+00  0.93827000000E+00 0. -1.
     999902    2    1    2    0    0  0.10495204456E-03 -0.94984964799E-02 -0.11006903292E-01  0.10293909364E+01  0.10292882568E+01 0.  0.
     999903    2    3    3    0    0  0.12570234779E+00 -0.36200474410E-01  0.19091504609E-01  0.13956307911E+00  0.44741623987E-01 0.  0.
         14    1    1    2    0    0 -0.10495204456E-03  0.94984964799E-02  0.11006903292E-01  0.14539063601E-01  0.00000000000E+00 0. -1.
     999901    1    3    3    0    0 -0.12559739574E+00  0.26701977931E-01 -0.30098407901E-01  0.88982785729E+00  0.88000000000E+00 0. -1.
        -11    1    4    4    0    0  0.50025298579E-01  0.78062318446E-02  0.92031877343E-02  0.51462875347E-01  0.51100000000E-03 0. -1.
         11    1    4    4    0    0  0.75677049207E-01 -0.44006706255E-01  0.98883168742E-02  0.88100203767E-01  0.51100000000E-03 0.  1.
</event>
<event>
 8    1  0.2924722E+004  0.1043930E+01  0.7957747E-01            NaN
         13   -1    0    0    0    0  0.00000000000E+00  0.00000000000E+00  0.74505805969E-08  0.10566000000E+00  0.10566000000E+00 0. -1.
     999900   -1    0    0    0    0 -0.00000000000E+00 -0.00000000000E+00 -0.74505805969E-08  0.93827000000E+00  0.93827000000E+00 0.  1.
     999902    2    1    2    0    0 -0.46700087268E-02 -0.10697697401E-01  0.40362178800E-02  0.10315792605E+01  0.10315053223E+01 0.  0.
     999903    2    3    3    0    0 -0.32560710333E-01 -0.13019094089E+00  0.18831295349E-01  0.14294242761E+00  0.45475696554E-01 0.  0.
         14    1    1    2    0    0  0.46700087268E-02  0.10697697401E-01 -0.40362178800E-02  0.12350739491E-01  0.00000000000E+00 0. -1.
     999901    1    3    3    0    0  0.27890701607E-01  0.11949324349E+00 -0.14795077469E-01  0.88863683290E+00  0.88000000000E+00 0.  1.
        -11    1    4    4    0    0 -0.28524827524E-01 -0.32069905135E-01 -0.12942602208E-03  0.42923448985E-01  0.51100000000E-03 0.  1.
         11    1    4    4    0    0 -0.40358828091E-02 -0.98121035759E-01  0.18960721371E-01  0.10001897862E+00  0.51100000000E-03 0. -1.
</event>
<event>
 8    1  0.2924722E+004  0.1043930E+01  0.7957747E-01            NaN
         13   -1    0    0    0    0  0.00000000000E+00  0.00000000000E+00  0.74505805969E-08  0.10566000000E+00  0.10566000000E+00 0. -1.
     999900   -1    0    0    0    0 -0.00000000000E+00 -0.00000000000E+00 -0.74505805969E-08  0.93827000000E+00  0.93827000000E+00 0. -1.
     999902    2    1    2    0    0  0.66074324079E-02 -0.71205802395E-02 -0.76316317629E-02  0.10315767563E+01  0.10315027880E+01 0.  0.
     999903    2    3    3    0    0  0.34801993797E-01  0.37035310597E-01  0.12277937253E+00  0.14042485792E+00  0.45404552632E-01 0.  0.
         14    1    1    2    0    0 -0.66074324079E-02  0.71205802395E-02  0.76316317629E-02  0.12353243677E-01  0.00000000000E+00 0. -1.
     999901    1    3    3    0    0 -0.28194561389E-01 -0.44155890836E-01 -0.13041100429E+00  0.89115189840E+00  0.88000000000E+00 0. -1.
        -11    1    4    4    0    0  0.72241543263E-02 -0.10327276033E-01  0.31818099238E-01  0.34227088630E-01  0.51100000000E-03 0. -1.
         11    1    4    4    0    0  0.27577839471E-01  0.47362586630E-01  0.90961273292E-01  0.10619776929E+00  0.51100000000E-03 0.  1.
</event>
<event>
 8    1  0.2924722E+004  0.1043930E+01  0.7957747E-01            NaN
         13   -1    0    0    0    0  0.00000000000E+00  0.00000000000E+00  0.74505805969E-08  0.10566000000E+00  0.10566000000E+00 0. -1.
     999900   -1    0    0    0    0 -0.00000000000E+00 -0.00000000000E+00 -0.74505805969E-08  0.93827000000E+00  0.93827000000E+00 0. -1.
     999902    2    1    2    0    0 -0.12844773473E-01 -0.53869332576E-02 -0.10937682419E-02  0.10299584724E+01  0.10298637052E+01 0.  0.
     999903    2    3    3    0    0  0.62840150909E-01 -0.11454170474E+00 -0.16893387944E-01  0.13985027675E+00  0.46947062329E-01 0.  0.
         14    1    1    2    0    0  0.12844773473E-01  0.53869332576E-02  0.10937682419E-02  0.13971527635E-01  0.00000000000E+00 0. -1.
     999901    1    3    3    0    0 -0.75684924382E-01  0.10915477148E+00  0.15799619702E-01  0.89010819561E+00  0.88000000000E+00 0. -1.
        -11    1    4    4    0    0  0.17503700452E-01 -0.32704809116E-02 -0.75046688969E-02  0.19330203081E-01  0.51100000000E-03 0.  1.
         11    1    4    4    0    0  0.45336450458E-01 -0.11127122382E+00 -0.93887190473E-02  0.12052007367E+00  0.51100000000E-03 0. -1.
</event>
<event>
 8    1  0.2924722E+004  0.1043930E+01  0.7957747E-01            NaN
         13   -1    0    0    0    0  0.00000000000E+00  0.00000000000E+00  0.74505805969E-08  0.10566000000E+00  0.10566000000E+00 0.  1.
     999900   -1    0    0    0    0 -0.00000000000E+00 -0.00000000000E+00 -0.74505805969E-08  0.93827000000E+00  0.93827000000E+00 0. -1.
     999902    2    1    2    0    0 -0.11860901981E-02  0.85499270402E-02 -0.10805875917E-01  0.10300997789E+01  0.10300069317E+01 0.  0.
     999903    2    3    3    0    0  0.19170744558E-01 -0.66197230385E-01  0.11116161464E+00  0.13831639316E+00  0.44999214320E-01 0.  0.
         14    1    1    2    0    0  0.11860901981E-02 -0.85499270402E-02  0.10805875917E-01  0.13830221136E-01  0.00000000000E+00 0.  1.
     999901    1    3    3    0    0 -0.20356834756E-01  0.74747157425E-01 -0.12196749056E+00  0.89178338570E+00  0.88000000000E+00 0. -1.
        -11    1    4    4    0    0  0.25946979257E-02 -0.15628218146E-01  0.67918960311E-01  0.69743959957E-01  0.51100000000E-03 0. -1.
         11    1    4    4    0    0  0.16576046632E-01 -0.50569012239E-01  0.43242654331E-01  0.68572433203E-01  0.51100000000E-03 0.  1.
</event>
<event>
 8    1  0.2924722E+004  0.1043930E+01  0.7957747E-01            NaN
         13   -1    0    0    0    0  0.00000000000E+00  0.00000000000E+00  0.74505805969E-08  0.10566000000E+00  0.10566000000E+00 0.  1.
     999900   -1    0    0    0    0 -0.00000000000E+00 -0.00000000000E+00 -0.74505805969E-08  0.93827000000E+00  0.93827000000E+00 0.  1.
     999902    2    1    2    0    0 -0.52565979878E-02  0.10367701416E-01 -0.70279024089E-02  0.10303464634E+01  0.10302569204E+01 0.  0.
     999903    2    3    3    0    0 -0.40621978310E-01  0.31323790911E-01  0.12260182705E+00  0.13990065673E+00  0.43699665421E-01 0.  0.
         14    1    1    2    0    0  0.52565979878E-02 -0.10367701416E-01  0.70279024089E-02  0.13583536628E-01  0.00000000000E+00 0.  1.
     999901    1    3    3    0    0  0.35365380322E-01 -0.20956089495E-01 -0.12962972946E+00  0.89044580664E+00  0.88000000000E+00 0.  1.
        -11    1    4    4    0    0 -0.11603981176E-01  0.24029520327E-01  0.96722831586E-01  0.10033761756E+00  0.51100000000E-03 0.  1.
         11    1    4    4    0    0 -0.29017997135E-01  0.72942705841E-02  0.25878995463E-01  0.39563039168E-01  0.51100000000E-03 0. -1.
</event>
<event>
 8    1  0.2924722E+004  0.1043930E+01  0.7957747E-01            NaN
         13   -1    0    0    0    0  0.00000000000E+00  0.00000000000E+00  0.74505805969E-08  0.10566000000E+00  0.10566000000E+00 0. -1.
     999900   -1    0    0    0    0 -0.00000000000E+00 -0.00000000000E+00 -0.74505805969E-08  0.93827000000E+00  0.93827000000E+00 0. -1.
     999902    2    1    2    0    0  0.75920816119E-02  0.12251139388E-01 -0.15732420603E-03  0.10295162957E+01  0.10294153915E+01 0.  0.
     999903    2    3    3    0    0 -0.12948313438E+00 -0.17014494489E-01  0.10110019457E-01  0.13836450704E+00  0.44577451717E-01 0.  0.
         14    1    1    2    0    0 -0.75920816119E-02 -0.12251139388E-01  0.15732420603E-03  0.14413704257E-01  0.00000000000E+00 0. -1.
     999901    1    3    3    0    0  0.13707521600E+00  0.29265633877E-01 -0.10267343663E-01  0.89115178871E+00  0.88000000000E+00 0. -1.
        -11    1    4    4    0    0 -0.39651678313E-01  0.15321280279E-01  0.24541871922E-02  0.42582641747E-01  0.51100000000E-03 0. -1.
         11    1    4    4    0    0 -0.89831456072E-01 -0.32335774768E-01  0.76558322652E-02  0.95781865291E-01  0.51100000000E-03 0.  1.
</event>
<event>
 8    1  0.2924722E+004  0.1043930E+01  0.7957747E-01            NaN
         13   -1    0    0    0    0  0.00000000000E+00  0.00000000000E+00  0.74505805969E-08  0.10566000000E+00  0.10566000000E+00 0. -1.
     999900   -1    0    0    0    0 -0.00000000000E+00 -0.00000000000E+00 -0.74505805969E-08  0.93827000000E+00  0.93827000000E+00 0.  1.
     999902    2    1    2    0    0 -0.10012388989E-01  0.59913771970E-02 -0.73386288035E-02  0.10301459510E+01  0.10300537269E+01 0.  0.
     999903    2    3    3    0    0 -0.90520664714E-01 -0.42909284658E-01 -0.89169749371E-01  0.14134384171E+00  0.44627793321E-01 0.  0.
         14    1    1    2    0    0  0.10012388989E-01 -0.59913771970E-02  0.73386288035E-02  0.13784048995E-01  0.00000000000E+00 0. -1.
     999901    1    3    3    0    0  0.80508275725E-01  0.48900661855E-01  0.81831120568E-01  0.88880210929E+00  0.88000000000E+00 0.  1.
        -11    1    4    4    0    0 -0.77158854426E-02 -0.22484568685E-01 -0.13594357101E-01  0.27389019389E-01  0.51100000000E-03 0.  1.
         11    1    4    4    0    0 -0.82804779271E-01 -0.20424715974E-01 -0.75575392270E-01  0.11395482232E+00  0.51100000000E-03 0. -1.
</event>
<event>
 8    1  0.2924722E+004  0.1043930E+01  0.7957747E-01            NaN
         13   -1    0    0    0    0  0.00000000000E+00  0.00000000000E+00  0.74505805969E-08  0.10566000000E+00  0.10566000000E+00 0. -1.
     999900   -1    0    0    0    0 -0.00000000000E+00 -0.00000000000E+00 -0.74505805969E-08  0.93827000000E+00  0.93827000000E+00 0.  1.
     999902    2    1    2    0    0  0.13994420343E-01 -0.20478098152E-02  0.22097671031E-03  0.10297848186E+01  0.10296876645E+01 0.  0.
     999903    2    3    3    0    0  0.82762158750E-01  0.37668128890E-01 -0.97640970254E-01  0.14080601217E+00  0.44990122664E-01 0.  0.
         14    1    1    2    0    0 -0.13994420343E-01  0.20478098152E-02 -0.22097671031E-03  0.14145181387E-01  0.00000000000E+00 0.  1.
     999901    1    3    3    0    0 -0.68767738407E-01 -0.39715938706E-01  0.97861946964E-01  0.88897880644E+00  0.88000000000E+00 0. -1.
        -11    1    4    4    0    0  0.77441218652E-01  0.16661930791E-01 -0.82448905616E-01  0.11433654465E+00  0.51100000000E-03 0.  1.
         11    1    4    4    0    0  0.53209400978E-02  0.21006198099E-01 -0.15192064638E-01  0.26469467525E-01  0.51100000000E-03 0. -1.
</event>
<event>
 8    1  0.2924722E+004  0.1043930E+01  0.7957747E-01            NaN
         13   -1    0    0    0    0  0.00000000000E+00  0.00000000000E+00  0.74505805969E-08  0.10566000000E+00  0.10566000000E+00 0. -1.
     999900   -1    0    0    0    0 -0.00000000000E+00 -0.00000000000E+00 -0.74505805969E-08  0.93827000000E+00  0.93827000000E+00 0. -1.
     999902    2    1    2    0    0  0.10028608185E-01  0.21052726123E-02  0.10217831743E-01  0.10294590208E+01  0.10293573073E+01 0.  0.
     999903    2    3    3    0    0  0.34624898915E-01 -0.19192468571E-01 -0.12484976938E+00  0.13855957178E+00  0.45211232503E-01 0.  0.
         14    1    1    2    0    0 -0.10028608185E-01 -0.21052726123E-02 -0.10217831743E-01  0.14470979250E-01  0.00000000000E+00 0.  1.
     999901    1    3    3    0    0 -0.24596290730E-01  0.21297741183E-01  0.13506760112E+00  0.89089944897E+00  0.88000000000E+00 0.  1.
        -11    1    4    4    0    0  0.17771994213E-01  0.92214432063E-02 -0.18753589273E-01  0.27437875733E-01  0.51100000000E-03 0. -1.
         11    1    4    4    0    0  0.16852904702E-01 -0.28413911777E-01 -0.10609618010E+00  0.11112169605E+00  0.51100000000E-03 0.  1.
</event>
<event>
 8    1  0.2924722E+004  0.1043930E+01  0.7957747E-01            NaN
         13   -1    0    0    0    0  0.00000000000E+00  0.00000000000E+00  0.74505805969E-08  0.10566000000E+00  0.10566000000E+00 0. -1.
     999900   -1    0    0    0    0 -0.00000000000E+00 -0.00000000000E+00 -0.74505805969E-08  0.93827000000E+00  0.93827000000E+00 0.  1.
     999902    2    1    2    0    0  0.92476885829E-02 -0.10307533117E-01 -0.27649791807E-02  0.10298087361E+01  0.10297119126E+01 0.  0.
     999903    2    3    3    0    0  0.95463469592E-01 -0.37598829501E-01  0.84638290292E-01  0.14086705793E+00  0.46399804082E-01 0.  0.
         14    1    1    2    0    0 -0.92476885829E-02  0.10307533117E-01  0.27649791807E-02  0.14121263859E-01  0.00000000000E+00 0. -1.
     999901    1    3    3    0    0 -0.86215781009E-01  0.27291296383E-01 -0.87403269473E-01  0.88894167822E+00  0.88000000000E+00 0.  1.
        -11    1    4    4    0    0  0.23869993535E-01 -0.32654146998E-01  0.36199560724E-01  0.54283876290E-01  0.51100000000E-03 0.  1.
         11    1    4    4    0    0  0.71593476057E-01 -0.49446825029E-02  0.48438729569E-01  0.86583181636E-01  0.51100000000E-03 0. -1.
</event>
<event>
 8    1  0.2924722E+004  0.1043930E+01  0.7957747E-01            NaN
         13   -1    0    0    0    0  0.00000000000E+00  0.00000000000E+00  0.74505805969E-08  0.10566000000E+00  0.10566000000E+00 0. -1.
     999900   -1    0    0    0    0 -0.00000000000E+00 -0.00000000000E+00 -0.74505805969E-08  0.93827000000E+00  0.93827000000E+00 0.  1.
     999902    2    1    2    0    0  0.48910141708E-02  0.10697720033E-01  0.89150795562E-02  0.10291705326E+01  0.10290646935E+01 0.  0.
     999903    2    3    3    0    0  0.11882143914E+00 -0.39550620543E-01 -0.43396444354E-01  0.13886635259E+00  0.41446670715E-01 0.  0.
         14    1    1    2    0    0 -0.48910141708E-02 -0.10697720033E-01 -0.89150795562E-02  0.14759467369E-01  0.00000000000E+00 0.  1.
     999901    1    3    3    0    0 -0.11393042497E+00  0.50248340576E-01  0.52311523910E-01  0.89030418004E+00  0.88000000000E+00 0. -1.
        -11    1    4    4    0    0  0.46592228534E-01 -0.17451072537E-01  0.36295202510E-02  0.49887976815E-01  0.51100000000E-03 0.  1.
         11    1    4    4    0    0  0.72229210611E-01 -0.22099548006E-01 -0.47025964605E-01  0.88978375775E-01  0.51100000000E-03 0. -1.
</event>
<event>
 8    1  0.2924722E+004  0.1043930E+01  0.7957747E-01            NaN
         13   -1    0    0    0    0  0.00000000000E+00  0.00000000000E+00  0.74505805969E-08  0.10566000000E+00  0.10566000000E+00 0. -1.
     999900   -1    0    0    0    0 -0.00000000000E+00 -0.00000000000E+00 -0.74505805969E-08  0.93827000000E+00  0.93827000000E+00 0.  1.
     999902    2    1    2    0    0 -0.14961651771E-02  0.15658115960E-01 -0.30968362935E-02  0.10278986089E+01  0.10277735863E+01 0.  0.
     999903    2    3    3    0    0  0.10031622064E+00  0.74018385151E-02  0.82910462992E-01  0.13782491332E+00  0.44759697521E-01 0.  0.
         14    1    1    2    0    0  0.14961651771E-02 -0.15658115960E-01  0.30968362935E-02  0.16031391102E-01  0.00000000000E+00 0. -1.
     999901    1    3    3    0    0 -0.10181238582E+00  0.82562774444E-02 -0.86007299285E-01  0.89007369557E+00  0.88000000000E+00 0.  1.
        -11    1    4    4    0    0  0.96448833761E-01  0.18655089718E-02  0.59242154465E-01  0.11320667668E+00  0.51100000000E-03 0.  1.
         11    1    4    4    0    0  0.38673868798E-02  0.55363295433E-02  0.23668308527E-01  0.24618236647E-01  0.51100000000E-03 0. -1.
</event>
<event>
 8    1  0.2924722E+004  0.1043930E+01  0.7957747E-01            NaN
         13   -1    0    0    0    0  0.00000000000E+00  0.00000000000E+00  0.74505805969E-08  0.10566000000E+00  0.10566000000E+00 0. -1.
     999900   -1    0    0    0    0 -0.00000000000E+00 -0.00000000000E+00 -0.74505805969E-08  0.93827000000E+00  0.93827000000E+00 0.  1.
     999902    2    1    2    0    0 -0.98890683099E-02 -0.84423220630E-02  0.55308084700E-02  0.10298000207E+01  0.10297030767E+01 0.  0.
     999903    2    3    3    0    0  0.99166394890E-01  0.81237107533E-01  0.27809091778E-01  0.13826661351E+00  0.43713491185E-01 0.  0.
         14    1    1    2    0    0  0.98890683099E-02  0.84423220630E-02 -0.55308084700E-02  0.14129979341E-01  0.00000000000E+00 0. -1.
     999901    1    3    3    0    0 -0.10905546320E+00 -0.89679429596E-01 -0.22278283308E-01  0.89153340714E+00  0.88000000000E+00 0.  1.
        -11    1    4    4    0    0  0.51829490931E-01  0.15173220356E-01  0.78200153989E-02  0.54570472858E-01  0.51100000000E-03 0.  1.
         11    1    4    4    0    0  0.47336903959E-01  0.66063887177E-01  0.19989076379E-01  0.83696140657E-01  0.51100000000E-03 0. -1.
</event>
<event>
 8    1  0.2924722E+004  0.1043930E+01  0.7957747E-01            NaN
         13   -1    0    0    0    0  0.00000000000E+00  0.00000000000E+00  0.74505805969E-08  0.10566000000E+00  0.10566000000E+00 0. -1.
     999900   -1    0    0    0    0 -0.00000000000E+00 -0.00000000000E+00 -0.74505805969E-08  0.93827000000E+00  0.93827000000E+00 0.  1.
     999902    2    1    2    0    0  0.14677684266E-01  0.37810862233E-02  0.34528952571E-02  0.10283847913E+01  0.10282672928E+01 0.  0.
     999903    2    3    3    0    0  0.98983899228E-01 -0.87464782156E-01  0.43939433537E-03  0.13965399539E+00  0.45333706413E-01 0.  0.
         14    1    1    2    0    0 -0.14677684266E-01 -0.37810862233E-02 -0.34528952571E-02  0.15545208719E-01  0.00000000000E+00 0. -1.
     999901    1    3    3    0    0 -0.84306214962E-01  0.91245868379E-01  0.30135009217E-02  0.88873079589E+00  0.88000000000E+00 0.  1.
        -11    1    4    4    0    0  0.60919196625E-01 -0.58761178821E-01  0.21809697833E-01  0.87406800047E-01  0.51100000000E-03 0. -1.
         11    1    4    4    0    0  0.38064702603E-01 -0.28703603335E-01 -0.21370303498E-01  0.52247195343E-01  0.51100000000E-03 0.  1.
</event>
<event>
 8    1  0.2924722E+004  0.1043930E+01  0.7957747E-01            NaN
         13   -1    0    0    0    0  0.00000000000E+00  0.00000000000E+00  0.74505805969E-08  0.10566000000E+00  0.10566000000E+00 0. -1.
     999900   -1    0    0    0    0 -0.00000000000E+00 -0.00000000000E+00 -0.74505805969E-08  0.93827000000E+00  0.93827000000E+00 0.  1.
     999902    2    1    2    0    0  0.14026954775E-01  0.15913715589E-01  0.47781678910E-02  0.10221852836E+01  0.10219539722E+01 0.  0.
     999903    2    3    3    0    0  0.45179682546E-01 -0.24697662380E-01  0.11471561217E+00  0.13386888829E+00  0.45935055613E-01 0.  0.
         14    1    1    2    0    0 -0.14026954775E-01 -0.15913715589E-01 -0.47781678910E-02  0.21744716427E-01  0.00000000000E+00 0.  1.
     999901    1    3    3    0    0 -0.31152727771E-01  0.40611377969E-01 -0.10993744428E+00  0.88831639528E+00  0.88000000000E+00 0.  1.
        -11    1    4    4    0    0  0.65595641480E-02 -0.17027230678E-01  0.77732318928E-01  0.79846909729E-01  0.51100000000E-03 0.  1.
         11    1    4    4    0    0  0.38620118398E-01 -0.76704317020E-02  0.36983293247E-01  0.54021978564E-01  0.51100000000E-03 0. -1.
</event>
<event>
 8    1  0.2924722E+004  0.1043930E+01  0.7957747E-01            NaN
         13   -1    0    0    0    0  0.00000000000E+00  0.00000000000E+00  0.74505805969E-08  0.10566000000E+00  0.10566000000E+00 0.  1.
     999900   -1    0    0    0    0 -0.00000000000E+00 -0.00000000000E+00 -0.74505805969E-08  0.93827000000E+00  0.93827000000E+00 0. -1.
     999902    2    1    2    0    0  0.23592837268E-03 -0.75244032800E-02  0.11291905770E-01  0.10303587273E+01  0.10302693470E+01 0.  0.
     999903    2    3    3    0    0  0.39087530167E-01  0.35793251611E-01  0.12307255914E+00  0.14138134814E+00  0.45087014902E-01 0.  0.
         14    1    1    2    0    0 -0.23592837268E-03  0.75244032800E-02 -0.11291905770E-01  0.13571272705E-01  0.00000000000E+00 0. -1.
     999901    1    3    3    0    0 -0.38851601795E-01 -0.43317654891E-01 -0.11178065337E+00  0.88897737916E+00  0.88000000000E+00 0. -1.
        -11    1    4    4    0    0  0.63406942500E-02 -0.26876647917E-02  0.60778033611E-01  0.61169097069E-01  0.51100000000E-03 0.  1.
         11    1    4    4    0    0  0.32746835917E-01  0.38480916403E-01  0.62294525527E-01  0.80212251068E-01  0.51100000000E-03 0. -1.
</event>
<event>
 8    1  0.2924722E+004  0.1043930E+01  0.7957747E-01            NaN
         13   -1    0    0    0    0  0.00000000000E+00  0.00000000000E+00  0.74505805969E-08  0.10566000000E+00  0.10566000000E+00 0.  1.
     999900   -1    0    0    0    0 -0.00000000000E+00 -0.00000000000E+00 -0.74505805969E-08  0.93827000000E+00  0.93827000000E+00 0. -1.
     999902    2    1    2    0    0  0.10413994655E-01  0.53425180616E-02 -0.53959313490E-02  0.10310416386E+01  0.10309610811E+01 0.  0.
     999903    2    3    3    0    0 -0.31896539984E-01  0.12778188320E+00  0.22342149479E-01  0.14112536132E+00  0.45514800085E-01 0.  0.
         14    1    1    2    0    0 -0.10413994655E-01 -0.53425180616E-02  0.53959313490E-02  0.12888361379E-01  0.00000000000E+00 0. -1.
     999901    1    3    3    0    0  0.42310534640E-01 -0.12243936514E+00 -0.27738080828E-01  0.88991627730E+00  0.88000000000E+00 0. -1.
        -11    1    4    4    0    0 -0.22749993634E-01  0.75604272044E-01  0.35456548992E-01  0.86550541010E-01  0.51100000000E-03 0.  1.
         11    1    4    4    0    0 -0.91465463508E-02  0.52177611158E-01 -0.13114399514E-01  0.54574820310E-01  0.51100000000E-03 0. -1.
</event>
<event>
 8    1  0.2924722E+004  0.1043930E+01  0.7957747E-01            NaN
         13   -1    0    0    0    0  0.00000000000E+00  0.00000000000E+00  0.74505805969E-08  0.10566000000E+00  0.10566000000E+00 0.  1.
     999900   -1    0    0    0    0 -0.00000000000E+00 -0.00000000000E+00 -0.74505805969E-08  0.93827000000E+00  0.93827000000E+00 0. -1.
     999902    2    1    2    0    0  0.89127224852E-02 -0.66193634836E-02 -0.88165920460E-02  0.10297530860E+01  0.10296554925E+01 0.  0.
     999903    2    3    3    0    0 -0.10239098366E+00 -0.37485615026E-01 -0.74940177182E-01  0.13974546301E+00  0.44985324341E-01 0.  0.
         14    1    1    2    0    0 -0.89127224852E-02  0.66193634836E-02  0.88165920460E-02  0.14176913992E-01  0.00000000000E+00 0.  1.
     999901    1    3    3    0    0  0.11130370615E+00  0.30866251542E-01  0.66123585136E-01  0.89000762300E+00  0.88000000000E+00 0.  1.
        -11    1    4    4    0    0 -0.59571517776E-01  0.19727760858E-02 -0.34808749184E-01  0.69025848175E-01  0.51100000000E-03 0. -1.
         11    1    4    4    0    0 -0.42819465887E-01 -0.39458391111E-01 -0.40131427998E-01  0.70719614833E-01  0.51100000000E-03 0.  1.
</event>
<event>
 8    1  0.2924722E+004  0.1043930E+01  0.7957747E-01            NaN
         13   -1    0    0    0    0  0.00000000000E+00  0.00000000000E+00  0.74505805969E-08  0.10566000000E+00  0.10566000000E+00 0. -1.
     999900   -1    0    0    0    0 -0.00000000000E+00 -0.00000000000E+00 -0.74505805969E-08  0.93827000000E+00  0.93827000000E+00 0. -1.
     999902    2    1    2    0    0  0.98742270027E-02  0.21825274391E-02 -0.95088717553E-02  0.10300489904E+01  0.10299554555E+01 0.  0.
     999903    2    3    3    0    0  0.85495232866E-02  0.13125925649E+00 -0.18392329329E-01  0.14058765194E+00  0.46092551878E-01 0.  0.
         14    1    1    2    0    0 -0.98742270027E-02 -0.21825274391E-02  0.95088717553E-02  0.13881009581E-01  0.00000000000E+00 0. -1.
     999901    1    3    3    0    0  0.13247037161E-02 -0.12907672905E+00  0.88834575738E-02  0.88946133847E+00  0.88000000000E+00 0. -1.
        -11    1    4    4    0    0 -0.11220117562E-01  0.10885571534E+00 -0.16168528963E-01  0.11062160842E+00  0.51100000000E-03 0.  1.
         11    1    4    4    0    0  0.19769640848E-01  0.22403541151E-01 -0.22238003658E-02  0.29966043523E-01  0.51100000000E-03 0. -1.
</event>
<event>
 8    1  0.2924722E+004  0.1043930E+01  0.7957747E-01            NaN
         13   -1    0    0    0    0  0.00000000000E+00  0.00000000000E+00  0.74505805969E-08  0.10566000000E+00  0.10566000000E+00 0.  1.
     999900   -1    0    0    0    0 -0.00000000000E+00 -0.00000000000E+00 -0.74505805969E-08  0.93827000000E+00  0.93827000000E+00 0.  1.
     999902    2    1    2    0    0  0.30141984263E-02  0.97415011782E-02  0.87380988057E-02  0.10305010534E+01  0.10304135502E+01 0.  0.
     999903    2    3    3    0    0 -0.73597688433E-02 -0.10747305531E+00 -0.75095978881E-01  0.13871911586E+00  0.44709766780E-01 0.  0.
         14    1    1    2    0    0 -0.30141984263E-02 -0.97415011782E-02 -0.87380988057E-02  0.13428946649E-01  0.00000000000E+00 0. -1.
     999901    1    3    3    0    0  0.10373967270E-01  0.11721455649E+00  0.83834077687E-01  0.89178193749E+00  0.88000000000E+00 0. -1.
        -11    1    4    4    0    0 -0.16731854209E-01 -0.90854067643E-01 -0.75976754026E-01  0.11961247772E+00  0.51100000000E-03 0.  1.
         11    1    4    4    0    0  0.93720853661E-02 -0.16618987671E-01  0.88077514431E-03  0.19106638144E-01  0.51100000000E-03 0. -1.
</event>
<event>
 8    1  0.2924722E+004  0.1043930E+01  0.7957747E-01            NaN
         13   -1    0    0    0    0  0.00000000000E+00  0.00000000000E+00  0.74505805969E-08  0.10566000000E+00  0.10566000000E+00 0. -1.
     999900   -1    0    0    0    0 -0.00000000000E+00 -0.00000000000E+00 -0.74505805969E-08  0.93827000000E+00  0.93827000000E+00 0. -1.
     999902    2    1    2    0    0  0.12095243041E-01 -0.35000873786E-02  0.27237582163E-02  0.10310472839E+01  0.10309667973E+01 0.  0.
     999903    2    3    3    0    0 -0.70921621744E-01 -0.51036915863E-01 -0.99564498851E-01  0.13997240631E+00  0.45216610715E-01 0.  0.
         14    1    1    2    0    0 -0.12095243041E-01  0.35000873786E-02 -0.27237582163E-02  0.12882716123E-01  0.00000000000E+00 0.  1.
     999901    1    3    3    0    0  0.83016864786E-01  0.47536828484E-01  0.10228825707E+00  0.89107487757E+00  0.88000000000E+00 0.  1.
        -11    1    4    4    0    0 -0.25572116373E-01 -0.43916188553E-01 -0.64987464276E-01  0.82499675071E-01  0.51100000000E-03 0.  1.
         11    1    4    4    0    0 -0.45349505371E-01 -0.71207273104E-02 -0.34577034575E-01  0.57472731237E-01  0.51100000000E-03 0. -1.
</event>
<event>
 8    1  0.2924722E+004  0.1043930E+01  0.7957747E-01            NaN
         13   -1    0    0    0    0  0.00000000000E+00  0.00000000000E+00  0.74505805969E-08  0.10566000000E+00  0.10566000000E+00 0. -1.
     999900   -1    0    0    0    0 -0.00000000000E+00 -0.00000000000E+00 -0.74505805969E-08  0.93827000000E+00  0.93827000000E+00 0. -1.
     999902    2    1    2    0    0  0.95591944663E-02 -0.42948589687E-02  0.88092673032E-02  0.10302395945E+01  0.10301486276E+01 0.  0.
     999903    2    3    3    0    0  0.96238807106E-01 -0.82337968842E-01  0.45065382975E-01  0.14180355956E+00  0.45121077733E-01 0.  0.
         14    1    1    2    0    0 -0.95591944663E-02  0.42948589687E-02 -0.88092673032E-02  0.13690405503E-01  0.00000000000E+00 0.  1.
     999901    1    3    3    0    0 -0.86679612640E-01  0.78043109873E-01 -0.36256115672E-01  0.88843603493E+00  0.88000000000E+00 0. -1.
        -11    1    4    4    0    0  0.33142307140E-01 -0.56846799834E-01  0.28816394893E-01  0.71837433901E-01  0.51100000000E-03 0. -1.
         11    1    4    4    0    0  0.63096499967E-01 -0.25491169008E-01  0.16248988082E-01  0.69966125662E-01  0.51100000000E-03 0.  1.
</event>
<event>
 8    1  0.2924722E+004  0.1043930E+01  0.7957747E-01            NaN
         13   -1    0    0    0    0  0.00000000000E+00  0.00000000000E+00  0.74505805969E-08  0.10566000000E+00  0.10566000000E+00 0.  1.
     999900   -1    0    0    0    0 -0.00000000000E+00 -0.00000000000E+00 -0.74505805969E-08  0.93827000000E+00  0.93827000000E+00 0. -1.
     999902    2    1    2    0    0  0.26294791493E-02 -0.13263613326E-01 -0.26818893809E-02  0.10301448584E+01  0.10300526196E+01 0.  0.
     999903    2    3    3    0    0  0.91162543468E-01 -0.31800611121E-01 -0.93897752159E-01  0.14081811449E+00  0.41122564466E-01 0.  0.
         14    1    1    2    0    0 -0.26294791493E-02  0.13263613326E-01  0.26818893809E-02  0.13785141628E-01  0.00000000000E+00 0. -1.
     999901    1    3    3    0    0 -0.88533064319E-01  0.18536997795E-01  0.91215862778E-01  0.88932674388E+00  0.88000000000E+00 0.  1.
        -11    1    4    4    0    0  0.30689536551E-01  0.89387902967E-02 -0.30763218813E-01  0.44366500633E-01  0.51100000000E-03 0.  1.
         11    1    4    4    0    0  0.60473006917E-01 -0.40739401417E-01 -0.63134533346E-01  0.96451613855E-01  0.51100000000E-03 0. -1.
</event>
<event>
 8    1  0.2924722E+004  0.1043930E+01  0.7957747E-01            NaN
         13   -1    0    0    0    0  0.00000000000E+00  0.00000000000E+00  0.74505805969E-08  0.10566000000E+00  0.10566000000E+00 0.  1.
     999900   -1    0    0    0    0 -0.00000000000E+00 -0.00000000000E+00 -0.74505805969E-08  0.93827000000E+00  0.93827000000E+00 0. -1.
     999902    2    1    2    0    0 -0.33286934251E-02  0.11213132993E-01  0.46509876127E-02  0.10313424571E+01  0.10312656387E+01 0.  0.
     999903    2    3    3    0    0 -0.45050741001E-01  0.10783169320E+00 -0.58005179169E-01  0.14285966563E+00  0.58198281168E-01 0.  0.
         14    1    1    2    0    0  0.33286934251E-02 -0.11213132993E-01 -0.46509876127E-02  0.12587542938E-01  0.00000000000E+00 0.  1.
     999901    1    3    3    0    0  0.41722047576E-01 -0.96618560208E-01  0.62656166781E-01  0.88848279143E+00  0.88000000000E+00 0.  1.
        -11    1    4    4    0    0 -0.21553231528E-01  0.95509225036E-02  0.45463196542E-02  0.24014413450E-01  0.51100000000E-03 0. -1.
         11    1    4    4    0    0 -0.23497509473E-01  0.98280770698E-01 -0.62551498823E-01  0.11884525218E+00  0.51100000000E-03 0.  1.
</event>
<event>
 8    1  0.2924722E+004  0.1043930E+01  0.7957747E-01            NaN
         13   -1    0    0    0    0  0.00000000000E+00  0.00000000000E+00  0.74505805969E-08  0.10566000000E+00  0.10566000000E+00 0. -1.
     999900   -1    0    0    0    0 -0.00000000000E+00 -0.00000000000E+00 -0.74505805969E-08  0.93827000000E+00  0.93827000000E+00 0.  1.
     999902    2    1    2    0    0  0.10342639607E-01  0.41106071740E-02  0.88111564817E-02  0.10297347979E+01  0.10296369507E+01 0.  0.
     999903    2    3    3    0    0 -0.52308056209E-01  0.55632982221E-01  0.10889541931E+00  0.14035494398E+00  0.44834545814E-01 0.  0.
         14    1    1    2    0    0 -0.10342639607E-01 -0.41106071740E-02 -0.88111564817E-02  0.14195202144E-01  0.00000000000E+00 0.  1.
     999901    1    3    3    0    0  0.62650695816E-01 -0.51522375047E-01 -0.10008426282E+00  0.88937985388E+00  0.88000000000E+00 0. -1.
        -11    1    4    4    0    0 -0.44331456675E-01  0.15021373766E-01  0.51541958445E-01  0.69625816492E-01  0.51100000000E-03 0.  1.
         11    1    4    4    0    0 -0.79765995341E-02  0.40611608455E-01  0.57353460861E-01  0.70729127487E-01  0.51100000000E-03 0. -1.
</event>
<event>
 8    1  0.2924722E+004  0.1043930E+01  0.7957747E-01            NaN
         13   -1    0    0    0    0  0.00000000000E+00  0.00000000000E+00  0.74505805969E-08  0.10566000000E+00  0.10566000000E+00 0.  1.
     999900   -1    0    0    0    0 -0.00000000000E+00 -0.00000000000E+00 -0.74505805969E-08  0.93827000000E+00  0.93827000000E+00 0.  1.
     999902    2    1    2    0    0 -0.85022505338E-02 -0.13458021200E-01 -0.38232545302E-02  0.10275585653E+01  0.10274281392E+01 0.  0.
     999903    2    3    3    0    0 -0.74090667571E-01  0.90454787036E-01  0.62051033625E-01  0.13658205944E+00  0.33657579652E-01 0.  0.
         14    1    1    2    0    0  0.85022505338E-02  0.13458021200E-01  0.38232545302E-02  0.16371434695E-01  0.00000000000E+00 0.  1.
     999901    1    3    3    0    0  0.65588417037E-01 -0.10391280824E+00 -0.65874288156E-01  0.89097650587E+00  0.88000000000E+00 0.  1.
        -11    1    4    4    0    0 -0.34880828792E-01  0.63256870334E-01  0.26005196991E-01  0.76776528009E-01  0.51100000000E-03 0. -1.
         11    1    4    4    0    0 -0.39209838779E-01  0.27197916702E-01  0.36045836634E-01  0.59805531430E-01  0.51100000000E-03 0.  1.
</event>
<event>
 7    1  0.2924722E+004  0.1043930E+01  0.7957747E-01            NaN
         13   -1    0    0    0    0  0.00000000000E+00  0.00000000000E+00  0.74505805969E-08  0.10566000000E+00  0.10566000000E+00 0.  1.
     999900   -1    0    0    0    0 -0.00000000000E+00 -0.00000000000E+00 -0.74505805969E-08  0.93827000000E+00  0.93827000000E+00 0.  1.
     999903    2    1    2    0    0  0.53109724351E-01 -0.67616402306E-01  0.42998568580E-01  0.10611578121E+00  0.44933967555E-01 0.  0.
         14    1    1    2    0    0 -0.28466019635E-01 -0.24536032512E-01  0.32174968115E-01  0.49472818178E-01  0.00000000000E+00 0.  1.
     999901    1    1    2    0    0 -0.24643704716E-01  0.92152434818E-01 -0.75173536695E-01  0.88834140061E+00  0.88000000000E+00 0.  1.
        -11    1    3    3    0    0  0.54592335927E-01 -0.54394007078E-01  0.49194508926E-01  0.91429710584E-01  0.51100000000E-03 0. -1.
         11    1    3    3    0    0 -0.14826115762E-02 -0.13222395227E-01 -0.61959403456E-02  0.14686070625E-01  0.51100000000E-03 0.  1.
</event>
<event>
 8    1  0.2924722E+004  0.1043930E+01  0.7957747E-01            NaN
         13   -1    0    0    0    0  0.00000000000E+00  0.00000000000E+00  0.74505805969E-08  0.10566000000E+00  0.10566000000E+00 0.  1.
     999900   -1    0    0    0    0 -0.00000000000E+00 -0.00000000000E+00 -0.74505805969E-08  0.93827000000E+00  0.93827000000E+00 0.  1.
     999902    2    1    2    0    0 -0.11291932011E-01  0.58922781202E-02 -0.60758186323E-02  0.10298182233E+01  0.10297215307E+01 0.  0.
     999903    2    3    3    0    0 -0.82664603654E-01 -0.10366644402E+00  0.16664157656E-01  0.13986638280E+00  0.41288528367E-01 0.  0.
         14    1    1    2    0    0  0.11291932011E-01 -0.58922781202E-02  0.60758186323E-02  0.14111776715E-01  0.00000000000E+00 0.  1.
     999901    1    3    3    0    0  0.71372671643E-01  0.10955872214E+00 -0.22739976288E-01  0.88995184048E+00  0.88000000000E+00 0.  1.
        -11    1    4    4    0    0 -0.40552423123E-01 -0.80046042123E-01  0.18175544473E-01  0.91555881398E-01  0.51100000000E-03 0. -1.
         11    1    4    4    0    0 -0.42112180531E-01 -0.23620401900E-01 -0.15113868166E-02  0.48310501406E-01  0.51100000000E-03 0.  1.
</event>
<event>
 8    1  0.2924722E+004  0.1043930E+01  0.7957747E-01            NaN
         13   -1    0    0    0    0  0.00000000000E+00  0.00000000000E+00  0.74505805969E-08  0.10566000000E+00  0.10566000000E+00 0. -1.
     999900   -1    0    0    0    0 -0.00000000000E+00 -0.00000000000E+00 -0.74505805969E-08  0.93827000000E+00  0.93827000000E+00 0. -1.
     999902    2    1    2    0    0  0.19738187912E-02  0.72966950703E-02 -0.10592978534E-01  0.10309165872E+01  0.10308344488E+01 0.  0.
     999903    2    3    3    0    0  0.65110169055E-01  0.11332594683E+00  0.17131401849E-01  0.14187381978E+00  0.52465145307E-01 0.  0.
         14    1    1    2    0    0 -0.19738187912E-02 -0.72966950703E-02  0.10592978534E-01  0.13013412842E-01  0.00000000000E+00 0. -1.
     999901    1    3    3    0    0 -0.63136350263E-01 -0.10602925176E+00 -0.27724380383E-01  0.88904276737E+00  0.88000000000E+00 0. -1.
        -11    1    4    4    0    0 -0.44579183705E-02 -0.28264418579E-02 -0.54687988085E-03  0.53312295372E-02  0.51100000000E-03 0. -1.
         11    1    4    4    0    0  0.69568087425E-01  0.11615238869E+00  0.17678281730E-01  0.13654259025E+00  0.51100000000E-03 0.  1.
</event>
<event>
 8    1  0.2924722E+004  0.1043930E+01  0.7957747E-01            NaN
         13   -1    0    0    0    0  0.00000000000E+00  0.00000000000E+00  0.74505805969E-08  0.10566000000E+00  0.10566000000E+00 0. -1.
     999900   -1    0    0    0    0 -0.00000000000E+00 -0.00000000000E+00 -0.74505805969E-08  0.93827000000E+00  0.93827000000E+00 0. -1.
     999902    2    1    2    0    0 -0.11604588775E-01 -0.15718793130E-02  0.91740365409E-02  0.10290538368E+01  0.10289463051E+01 0.  0.
     999903    2    3    3    0    0  0.80019715261E-01  0.54159745910E-01  0.89477321409E-01  0.13891359801E+00  0.44208186561E-01 0.  0.
         14    1    1    2    0    0  0.11604588775E-01  0.15718793130E-02 -0.91740365409E-02  0.14876163204E-01  0.00000000000E+00 0. -1.
     999901    1    3    3    0    0 -0.91624304036E-01 -0.55731625223E-01 -0.80303284868E-01  0.89014023878E+00  0.88000000000E+00 0. -1.
        -11    1    4    4    0    0  0.15707424476E-01  0.19178132248E-01  0.20487005877E-02  0.24879353595E-01  0.51100000000E-03 0.  1.
         11    1    4    4    0    0  0.64312290786E-01  0.34981613662E-01  0.87428620821E-01  0.11403424442E+00  0.51100000000E-03 0. -1.
</event>
<event>
 8    1  0.2924722E+004  0.1043930E+01  0.7957747E-01            NaN
         13   -1    0    0    0    0  0.00000000000E+00  0.00000000000E+00  0.74505805969E-08  0.10566000000E+00  0.10566000000E+00 0.  1.
     999900   -1    0    0    0    0 -0.00000000000E+00 -0.00000000000E+00 -0.74505805969E-08  0.93827000000E+00  0.93827000000E+00 0.  1.
     999902    2    1    2    0    0  0.36293271246E-03  0.12785149691E-01 -0.24056346162E-03  0.10311374380E+01  0.10310580810E+01 0.  0.
     999903    2    3    3    0    0 -0.28980328285E-01 -0.54802593731E-01 -0.11718141505E+00  0.14034885878E+00  0.46077482800E-01 0.  0.
         14    1    1    2    0    0 -0.36293271246E-03 -0.12785149691E-01  0.24056346162E-03  0.12792562041E-01  0.00000000000E+00 0. -1.
     999901    1    3    3    0    0  0.29343260997E-01  0.67587743423E-01  0.11694085159E+00  0.89078857918E+00  0.88000000000E+00 0. -1.
        -11    1    4    4    0    0 -0.16441639998E-01 -0.10464341495E-01 -0.76289304510E-01  0.78741025345E-01  0.51100000000E-03 0. -1.
         11    1    4    4    0    0 -0.12538688287E-01 -0.44338252237E-01 -0.40892110537E-01  0.61607833435E-01  0.51100000000E-03 0.  1.
</event>
<event>
 8    1  0.2924722E+004  0.1043930E+01  0.7957747E-01            NaN
         13   -1    0    0    0    0  0.00000000000E+00  0.00000000000E+00  0.74505805969E-08  0.10566000000E+00  0.10566000000E+00 0. -1.
     999900   -1    0    0    0    0 -0.00000000000E+00 -0.00000000000E+00 -0.74505805969E-08  0.93827000000E+00  0.93827000000E+00 0. -1.
     999902    2    1    2    0    0  0.11884992524E-01 -0.59965690453E-02 -0.40809541496E-02  0.10300064202E+01  0.10299123067E+01 0.  0.
     999903    2    3    3    0    0 -0.42167673611E-01 -0.35436484159E-01 -0.12104369860E+00  0.14013638311E+00  0.44190177573E-01 0.  0.
         14    1    1    2    0    0 -0.11884992524E-01  0.59965690453E-02  0.40809541496E-02  0.13923579797E-01  0.00000000000E+00 0. -1.
     999901    1    3    3    0    0  0.54052666135E-01  0.29439915114E-01  0.11696274445E+00  0.88987003709E+00  0.88000000000E+00 0.  1.
        -11    1    4    4    0    0 -0.17305107475E-01 -0.69645641283E-02 -0.87907800114E-01  0.89866647540E-01  0.51100000000E-03 0. -1.
         11    1    4    4    0    0 -0.24862566137E-01 -0.28471920031E-01 -0.33135898487E-01  0.50269735574E-01  0.51100000000E-03 0.  1.
</event>
<event>
 8    1  0.2924722E+004  0.1043930E+01  0.7957747E-01            NaN
         13   -1    0    0    0    0  0.00000000000E+00  0.00000000000E+00  0.74505805969E-08  0.10566000000E+00  0.10566000000E+00 0. -1.
     999900   -1    0    0    0    0 -0.00000000000E+00 -0.00000000000E+00 -0.74505805969E-08  0.93827000000E+00  0.93827000000E+00 0. -1.
     999902    2    1    2    0    0 -0.64382512955E-02  0.65187190229E-02  0.10281273298E-01  0.10301586762E+01  0.10300666235E+01 0.  0.
     999903    2    3    3    0    0  0.86094146160E-01  0.75984175205E-01 -0.64862001390E-01  0.13940943773E+00  0.45189768960E-01 0.  0.
         14    1    1    2    0    0  0.64382512955E-02 -0.65187190229E-02 -0.10281273298E-01  0.13771323759E-01  0.00000000000E+00 0.  1.
     999901    1    3    3    0    0 -0.92532397455E-01 -0.69465456182E-01  0.75143274688E-01  0.89074923851E+00  0.88000000000E+00 0. -1.
        -11    1    4    4    0    0  0.23726324888E-01  0.66023644946E-02 -0.32245519188E-01  0.40577879914E-01  0.51100000000E-03 0. -1.
         11    1    4    4    0    0  0.62367821272E-01  0.69381810710E-01 -0.32616482202E-01  0.98831557814E-01  0.51100000000E-03 0.  1.
</event>
<event>
 8    1  0.2924722E+004  0.1043930E+01  0.7957747E-01            NaN
         13   -1    0    0    0    0  0.00000000000E+00  0.00000000000E+00  0.74505805969E-08  0.10566000000E+00  0.10566000000E+00 0. -1.
     999900   -1    0    0    0    0 -0.00000000000E+00 -0.00000000000E+00 -0.74505805969E-08  0.93827000000E+00  0.93827000000E+00 0.  1.
     999902    2    1    2    0    0 -0.17750682129E-02 -0.12733462630E-01 -0.73326338686E-02  0.10291293427E+01  0.10290229077E+01 0.  0.
     999903    2    3    3    0    0 -0.36657210653E-01 -0.28736344565E-01  0.12282674407E+00  0.13872812988E+00  0.44604443358E-01 0.  0.
         14    1    1    2    0    0  0.17750682129E-02  0.12733462630E-01  0.73326338686E-02  0.14800657322E-01  0.00000000000E+00 0.  1.
     999901    1    3    3    0    0  0.34882142441E-01  0.16002881934E-01 -0.13015937794E+00  0.89040121280E+00  0.88000000000E+00 0.  1.
        -11    1    4    4    0    0  0.42285200358E-02  0.37842803714E-02  0.42668405627E-01  0.43047126726E-01  0.51100000000E-03 0. -1.
         11    1    4    4    0    0 -0.40885730689E-01 -0.32520624936E-01  0.80158338448E-01  0.95681003151E-01  0.51100000000E-03 0.  1.
</event>
<event>
 8    1  0.2924722E+004  0.1043930E+01  0.7957747E-01            NaN
         13   -1    0    0    0    0  0.00000000000E+00  0.00000000000E+00  0.74505805969E-08  0.10566000000E+00  0.10566000000E+00 0. -1.
     999900   -1    0    0    0    0 -0.00000000000E+00 -0.00000000000E+00 -0.74505805969E-08  0.93827000000E+00  0.93827000000E+00 0. -1.
     999902    2    1    2    0    0 -0.10197635071E-01  0.95117703382E-02 -0.39491963505E-02  0.10294364950E+01  0.10293344624E+01 0.  0.
     999903    2    3    3    0    0 -0.87213720461E-01  0.46292931046E-01 -0.90241478329E-01  0.14110621343E+00  0.44924053192E-01 0.  0.
         14    1    1    2    0    0  0.10197635071E-01 -0.95117703382E-02  0.39491963505E-02  0.14493505022E-01  0.00000000000E+00 0. -1.
     999901    1    3    3    0    0  0.77016085390E-01 -0.36781160708E-01  0.86292281979E-01  0.88833028155E+00  0.88000000000E+00 0.  1.
        -11    1    4    4    0    0 -0.53928233262E-01  0.51661412427E-01 -0.59698503001E-01  0.95610293684E-01  0.51100000000E-03 0.  1.
         11    1    4    4    0    0 -0.33285487199E-01 -0.53684813809E-02 -0.30542975328E-01  0.45495919743E-01  0.51100000000E-03 0. -1.
</event>
<event>
 8    1  0.2924722E+004  0.1043930E+01  0.7957747E-01            NaN
         13   -1    0    0    0    0  0.00000000000E+00  0.00000000000E+00  0.74505805969E-08  0.10566000000E+00  0.10566000000E+00 0.  1.
     999900   -1    0    0    0    0 -0.00000000000E+00 -0.00000000000E+00 -0.74505805969E-08  0.93827000000E+00  0.93827000000E+00 0.  1.
     999902    2    1    2    0    0  0.67872093328E-02  0.10678074880E-01  0.38542600079E-02  0.10307034051E+01  0.10306185358E+01 0.  0.
     999903    2    3    3    0    0 -0.52634731807E-01  0.36572822676E-01  0.11767632653E+00  0.14100853158E+00  0.43905601027E-01 0.  0.
         14    1    1    2    0    0 -0.67872093328E-02 -0.10678074880E-01 -0.38542600079E-02  0.13226594947E-01  0.00000000000E+00 0. -1.
     999901    1    3    3    0    0  0.59421941140E-01 -0.25894747796E-01 -0.11382206653E+00  0.88969487347E+00  0.88000000000E+00 0.  1.
        -11    1    4    4    0    0 -0.56336026324E-01  0.20617663865E-01  0.10197780056E+00  0.11831554781E+00  0.51100000000E-03 0. -1.
         11    1    4    4    0    0  0.37012945169E-02  0.15955158811E-01  0.15698525975E-01  0.22692983774E-01  0.51100000000E-03 0.  1.
</event>
<event>
 8    1  0.2924722E+004  0.1043930E+01  0.7957747E-01            NaN
         13   -1    0    0    0    0  0.00000000000E+00  0.00000000000E+00  0.74505805969E-08  0.10566000000E+00  0.10566000000E+00 0. -1.
     999900   -1    0    0    0    0 -0.00000000000E+00 -0.00000000000E+00 -0.74505805969E-08  0.93827000000E+00  0.93827000000E+00 0. -1.
     999902    2    1    2    0    0  0.10857087669E-01  0.81744565044E-02 -0.50169921844E-02  0.10294431680E+01  0.10293412300E+01 0.  0.
     999903    2    3    3    0    0  0.83846257878E-01  0.19998582582E-02  0.10255170376E+00  0.13987216519E+00  0.44868432755E-01 0.  0.
         14    1    1    2    0    0 -0.10857087669E-01 -0.81744565044E-02  0.50169921844E-02  0.14486832034E-01  0.00000000000E+00 0. -1.
     999901    1    3    3    0    0 -0.72989170209E-01  0.61745982462E-02 -0.10756869594E+00  0.88957100278E+00  0.88000000000E+00 0. -1.
        -11    1    4    4    0    0  0.52156931961E-01 -0.20413175163E-01  0.65867616647E-01  0.86462982343E-01  0.51100000000E-03 0. -1.
         11    1    4    4    0    0  0.31689325917E-01  0.22413033421E-01  0.36684087113E-01  0.53409182848E-01  0.51100000000E-03 0.  1.
</event>
<event>
 8    1  0.2924722E+004  0.1043930E+01  0.7957747E-01            NaN
         13   -1    0    0    0    0  0.00000000000E+00  0.00000000000E+00  0.74505805969E-08  0.10566000000E+00  0.10566000000E+00 0.  1.
     999900   -1    0    0    0    0 -0.00000000000E+00 -0.00000000000E+00 -0.74505805969E-08  0.93827000000E+00  0.93827000000E+00 0.  1.
     999902    2    1    2    0    0  0.21661121801E-02 -0.79206703629E-02  0.11875907344E-01  0.10294916401E+01  0.10293903880E+01 0.  0.
     999903    2    3    3    0    0 -0.70885691651E-01 -0.84705669961E-01 -0.70644544137E-01  0.13929945462E+00  0.47051616718E-01 0.  0.
         14    1    1    2    0    0 -0.21661121801E-02  0.79206703629E-02 -0.11875907344E-01  0.14438359887E-01  0.00000000000E+00 0. -1.
     999901    1    3    3    0    0  0.73051803831E-01  0.76784999598E-01  0.82520451481E-01  0.89019218550E+00  0.88000000000E+00 0.  1.
        -11    1    4    4    0    0 -0.24856565114E-01 -0.60766260712E-01 -0.25196365631E-01  0.70324286219E-01  0.51100000000E-03 0.  1.
         11    1    4    4    0    0 -0.46029126537E-01 -0.23939409249E-01 -0.45448178507E-01  0.68975168398E-01  0.51100000000E-03 0. -1.
</event>
<event>
 8    1  0.2924722E+004  0.1043930E+01  0.7957747E-01            NaN
         13   -1    0    0    0    0  0.00000000000E+00  0.00000000000E+00  0.74505805969E-08  0.10566000000E+00  0.10566000000E+00 0. -1.
     999900   -1    0    0    0    0 -0.00000000000E+00 -0.00000000000E+00 -0.74505805969E-08  0.93827000000E+00  0.93827000000E+00 0.  1.
     999902    2    1    2    0    0  0.11705618847E-01  0.55846491649E-02 -0.54324247163E-02  0.10298686680E+01  0.10297726702E+01 0.  0.
     999903    2    3    3    0    0  0.64724281926E-01  0.80884786320E-01 -0.85198726179E-01  0.14147475080E+00  0.44996675918E-01 0.  0.
         14    1    1    2    0    0 -0.11705618847E-01 -0.55846491649E-02  0.54324247163E-02  0.14061331984E-01  0.00000000000E+00 0. -1.
     999901    1    3    3    0    0 -0.53018663079E-01 -0.75300137155E-01  0.79766301462E-01  0.88839391721E+00  0.88000000000E+00 0. -1.
        -11    1    4    4    0    0  0.54225849045E-01  0.69916643291E-01 -0.46619059047E-01  0.10001188680E+00  0.51100000000E-03 0.  1.
         11    1    4    4    0    0  0.10498432881E-01  0.10968143029E-01 -0.38579667132E-01  0.41462864005E-01  0.51100000000E-03 0. -1.
</event>
<event>
 8    1  0.2924722E+004  0.1043930E+01  0.7957747E-01            NaN
         13   -1    0    0    0    0  0.00000000000E+00  0.00000000000E+00  0.74505805969E-08  0.10566000000E+00  0.10566000000E+00 0. -1.
     999900   -1    0    0    0    0 -0.00000000000E+00 -0.00000000000E+00 -0.74505805969E-08  0.93827000000E+00  0.93827000000E+00 0. -1.
     999902    2    1    2    0    0  0.66810060807E-02  0.11236271893E-01 -0.66177320149E-02  0.10292779003E+01  0.10291736064E+01 0.  0.
     999903    2    3    3    0    0 -0.81395917218E-01  0.98452219398E-01 -0.35766129405E-01  0.14011323896E+00  0.45103978494E-01 0.  0.
         14    1    1    2    0    0 -0.66810060807E-02 -0.11236271893E-01  0.66177320149E-02  0.14652099690E-01  0.00000000000E+00 0. -1.
     999901    1    3    3    0    0  0.88076923299E-01 -0.87215947505E-01  0.29148397390E-01  0.88916466135E+00  0.88000000000E+00 0.  1.
        -11    1    4    4    0    0 -0.48312206061E-01  0.68735674756E-01 -0.16023581252E-02  0.84032677639E-01  0.51100000000E-03 0.  1.
         11    1    4    4    0    0 -0.33083711157E-01  0.29716544643E-01 -0.34163771280E-01  0.56080561324E-01  0.51100000000E-03 0. -1.
</event>
<event>
 8    1  0.2924722E+004  0.1043930E+01  0.7957747E-01            NaN
         13   -1    0    0    0    0  0.00000000000E+00  0.00000000000E+00  0.74505805969E-08  0.10566000000E+00  0.10566000000E+00 0. -1.
     999900   -1    0    0    0    0 -0.00000000000E+00 -0.00000000000E+00 -0.74505805969E-08  0.93827000000E+00  0.93827000000E+00 0. -1.
     999902    2    1    2    0    0 -0.89933929293E-02  0.90738951055E-02  0.60589397069E-02  0.10297904300E+01  0.10296933535E+01 0.  0.
     999903    2    3    3    0    0 -0.74779315410E-01 -0.73389954277E-01 -0.78933957754E-01  0.13942428811E+00  0.47228498022E-01 0.  0.
         14    1    1    2    0    0  0.89933929293E-02 -0.90738951055E-02 -0.60589397069E-02  0.14139569977E-01  0.00000000000E+00 0.  1.
     999901    1    3    3    0    0  0.65785922481E-01  0.82463849382E-01  0.84992897461E-01  0.89036614192E+00  0.88000000000E+00 0.  1.
        -11    1    4    4    0    0 -0.12490024164E-01  0.60185607596E-02 -0.74486935426E-02  0.15746997610E-01  0.51100000000E-03 0.  1.
         11    1    4    4    0    0 -0.62289291246E-01 -0.79408515037E-01 -0.71485264211E-01  0.12367729050E+00  0.51100000000E-03 0. -1.
</event>
<event>
 8    1  0.2924722E+004  0.1043930E+01  0.7957747E-01            NaN
         13   -1    0    0    0    0  0.00000000000E+00  0.00000000000E+00  0.74505805969E-08  0.10566000000E+00  0.10566000000E+00 0. -1.
     999900   -1    0    0    0    0 -0.00000000000E+00 -0.00000000000E+00 -0.74505805969E-08  0.93827000000E+00  0.93827000000E+00 0.  1.
     999902    2    1    2    0    0  0.74865304334E-02 -0.62444581072E-02 -0.11418490483E-01  0.10289158960E+01  0.10288063460E+01 0.  0.
     999903    2    3    3    0    0  0.12200691138E+00 -0.43878534385E-01 -0.29543621164E-01  0.14051296840E+00  0.45387845665E-01 0.  0.
         14    1    1    2    0    0 -0.74865304334E-02  0.62444581072E-02  0.11418490483E-01  0.15014104032E-01  0.00000000000E+00 0. -1.
     999901    1    3    3    0    0 -0.11452038094E+00  0.37634076278E-01  0.18125130681E-01  0.88840292757E+00  0.88000000000E+00 0. -1.
        -11    1    4    4    0    0  0.88670129168E-01 -0.20457379308E-01 -0.38475623815E-01  0.98800460139E-01  0.51100000000E-03 0.  1.
         11    1    4    4    0    0  0.33336782207E-01 -0.23421155077E-01  0.89320026507E-02  0.41712508261E-01  0.51100000000E-03 0. -1.
</event>
<event>
 8    1  0.2924722E+004  0.1043930E+01  0.7957747E-01            NaN
         13   -1    0    0    0    0  0.00000000000E+00  0.00000000000E+00  0.74505805969E-08  0.10566000000E+00  0.10566000000E+00 0.  1.
     999900   -1    0    0    0    0 -0.00000000000E+00 -0.00000000000E+00 -0.74505805969E-08  0.93827000000E+00  0.93827000000E+00 0.  1.
     999902    2    1    2    0    0  0.57418742905E-02 -0.11635465255E-01  0.28541785608E-02  0.10306446883E+01  0.10305590590E+01 0.  0.
     999903    2    3    3    0    0  0.18800585114E-01 -0.49587040485E-01  0.12332986578E+00  0.14152982327E+00  0.44811812015E-01 0.  0.
         14    1    1    2    0    0 -0.57418742905E-02  0.11635465255E-01 -0.28541785608E-02  0.13285311713E-01  0.00000000000E+00 0.  1.
     999901    1    3    3    0    0 -0.13058710824E-01  0.37951575231E-01 -0.12047568722E+00  0.88911486502E+00  0.88000000000E+00 0.  1.
        -11    1    4    4    0    0  0.26490199887E-01 -0.10597159177E-01  0.39220177170E-01  0.48502720449E-01  0.51100000000E-03 0.  1.
         11    1    4    4    0    0 -0.76896147731E-02 -0.38989881308E-01  0.84109688608E-01  0.93027102817E-01  0.51100000000E-03 0. -1.
</event>
<event>
 8    1  0.2924722E+004  0.1043930E+01  0.7957747E-01            NaN
         13   -1    0    0    0    0  0.00000000000E+00  0.00000000000E+00  0.74505805969E-08  0.10566000000E+00  0.10566000000E+00 0.  1.
     999900   -1    0    0    0    0 -0.00000000000E+00 -0.00000000000E+00 -0.74505805969E-08  0.93827000000E+00  0.93827000000E+00 0.  1.
     999902    2    1    2    0    0  0.13435321230E-02  0.12649423133E-01  0.54590261462E-02  0.10300875309E+01  0.10299945181E+01 0.  0.
     999903    2    3    3    0    0 -0.12571365298E+00  0.36457513496E-01 -0.22544947539E-01  0.14020294513E+00  0.44894524497E-01 0.  0.
         14    1    1    2    0    0 -0.13435321230E-02 -0.12649423133E-01 -0.54590261462E-02  0.13842469094E-01  0.00000000000E+00 0. -1.
     999901    1    3    3    0    0  0.12705718510E+00 -0.23808090363E-01  0.28003973685E-01  0.88988458577E+00  0.88000000000E+00 0.  1.
        -11    1    4    4    0    0 -0.94187889480E-01  0.60264997148E-02 -0.18682531939E-01  0.96213176562E-01  0.51100000000E-03 0. -1.
         11    1    4    4    0    0 -0.31525763496E-01  0.30431013781E-01 -0.38624156005E-02  0.43989768572E-01  0.51100000000E-03 0.  1.
</event>
<event>
 8    1  0.2924722E+004  0.1043930E+01  0.7957747E-01            NaN
         13   -1    0    0    0    0  0.00000000000E+00  0.00000000000E+00  0.74505805969E-08  0.10566000000E+00  0.10566000000E+00 0.  1.
     999900   -1    0    0    0    0 -0.00000000000E+00 -0.00000000000E+00 -0.74505805969E-08  0.93827000000E+00  0.93827000000E+00 0.  1.
     999902    2    1    2    0    0 -0.29942746266E-03 -0.86896708512E-02 -0.10536803678E-01  0.10302689507E+01  0.10301783761E+01 0.  0.
     999903    2    3    3    0    0  0.31744579505E-01  0.12640654817E+00 -0.22504461284E-01  0.13930260363E+00  0.43731348628E-01 0.  0.
         14    1    1    2    0    0  0.29942746266E-03  0.86896708512E-02  0.10536803678E-01  0.13661049303E-01  0.00000000000E+00 0.  1.
     999901    1    3    3    0    0 -0.32044006967E-01 -0.13509621902E+00  0.11967657606E-01  0.89096634707E+00  0.88000000000E+00 0.  1.
        -11    1    4    4    0    0 -0.41854649641E-02  0.58964929339E-01  0.17112365895E-02  0.59140260911E-01  0.51100000000E-03 0.  1.
         11    1    4    4    0    0  0.35930044469E-01  0.67441618829E-01 -0.24215697874E-01  0.80162342720E-01  0.51100000000E-03 0. -1.
</event>
<event>
 8    1  0.2924722E+004  0.1043930E+01  0.7957747E-01            NaN
         13   -1    0    0    0    0  0.00000000000E+00  0.00000000000E+00  0.74505805969E-08  0.10566000000E+00  0.10566000000E+00 0. -1.
     999900   -1    0    0    0    0 -0.00000000000E+00 -0.00000000000E+00 -0.74505805969E-08  0.93827000000E+00  0.93827000000E+00 0. -1.
     999902    2    1    2    0    0  0.19338823292E-02  0.69896219401E-02  0.12303434151E-01  0.10296482211E+01  0.10295491684E+01 0.  0.
     999903    2    3    3    0    0  0.10801042979E+00 -0.45146835047E-01  0.62630130664E-01  0.14032082335E+00  0.45419274970E-01 0.  0.
         14    1    1    2    0    0 -0.19338823292E-02 -0.69896219401E-02 -0.12303434151E-01  0.14281778868E-01  0.00000000000E+00 0. -1.
     999901    1    3    3    0    0 -0.10607654746E+00  0.52136456987E-01 -0.50326696513E-01  0.88932739778E+00  0.88000000000E+00 0. -1.
        -11    1    4    4    0    0  0.63182033174E-01 -0.25883124509E-01  0.10787857416E-01  0.69127016708E-01  0.51100000000E-03 0.  1.
         11    1    4    4    0    0  0.44828396620E-01 -0.19263710538E-01  0.51842273249E-01  0.71193806639E-01  0.51100000000E-03 0. -1.
</event>
<event>
 8    1  0.2924722E+004  0.1043930E+01  0.7957747E-01            NaN
         13   -1    0    0    0    0  0.00000000000E+00  0.00000000000E+00  0.74505805969E-08  0.10566000000E+00  0.10566000000E+00 0.  1.
     999900   -1    0    0    0    0 -0.00000000000E+00 -0.00000000000E+00 -0.74505805969E-08  0.93827000000E+00  0.93827000000E+00 0.  1.
     999902    2    1    2    0    0  0.74112060359E-02  0.44846531426E-02  0.10461042995E-01  0.10303479711E+01  0.10302584482E+01 0.  0.
     999903    2    3    3    0    0  0.12553661807E+00 -0.21420825940E-02 -0.40184704874E-01  0.14098723530E+00  0.49985588095E-01 0.  0.
         14    1    1    2    0    0 -0.74112060359E-02 -0.44846531426E-02 -0.10461042995E-01  0.13582028908E-01  0.00000000000E+00 0. -1.
     999901    1    3    3    0    0 -0.11812541203E+00  0.66267357366E-02  0.50645747869E-01  0.88936073579E+00  0.88000000000E+00 0. -1.
        -11    1    4    4    0    0  0.53361490728E-01 -0.22850479746E-01 -0.56106309383E-02  0.58320951792E-01  0.51100000000E-03 0.  1.
         11    1    4    4    0    0  0.72175127340E-01  0.20708397152E-01 -0.34574073936E-01  0.82666283506E-01  0.51100000000E-03 0. -1.
</event>
<event>
 8    1  0.2924722E+004  0.1043930E+01  0.7957747E-01            NaN
         13   -1    0    0    0    0  0.00000000000E+00  0.00000000000E+00  0.74505805969E-08  0.10566000000E+00  0.10566000000E+00 0.  1.
     999900   -1    0    0    0    0 -0.00000000000E+00 -0.00000000000E+00 -0.74505805969E-08  0.93827000000E+00  0.93827000000E+00 0. -1.
     999902    2    1    2    0    0 -0.67728650994E-02  0.88185070558E-02 -0.86065164032E-02  0.10298690650E+01  0.10297730727E+01 0.  0.
     999903    2    3    3    0    0  0.12799393751E+00 -0.13942072010E-01 -0.27536075958E-01  0.13911743673E+00  0.44928791571E-01 0.  0.
         14    1    1    2    0    0  0.67728650994E-02 -0.88185070558E-02  0.86065164032E-02  0.14060934995E-01  0.00000000000E+00 0.  1.
     999901    1    3    3    0    0 -0.13476680261E+00  0.22760579066E-01  0.18929559555E-01  0.89075162827E+00  0.88000000000E+00 0.  1.
        -11    1    4    4    0    0  0.86526487298E-01 -0.26110172530E-01 -0.31508511966E-01  0.95716359945E-01  0.51100000000E-03 0.  1.
         11    1    4    4    0    0  0.41467450213E-01  0.12168100520E-01  0.39724360082E-02  0.43401076787E-01  0.51100000000E-03 0. -1.
</event>
<event>
 8    1  0.2924722E+004  0.1043930E+01  0.7957747E-01            NaN
         13   -1    0    0    0    0  0.00000000000E+00  0.00000000000E+00  0.74505805969E-08  0.10566000000E+00  0.10566000000E+00 0. -1.
     999900   -1    0    0    0    0 -0.00000000000E+00 -0.00000000000E+00 -0.74505805969E-08  0.93827000000E+00  0.93827000000E+00 0. -1.
     999902    2    1    2    0    0 -0.12396193685E-02 -0.71836581744E-02 -0.12053631922E-01  0.10298434233E+01  0.10297470781E+01 0.  0.
     999903    2    3    3    0    0  0.97035332386E-01  0.84900128245E-01 -0.27235793130E-01  0.13946828444E+00  0.45669753987E-01 0.  0.
         14    1    1    2    0    0  0.12396193685E-02  0.71836581744E-02  0.12053631922E-01  0.14086576712E-01  0.00000000000E+00 0. -1.
     999901    1    3    3    0    0 -0.98274951755E-01 -0.92083786419E-01  0.15182161208E-01  0.89037513885E+00  0.88000000000E+00 0.  1.
        -11    1    4    4    0    0  0.23032396275E-01  0.49613139332E-01 -0.83576699548E-02  0.55335943478E-01  0.51100000000E-03 0. -1.
         11    1    4    4    0    0  0.74002936112E-01  0.35286988913E-01 -0.18878123176E-01  0.84132340959E-01  0.51100000000E-03 0.  1.
</event>
<event>
 8    1  0.2924722E+004  0.1043930E+01  0.7957747E-01            NaN
         13   -1    0    0    0    0  0.00000000000E+00  0.00000000000E+00  0.74505805969E-08  0.10566000000E+00  0.10566000000E+00 0. -1.
     999900   -1    0    0    0    0 -0.00000000000E+00 -0.00000000000E+00 -0.74505805969E-08  0.93827000000E+00  0.93827000000E+00 0.  1.
     999902    2    1    2    0    0  0.95591823470E-02  0.93477940013E-02 -0.17704608118E-02  0.10304432008E+01  0.10303549371E+01 0.  0.
     999903    2    3    3    0    0  0.33364871665E-01 -0.58714231104E-01 -0.11447636699E+00  0.14032985335E+00  0.45022811397E-01 0.  0.
         14    1    1    2    0    0 -0.95591823470E-02 -0.93477940013E-02  0.17704608118E-02  0.13486799150E-01  0.00000000000E+00 0. -1.
     999901    1    3    3    0    0 -0.23805689318E-01  0.68062025105E-01  0.11270590618E+00  0.89011334750E+00  0.88000000000E+00 0. -1.
        -11    1    4    4    0    0  0.48058631557E-02  0.21544340580E-02  0.21485418008E-02  0.57109771188E-02  0.51100000000E-03 0.  1.
         11    1    4    4    0    0  0.28559008509E-01 -0.60868665162E-01 -0.11662490880E+00  0.13461887623E+00  0.51100000000E-03 0. -1.
</event>
<event>
 8    1  0.2924722E+004  0.1043930E+01  0.7957747E-01            NaN
         13   -1    0    0    0    0  0.00000000000E+00  0.00000000000E+00  0.74505805969E-08  0.10566000000E+00  0.10566000000E+00 0. -1.
     999900   -1    0    0    0    0 -0.00000000000E+00 -0.00000000000E+00 -0.74505805969E-08  0.93827000000E+00  0.93827000000E+00 0.  1.
     999902    2    1    2    0    0 -0.50900543408E-02  0.36135975470E-02 -0.93792507078E-02  0.10326633641E+01  0.10326019013E+01 0.  0.
     999903    2    3    3    0    0  0.14779987074E-01  0.54865012037E-01 -0.12402839090E+00  0.14352560685E+00  0.44586326484E-01 0.  0.
         14    1    1    2    0    0  0.50900543408E-02 -0.36135975470E-02  0.93792507078E-02  0.11266635889E-01  0.00000000000E+00 0. -1.
     999901    1    3    3    0    0 -0.19870041414E-01 -0.51251414490E-01  0.11464914019E+00  0.88913775726E+00  0.88000000000E+00 0. -1.
        -11    1    4    4    0    0  0.99462426370E-02  0.11783084304E-01 -0.80951288410E-01  0.82408379638E-01  0.51100000000E-03 0.  1.
         11    1    4    4    0    0  0.48337444366E-02  0.43081927733E-01 -0.43077102492E-01  0.61117227216E-01  0.51100000000E-03 0. -1.
</event>
<event>
 8    1  0.2924722E+004  0.1043930E+01  0.7957747E-01            NaN
         13   -1    0    0    0    0  0.00000000000E+00  0.00000000000E+00  0.74505805969E-08  0.10566000000E+00  0.10566000000E+00 0. -1.
     999900   -1    0    0    0    0 -0.00000000000E+00 -0.00000000000E+00 -0.74505805969E-08  0.93827000000E+00  0.93827000000E+00 0.  1.
     999902    2    1    2    0    0 -0.12784391762E-01 -0.60254949805E-02  0.17005999402E-02  0.10296948568E+01  0.10295964543E+01 0.  0.
     999903    2    3    3    0    0 -0.28454546375E-01 -0.11103409803E+00 -0.67767558165E-01  0.14059520800E+00  0.45125806786E-01 0.  0.
         14    1    1    2    0    0  0.12784391762E-01  0.60254949805E-02 -0.17005999402E-02  0.14235143225E-01  0.00000000000E+00 0. -1.
     999901    1    3    3    0    0  0.15670154612E-01  0.10500860305E+00  0.69468158105E-01  0.88909964877E+00  0.88000000000E+00 0.  1.
        -11    1    4    4    0    0 -0.28996024670E-01 -0.66887652865E-01 -0.62690804968E-01  0.96151576695E-01  0.51100000000E-03 0.  1.
         11    1    4    4    0    0  0.54147829556E-03 -0.44146445167E-01 -0.50767531970E-02  0.44443631305E-01  0.51100000000E-03 0. -1.
</event>
<event>
 8    1  0.2924722E+004  0.1043930E+01  0.7957747E-01            NaN
         13   -1    0    0    0    0  0.00000000000E+00  0.00000000000E+00  0.74505805969E-08  0.10566000000E+00  0.10566000000E+00 0.  1.
     999900   -1    0    0    0    0 -0.00000000000E+00 -0.00000000000E+00 -0.74505805969E-08  0.93827000000E+00  0.93827000000E+00 0.  1.
     999902    2    1    2    0    0 -0.97241972011E-02 -0.65246204425E-02 -0.64722519471E-02  0.10305501372E+01  0.10304632767E+01 0.  0.
     999903    2    3    3    0    0 -0.11285913485E+00  0.51519598710E-01  0.49291925922E-01  0.14087851786E+00  0.45006771301E-01 0.  0.
         14    1    1    2    0    0  0.97241972011E-02  0.65246204425E-02  0.64722519471E-02  0.13379862794E-01  0.00000000000E+00 0.  1.
     999901    1    3    3    0    0  0.10313493765E+00 -0.58044219152E-01 -0.55764177869E-01  0.88967161935E+00  0.88000000000E+00 0. -1.
        -11    1    4    4    0    0 -0.88553217315E-01  0.50827994898E-01  0.54886604809E-01  0.11592220612E+00  0.51100000000E-03 0. -1.
         11    1    4    4    0    0 -0.24305917533E-01  0.69160381138E-03 -0.55946788868E-02  0.24956311743E-01  0.51100000000E-03 0.  1.
</event>
<event>
 8    1  0.2924722E+004  0.1043930E+01  0.7957747E-01            NaN
         13   -1    0    0    0    0  0.00000000000E+00  0.00000000000E+00  0.74505805969E-08  0.10566000000E+00  0.10566000000E+00 0. -1.
     999900   -1    0    0    0    0 -0.00000000000E+00 -0.00000000000E+00 -0.74505805969E-08  0.93827000000E+00  0.93827000000E+00 0.  1.
     999902    2    1    2    0    0  0.11161328679E-01 -0.43081195799E-02 -0.29714125183E-02  0.10316026140E+01  0.10315289569E+01 0.  0.
     999903    2    3    3    0    0  0.17917827621E-01 -0.13358967024E+00 -0.31239861185E-02  0.14213120197E+00  0.44991896398E-01 0.  0.
         14    1    1    2    0    0 -0.11161328679E-01  0.43081195799E-02  0.29714125183E-02  0.12327385958E-01  0.00000000000E+00 0.  1.
     999901    1    3    3    0    0 -0.67564989421E-02  0.12928155066E+00  0.15257360024E-03  0.88947141207E+00  0.88000000000E+00 0. -1.
        -11    1    4    4    0    0  0.32097679127E-01 -0.80358605037E-01  0.37481184559E-02  0.86614524889E-01  0.51100000000E-03 0.  1.
         11    1    4    4    0    0 -0.14179851505E-01 -0.53231065204E-01 -0.68721045744E-02  0.55516677078E-01  0.51100000000E-03 0. -1.
</event>
<event>
 8    1  0.2924722E+004  0.1043930E+01  0.7957747E-01            NaN
         13   -1    0    0    0    0  0.00000000000E+00  0.00000000000E+00  0.74505805969E-08  0.10566000000E+00  0.10566000000E+00 0. -1.
     999900   -1    0    0    0    0 -0.00000000000E+00 -0.00000000000E+00 -0.74505805969E-08  0.93827000000E+00  0.93827000000E+00 0.  1.
     999902    2    1    2    0    0  0.16514894652E-01 -0.10715160526E-01  0.12495082942E-01  0.10206129781E+01  0.10203465919E+01 0.  0.
     999903    2    3    3    0    0 -0.46136871401E-01 -0.93310370767E-01 -0.65626746397E-01  0.13109050358E+00  0.45193075683E-01 0.  0.
         14    1    1    2    0    0 -0.16514894652E-01  0.10715160526E-01 -0.12495082942E-01  0.23317021855E-01  0.00000000000E+00 0.  1.
     999901    1    3    3    0    0  0.62651766054E-01  0.82595210241E-01  0.78121829339E-01  0.88952247457E+00  0.88000000000E+00 0. -1.
        -11    1    4    4    0    0 -0.19009929356E-01 -0.39711767285E-01 -0.27314842145E-02  0.44114895466E-01  0.51100000000E-03 0.  1.
         11    1    4    4    0    0 -0.27126942045E-01 -0.53598603482E-01 -0.62895262183E-01  0.86975608109E-01  0.51100000000E-03 0. -1.
</event>
<event>
 8    1  0.2924722E+004  0.1043930E+01  0.7957747E-01            NaN
         13   -1    0    0    0    0  0.00000000000E+00  0.00000000000E+00  0.74505805969E-08  0.10566000000E+00  0.10566000000E+00 0.  1.
     999900   -1    0    0    0    0 -0.00000000000E+00 -0.00000000000E+00 -0.74505805969E-08  0.93827000000E+00  0.93827000000E+00 0. -1.
     999902    2    1    2    0    0 -0.88447467992E-03 -0.45960366704E-02 -0.13508108225E-01  0.10296340273E+01  0.10295347761E+01 0.  0.
     999903    2    3    3    0    0 -0.47293840255E-01 -0.12057639904E+00  0.20858700458E-01  0.14014746120E+00  0.49303652649E-01 0.  0.
         14    1    1    2    0    0  0.88447467992E-03  0.45960366704E-02  0.13508108225E-01  0.14295972732E-01  0.00000000000E+00 0.  1.
     999901    1    3    3    0    0  0.46409365575E-01  0.11598036237E+00 -0.34366808683E-01  0.88948656606E+00  0.88000000000E+00 0. -1.
        -11    1    4    4    0    0 -0.13096606023E-01 -0.80429722480E-01  0.29576973444E-01  0.86692097832E-01  0.51100000000E-03 0. -1.
         11    1    4    4    0    0 -0.34197234232E-01 -0.40146676565E-01 -0.87182729859E-02  0.53455363372E-01  0.51100000000E-03 0.  1.
</event>
<event>
 8    1  0.2924722E+004  0.1043930E+01  0.7957747E-01            NaN
         13   -1    0    0    0    0  0.00000000000E+00  0.00000000000E+00  0.74505805969E-08  0.10566000000E+00  0.10566000000E+00 0. -1.
     999900   -1    0    0    0    0 -0.00000000000E+00 -0.00000000000E+00 -0.74505805969E-08  0.93827000000E+00  0.93827000000E+00 0. -1.
     999902    2    1    2    0    0 -0.85992165863E-02 -0.55653491648E-02  0.92552036277E-02  0.10301249853E+01  0.10300324785E+01 0.  0.
     999903    2    3    3    0    0 -0.16241062610E-01  0.95735754993E-01 -0.88434153113E-01  0.13891035236E+00  0.45236928019E-01 0.  0.
         14    1    1    2    0    0  0.85992165863E-02  0.55653491648E-02 -0.92552036277E-02  0.13805014720E-01  0.00000000000E+00 0.  1.
     999901    1    3    3    0    0  0.76418460239E-02 -0.10130110416E+00  0.97689356741E-01  0.89121463292E+00  0.88000000000E+00 0.  1.
        -11    1    4    4    0    0 -0.36182193034E-02  0.90438423497E-01 -0.63848801499E-01  0.11076610731E+00  0.51100000000E-03 0. -1.
         11    1    4    4    0    0 -0.12622843307E-01  0.52973314963E-02 -0.24585351614E-01  0.28144245045E-01  0.51100000000E-03 0.  1.
</event>
<event>
 8    1  0.2924722E+004  0.1043930E+01  0.7957747E-01            NaN
         13   -1    0    0    0    0  0.00000000000E+00  0.00000000000E+00  0.74505805969E-08  0.10566000000E+00  0.10566000000E+00 0.  1.
     999900   -1    0    0    0    0 -0.00000000000E+00 -0.00000000000E+00 -0.74505805969E-08  0.93827000000E+00  0.93827000000E+00 0.  1.
     999902    2    1    2    0    0  0.11563577381E-01  0.20735547378E-02 -0.57487970757E-02  0.10308508326E+01  0.10307678568E+01 0.  0.
     999903    2    3    3    0    0  0.98317952969E-01  0.89405686061E-01 -0.21857261668E-01  0.14213675855E+00  0.45445810236E-01 0.  0.
         14    1    1    2    0    0 -0.11563577381E-01 -0.20735547378E-02  0.57487970757E-02  0.13079167363E-01  0.00000000000E+00 0.  1.
     999901    1    3    3    0    0 -0.86754375588E-01 -0.87332131323E-01  0.16108464592E-01  0.88871407408E+00  0.88000000000E+00 0.  1.
        -11    1    4    4    0    0  0.90069725431E-01  0.63299277586E-01 -0.28985464129E-01  0.11384099540E+00  0.51100000000E-03 0.  1.
         11    1    4    4    0    0  0.82482275386E-02  0.26106408475E-01  0.71282024618E-02  0.28295763151E-01  0.51100000000E-03 0. -1.
</event>
<event>
 7    1  0.2924722E+004  0.1043930E+01  0.7957747E-01            NaN
         13   -1    0    0    0    0  0.00000000000E+00  0.00000000000E+00  0.74505805969E-08  0.10566000000E+00  0.10566000000E+00 0. -1.
     999900   -1    0    0    0    0 -0.00000000000E+00 -0.00000000000E+00 -0.74505805969E-08  0.93827000000E+00  0.93827000000E+00 0.  1.
     999903    2    1    2    0    0  0.59317789475E-01 -0.55245142954E-01 -0.78241463355E-01  0.11909159771E+00  0.38606425487E-01 0.  0.
         14    1    1    2    0    0 -0.39948026061E-02  0.16952378767E-01 -0.30977224982E-01  0.35537727295E-01  0.00000000000E+00 0. -1.
     999901    1    1    2    0    0 -0.55322986868E-01  0.38292764188E-01  0.10921868834E+00  0.88930067500E+00  0.88000000000E+00 0. -1.
        -11    1    3    3    0    0  0.30119384141E-01 -0.41721922220E-02 -0.20626814003E-01  0.36746578968E-01  0.51100000000E-03 0. -1.
         11    1    3    3    0    0  0.29198405334E-01 -0.51072950732E-01 -0.57614649353E-01  0.82345018742E-01  0.51100000000E-03 0.  1.
</event>
<event>
 7    1  0.2924722E+004  0.1043930E+01  0.7957747E-01            NaN
         13   -1    0    0    0    0  0.00000000000E+00  0.00000000000E+00  0.74505805969E-08  0.10566000000E+00  0.10566000000E+00 0. -1.
     999900   -1    0    0    0    0 -0.00000000000E+00 -0.00000000000E+00 -0.74505805969E-08  0.93827000000E+00  0.93827000000E+00 0.  1.
     999902    2    1    2    0    0 -0.12876729409E-01 -0.82047107167E-02 -0.87882355415E-03  0.10286362180E+01  0.10285225176E+01 0.  0.
         14    1    1    2    0    0  0.12876729409E-01  0.82047107167E-02  0.87882355415E-03  0.15293782039E-01  0.00000000000E+00 0.  1.
     999901    1    3    3    0    0 -0.11419873546E+00 -0.46975056212E-02 -0.69013064297E-01  0.89007090773E+00  0.88000000000E+00 0.  1.
        -11    1    3    3    0    0  0.24168136525E-01 -0.32720405409E-02 -0.12119146745E-01  0.27238573957E-01  0.51100000000E-03 0.  1.
         11    1    3    3    0    0  0.77153869528E-01 -0.23516455455E-03  0.80253387488E-01  0.11132673628E+00  0.51100000000E-03 0. -1.
</event>
<event>
 8    1  0.2924722E+004  0.1043930E+01  0.7957747E-01            NaN
         13   -1    0    0    0    0  0.00000000000E+00  0.00000000000E+00  0.74505805969E-08  0.10566000000E+00  0.10566000000E+00 0.  1.
     999900   -1    0    0    0    0 -0.00000000000E+00 -0.00000000000E+00 -0.74505805969E-08  0.93827000000E+00  0.93827000000E+00 0. -1.
     999902    2    1    2    0    0  0.60942838024E-02 -0.88203852391E-02  0.30177699513E-02  0.10327923869E+01  0.10327323312E+01 0.  0.
     999903    2    3    3    0    0  0.38643155223E-01 -0.12645647399E+00  0.33789990086E-01  0.14383535307E+00  0.45412686592E-01 0.  0.
         14    1    1    2    0    0 -0.60942838024E-02  0.88203852391E-02 -0.30177699513E-02  0.11137613133E-01  0.00000000000E+00 0.  1.
     999901    1    3    3    0    0 -0.32548871421E-01  0.11763608875E+00 -0.30772220135E-01  0.88895703380E+00  0.88000000000E+00 0.  1.
        -11    1    4    4    0    0  0.31386546726E-01 -0.11207662901E+00  0.12391526401E-01  0.11704741404E+00  0.51100000000E-03 0. -1.
         11    1    4    4    0    0  0.72566084968E-02 -0.14379844980E-01  0.21398463685E-01  0.26787939033E-01  0.51100000000E-03 0.  1.
</event>
<event>
 8    1  0.2924722E+004  0.1043930E+01  0.7957747E-01            NaN
         13   -1    0    0    0    0  0.00000000000E+00  0.00000000000E+00  0.74505805969E-08  0.10566000000E+00  0.10566000000E+00 0. -1.
     999900   -1    0    0    0    0 -0.00000000000E+00 -0.00000000000E+00 -0.74505805969E-08  0.93827000000E+00  0.93827000000E+00 0. -1.
     999902    2    1    2    0    0 -0.28182694514E-02 -0.62735017781E-02  0.12061734124E-01  0.10300452999E+01  0.10299517148E+01 0.  0.
     999903    2    3    3    0    0  0.22821074071E-01 -0.28387352610E-01  0.12930533783E+00  0.14162396913E+00  0.44842335249E-01 0.  0.
         14    1    1    2    0    0  0.28182694514E-02  0.62735017781E-02 -0.12061734124E-01  0.13884700117E-01  0.00000000000E+00 0.  1.
     999901    1    3    3    0    0 -0.25639343523E-01  0.22113850832E-01 -0.11724360370E+00  0.88842133076E+00  0.88000000000E+00 0.  1.
        -11    1    4    4    0    0  0.50013037786E-02  0.37121492663E-02  0.79509314927E-01  0.79754531989E-01  0.51100000000E-03 0.  1.
         11    1    4    4    0    0  0.17819770293E-01 -0.32099501876E-01  0.49796022900E-01  0.61869437137E-01  0.51100000000E-03 0. -1.
</event>
<event>
 8    1  0.2924722E+004  0.1043930E+01  0.7957747E-01            NaN
         13   -1    0    0    0    0  0.00000000000E+00  0.00000000000E+00  0.74505805969E-08  0.10566000000E+00  0.10566000000E+00 0. -1.
     999900   -1    0    0    0    0 -0.00000000000E+00 -0.00000000000E+00 -0.74505805969E-08  0.93827000000E+00  0.93827000000E+00 0. -1.
     999902    2    1    2    0    0  0.79143797522E-03 -0.50529102847E-02  0.12387255701E-01  0.10305284187E+01  0.10304412741E+01 0.  0.
     999903    2    3    3    0    0  0.83561830448E-01 -0.29287792698E-01 -0.97688388129E-01  0.13948694117E+00  0.45532749441E-01 0.  0.
         14    1    1    2    0    0 -0.79143797522E-03  0.50529102847E-02 -0.12387255701E-01  0.13401581258E-01  0.00000000000E+00 0.  1.
     999901    1    3    3    0    0 -0.82770392473E-01  0.24234882413E-01  0.11007564383E+00  0.89104147758E+00  0.88000000000E+00 0.  1.
        -11    1    4    4    0    0  0.51603928920E-01 -0.22174082025E-01 -0.28597543142E-01  0.63029643727E-01  0.51100000000E-03 0. -1.
         11    1    4    4    0    0  0.31957901528E-01 -0.71137106733E-02 -0.69090844987E-01  0.76457297439E-01  0.51100000000E-03 0.  1.
</event>
<event>
 8    1  0.2924722E+004  0.1043930E+01  0.7957747E-01            NaN
         13   -1    0    0    0    0  0.00000000000E+00  0.00000000000E+00  0.74505805969E-08  0.10566000000E+00  0.10566000000E+00 0.  1.
     999900   -1    0    0    0    0 -0.00000000000E+00 -0.00000000000E+00 -0.74505805969E-08  0.93827000000E+00  0.93827000000E+00 0. -1.
     999902    2    1    2    0    0 -0.64412561973E-03  0.13070693880E-01  0.41157896478E-02  0.10302114847E+01  0.10301201414E+01 0.  0.
     999903    2    3    3    0    0  0.21571610387E-01 -0.12816616519E+00 -0.26433688518E-02  0.13864708690E+00  0.48209200716E-01 0.  0.
         14    1    1    2    0    0  0.64412561973E-03 -0.13070693880E-01 -0.41157896478E-02  0.13718515253E-01  0.00000000000E+00 0. -1.
     999901    1    3    3    0    0 -0.22215736007E-01  0.14123685907E+00  0.67591584996E-02  0.89156439785E+00  0.88000000000E+00 0. -1.
        -11    1    4    4    0    0  0.26639338604E-01 -0.33468773622E-01  0.69061140513E-02  0.43333228604E-01  0.51100000000E-03 0.  1.
         11    1    4    4    0    0 -0.50677282166E-02 -0.94697391564E-01 -0.95494829031E-02  0.95313858295E-01  0.51100000000E-03 0. -1.
</event>
<event>
 8    1  0.2924722E+004  0.1043930E+01  0.7957747E-01            NaN
         13   -1    0    0    0    0  0.00000000000E+00  0.00000000000E+00  0.74505805969E-08  0.10566000000E+00  0.10566000000E+00 0.  1.
     999900   -1    0    0    0    0 -0.00000000000E+00 -0.00000000000E+00 -0.74505805969E-08  0.93827000000E+00  0.93827000000E+00 0.  1.
     999902    2    1    2    0    0 -0.11300299561E-01 -0.41441645793E-02 -0.12498370969E-01  0.10265783388E+01  0.10264316857E+01 0.  0.
     999903    2    3    3    0    0  0.90353893752E-01  0.90715071235E-01 -0.26851799514E-02  0.13560799788E+00  0.44601217847E-01 0.  0.
         14    1    1    2    0    0  0.11300299561E-01  0.41441645793E-02  0.12498370969E-01  0.17351661221E-01  0.00000000000E+00 0.  1.
     999901    1    3    3    0    0 -0.10165419331E+00 -0.94859235814E-01 -0.98131910175E-02  0.89097034090E+00  0.88000000000E+00 0.  1.
        -11    1    4    4    0    0  0.50575107306E-01  0.33942233895E-01  0.17554175616E-01  0.63390274675E-01  0.51100000000E-03 0. -1.
         11    1    4    4    0    0  0.39778786446E-01  0.56772837339E-01 -0.20239355568E-01  0.72217723209E-01  0.51100000000E-03 0.  1.
</event>
<event>
 8    1  0.2924722E+004  0.1043930E+01  0.7957747E-01            NaN
         13   -1    0    0    0    0  0.00000000000E+00  0.00000000000E+00  0.74505805969E-08  0.10566000000E+00  0.10566000000E+00 0. -1.
     999900   -1    0    0    0    0 -0.00000000000E+00 -0.00000000000E+00 -0.74505805969E-08  0.93827000000E+00  0.93827000000E+00 0.  1.
     999902    2    1    2    0    0 -0.11228856875E-01 -0.70884927650E-02  0.10923622243E-02  0.10306060662E+01  0.10305199350E+01 0.  0.
     999903    2    3    3    0    0 -0.10655939492E+00 -0.81718331267E-01 -0.11435338559E-01  0.14222863090E+00  0.45446959948E-01 0.  0.
         14    1    1    2    0    0  0.11228856875E-01  0.70884927650E-02 -0.10923622243E-02  0.13323933790E-01  0.00000000000E+00 0.  1.
     999901    1    3    3    0    0  0.95330538049E-01  0.74629838502E-01  0.12527700784E-01  0.88837743531E+00  0.88000000000E+00 0. -1.
        -11    1    4    4    0    0 -0.44578536754E-01 -0.53913795573E-01 -0.22310567931E-01  0.73430006500E-01  0.51100000000E-03 0.  1.
         11    1    4    4    0    0 -0.61980858170E-01 -0.27804535694E-01  0.10875229371E-01  0.68798624402E-01  0.51100000000E-03 0. -1.
</event>
<event>
 8    1  0.2924722E+004  0.1043930E+01  0.7957747E-01            NaN
         13   -1    0    0    0    0  0.00000000000E+00  0.00000000000E+00  0.74505805969E-08  0.10566000000E+00  0.10566000000E+00 0. -1.
     999900   -1    0    0    0    0 -0.00000000000E+00 -0.00000000000E+00 -0.74505805969E-08  0.93827000000E+00  0.93827000000E+00 0.  1.
     999902    2    1    2    0    0  0.27760726979E-02  0.10529014219E-01 -0.90983398048E-02  0.10297403380E+01  0.10296425677E+01 0.  0.
     999903    2    3    3    0    0 -0.95050866301E-01 -0.21189766710E-01 -0.90085726010E-01  0.14005772731E+00  0.44911641609E-01 0.  0.
         14    1    1    2    0    0 -0.27760726979E-02 -0.10529014219E-01  0.90983398048E-02  0.14189661985E-01  0.00000000000E+00 0.  1.
     999901    1    3    3    0    0  0.97826938999E-01  0.31718780929E-01  0.80987386205E-01  0.88968261070E+00  0.88000000000E+00 0. -1.
        -11    1    4    4    0    0 -0.63874662494E-01 -0.29778085515E-01 -0.79003092343E-01  0.10586999861E+00  0.51100000000E-03 0.  1.
         11    1    4    4    0    0 -0.31176203807E-01  0.85883188056E-02 -0.11082633667E-01  0.34187728701E-01  0.51100000000E-03 0. -1.
</event>
<event>
 8    1  0.2924722E+004  0.1043930E+01  0.7957747E-01            NaN
         13   -1    0    0    0    0  0.00000000000E+00  0.00000000000E+00  0.74505805969E-08  0.10566000000E+00  0.10566000000E+00 0.  1.
     999900   -1    0    0    0    0 -0.00000000000E+00 -0.00000000000E+00 -0.74505805969E-08  0.93827000000E+00  0.93827000000E+00 0.  1.
     999902    2    1    2    0    0  0.13061106801E-02  0.10386544312E-01 -0.56129981924E-02  0.10320517856E+01  0.10319834283E+01 0.  0.
     999903    2    3    3    0    0  0.77212532221E-01 -0.93238769618E-01  0.55514018055E-01  0.14062792313E+00  0.45157095481E-01 0.  0.
         14    1    1    2    0    0 -0.13061106801E-02 -0.10386544312E-01  0.56129981924E-02  0.11878214367E-01  0.00000000000E+00 0.  1.
     999901    1    3    3    0    0 -0.75906421541E-01  0.10362531393E+00 -0.61127016248E-01  0.89142386250E+00  0.88000000000E+00 0. -1.
        -11    1    4    4    0    0  0.47317493438E-01 -0.64849916256E-01  0.12856418206E-01  0.81301939914E-01  0.51100000000E-03 0. -1.
         11    1    4    4    0    0  0.29895038784E-01 -0.28388853362E-01  0.42657599849E-01  0.59325983220E-01  0.51100000000E-03 0.  1.
</event>
<event>
 8    1  0.2924722E+004  0.1043930E+01  0.7957747E-01            NaN
         13   -1    0    0    0    0  0.00000000000E+00  0.00000000000E+00  0.74505805969E-08  0.10566000000E+00  0.10566000000E+00 0. -1.
     999900   -1    0    0    0    0 -0.00000000000E+00 -0.00000000000E+00 -0.74505805969E-08  0.93827000000E+00  0.93827000000E+00 0. -1.
     999902    2    1    2    0    0 -0.20839418035E-02 -0.95811494835E-02  0.85526102551E-02  0.10309189131E+01  0.10308368043E+01 0.  0.
     999903    2    3    3    0    0  0.80521659427E-02 -0.63268409451E-01  0.11937887777E+00  0.14228652339E+00  0.43890879103E-01 0.  0.
         14    1    1    2    0    0  0.20839418035E-02  0.95811494835E-02 -0.85526102551E-02  0.13011086851E-01  0.00000000000E+00 0.  1.
     999901    1    3    3    0    0 -0.10136107746E-01  0.53687259968E-01 -0.11082626752E+00  0.88863238976E+00  0.88000000000E+00 0. -1.
        -11    1    4    4    0    0  0.70940964946E-02 -0.50438662407E-02  0.54138065718E-01  0.54835737183E-01  0.51100000000E-03 0.  1.
         11    1    4    4    0    0  0.95806944808E-03 -0.58224543210E-01  0.65240812054E-01  0.87450786204E-01  0.51100000000E-03 0. -1.
</event>
<event>
 8    1  0.2924722E+004  0.1043930E+01  0.7957747E-01            NaN
         13   -1    0    0    0    0  0.00000000000E+00  0.00000000000E+00  0.74505805969E-08  0.10566000000E+00  0.10566000000E+00 0. -1.
     999900   -1    0    0    0    0 -0.00000000000E+00 -0.00000000000E+00 -0.74505805969E-08  0.93827000000E+00  0.93827000000E+00 0. -1.
     999902    2    1    2    0    0  0.89865037819E-02  0.95458187504E-02  0.44225785951E-02  0.10300938478E+01  0.10300009205E+01 0.  0.
     999903    2    3    3    0    0  0.12098896804E+00  0.37998191516E-01  0.46084915394E-01  0.14156143995E+00  0.42820893378E-01 0.  0.
         14    1    1    2    0    0 -0.89865037819E-02 -0.95458187504E-02 -0.44225785951E-02  0.13836152184E-01  0.00000000000E+00 0.  1.
     999901    1    3    3    0    0 -0.11200246425E+00 -0.28452372766E-01 -0.41662336799E-01  0.88853240786E+00  0.88000000000E+00 0.  1.
        -11    1    4    4    0    0  0.10108612163E+00  0.13631863268E-01  0.39690434903E-01  0.10945237972E+00  0.51100000000E-03 0.  1.
         11    1    4    4    0    0  0.19902846407E-01  0.24366328248E-01  0.63944804914E-02  0.32109060235E-01  0.51100000000E-03 0. -1.
</event>
<event>
 8    1  0.2924722E+004  0.1043930E+01  0.7957747E-01            NaN
         13   -1    0    0    0    0  0.00000000000E+00  0.00000000000E+00  0.74505805969E-08  0.10566000000E+00  0.10566000000E+00 0.  1.
     999900   -1    0    0    0    0 -0.00000000000E+00 -0.00000000000E+00 -0.74505805969E-08  0.93827000000E+00  0.93827000000E+00 0. -1.
     999902    2    1    2    0    0 -0.12341245557E-01 -0.54913470563E-02  0.26399752539E-02  0.10301666173E+01  0.10300746714E+01 0.  0.
     999903    2    3    3    0    0 -0.10579990041E+00  0.78364359105E-01 -0.23811793422E-01  0.14086014835E+00  0.44045296956E-01 0.  0.
         14    1    1    2    0    0  0.12341245557E-01  0.54913470563E-02 -0.26399752539E-02  0.13763382714E-01  0.00000000000E+00 0.  1.
     999901    1    3    3    0    0  0.93458654849E-01 -0.83855706161E-01  0.26451768675E-01  0.88930646893E+00  0.88000000000E+00 0.  1.
        -11    1    4    4    0    0 -0.24670259573E-02 -0.41109403117E-02 -0.56155491975E-02  0.74014566884E-02  0.51100000000E-03 0. -1.
         11    1    4    4    0    0 -0.10333287445E+00  0.82475299416E-01 -0.18196244224E-01  0.13345869166E+00  0.51100000000E-03 0.  1.
</event>
<event>
 8    1  0.2924722E+004  0.1043930E+01  0.7957747E-01            NaN
         13   -1    0    0    0    0  0.00000000000E+00  0.00000000000E+00  0.74505805969E-08  0.10566000000E+00  0.10566000000E+00 0. -1.
     999900   -1    0    0    0    0 -0.00000000000E+00 -0.00000000000E+00 -0.74505805969E-08  0.93827000000E+00  0.93827000000E+00 0. -1.
     999902    2    1    2    0    0  0.57169302132E-02  0.60580993939E-02  0.10643116873E-01  0.10304148309E+01  0.10303261930E+01 0.  0.
     999903    2    3    3    0    0  0.13987378892E-01  0.12857108418E+00 -0.32778779600E-01  0.14082880759E+00  0.45079199189E-01 0.  0.
         14    1    1    2    0    0 -0.57169302132E-02 -0.60580993939E-02 -0.10643116873E-01  0.13515169111E-01  0.00000000000E+00 0.  1.
     999901    1    3    3    0    0 -0.82704486783E-02 -0.12251298478E+00  0.43421896472E-01  0.88958602330E+00  0.88000000000E+00 0. -1.
        -11    1    4    4    0    0  0.44856837835E-02  0.11478199071E+00 -0.14092745878E-01  0.11573198935E+00  0.51100000000E-03 0.  1.
         11    1    4    4    0    0  0.95016951080E-02  0.13789093465E-01 -0.18686033722E-01  0.25096818240E-01  0.51100000000E-03 0. -1.
</event>
<event>
 8    1  0.2924722E+004  0.1043930E+01  0.7957747E-01            NaN
         13   -1    0    0    0    0  0.00000000000E+00  0.00000000000E+00  0.74505805969E-08  0.10566000000E+00  0.10566000000E+00 0. -1.
     999900   -1    0    0    0    0 -0.00000000000E+00 -0.00000000000E+00 -0.74505805969E-08  0.93827000000E+00  0.93827000000E+00 0. -1.
     999902    2    1    2    0    0  0.58929676574E-02 -0.14053300450E-01  0.31307178601E-02  0.10283728886E+01  0.10282552087E+01 0.  0.
     999903    2    3    3    0    0 -0.45052315068E-01  0.67330898676E-02 -0.12220786206E+00  0.13779035144E+00  0.44456425946E-01 0.  0.
         14    1    1    2    0    0 -0.58929676574E-02  0.14053300450E-01 -0.31307178601E-02  0.15557111418E-01  0.00000000000E+00 0.  1.
     999901    1    3    3    0    0  0.50945282725E-01 -0.20786390318E-01  0.12533857992E+00  0.89058253715E+00  0.88000000000E+00 0.  1.
        -11    1    4    4    0    0 -0.35357774754E-01  0.18434532480E-01 -0.49777464879E-01  0.63781355851E-01  0.51100000000E-03 0.  1.
         11    1    4    4    0    0 -0.96945403138E-02 -0.11701442612E-01 -0.72430397178E-01  0.74008995585E-01  0.51100000000E-03 0. -1.
</event>
<event>
 8    1  0.2924722E+004  0.1043930E+01  0.7957747E-01            NaN
         13   -1    0    0    0    0  0.00000000000E+00  0.00000000000E+00  0.74505805969E-08  0.10566000000E+00  0.10566000000E+00 0.  1.
     999900   -1    0    0    0    0 -0.00000000000E+00 -0.00000000000E+00 -0.74505805969E-08  0.93827000000E+00  0.93827000000E+00 0. -1.
     999902    2    1    2    0    0  0.46964407740E-02  0.12336190095E-01 -0.35988253321E-02  0.10302482718E+01  0.10301574209E+01 0.  0.
     999903    2    3    3    0    0  0.24373483253E-01 -0.68653293870E-01  0.10964984155E+00  0.13908513128E+00  0.44880335870E-01 0.  0.
         14    1    1    2    0    0 -0.46964407740E-02 -0.12336190095E-01  0.35988253321E-02  0.13681728172E-01  0.00000000000E+00 0.  1.
     999901    1    3    3    0    0 -0.19677042479E-01  0.80989483965E-01 -0.11324866688E+00  0.89116314054E+00  0.88000000000E+00 0. -1.
        -11    1    4    4    0    0 -0.83709503525E-02 -0.41572536050E-01  0.46142087482E-01  0.62671380403E-01  0.51100000000E-03 0.  1.
         11    1    4    4    0    0  0.32744433606E-01 -0.27080757821E-01  0.63507754066E-01  0.76413750881E-01  0.51100000000E-03 0. -1.
</event>
<event>
 8    1  0.2924722E+004  0.1043930E+01  0.7957747E-01            NaN
         13   -1    0    0    0    0  0.00000000000E+00  0.00000000000E+00  0.74505805969E-08  0.10566000000E+00  0.10566000000E+00 0.  1.
     999900   -1    0    0    0    0 -0.00000000000E+00 -0.00000000000E+00 -0.74505805969E-08  0.93827000000E+00  0.93827000000E+00 0.  1.
     999902    2    1    2    0    0 -0.84714907835E-02  0.12177848452E-01 -0.31254476380E-02  0.10287697041E+01  0.10286579944E+01 0.  0.
     999903    2    3    3    0    0  0.22447537981E-01 -0.10089955674E+00 -0.79025828817E-01  0.13775715998E+00  0.45247552358E-01 0.  0.
         14    1    1    2    0    0  0.84714907835E-02 -0.12177848452E-01  0.31254476380E-02  0.15160295906E-01  0.00000000000E+00 0.  1.
     999901    1    3    3    0    0 -0.30919028764E-01  0.11307740519E+00  0.75900381179E-01  0.89101254411E+00  0.88000000000E+00 0.  1.
        -11    1    4    4    0    0 -0.63744323358E-02 -0.49954560186E-01 -0.18758703502E-01  0.53742362705E-01  0.51100000000E-03 0.  1.
         11    1    4    4    0    0  0.28821970317E-01 -0.50944996552E-01 -0.60267125315E-01  0.84014797276E-01  0.51100000000E-03 0. -1.
</event>
<event>
 8    1  0.2924722E+004  0.1043930E+01  0.7957747E-01            NaN
         13   -1    0    0    0    0  0.00000000000E+00  0.00000000000E+00  0.74505805969E-08  0.10566000000E+00  0.10566000000E+00 0. -1.
     999900   -1    0    0    0    0 -0.00000000000E+00 -0.00000000000E+00 -0.74505805969E-08  0.93827000000E+00  0.93827000000E+00 0.  1.
     999902    2    1    2    0    0  0.34406022076E-02  0.12209346367E-01 -0.17063075551E-02  0.10311308841E+01  0.10310514453E+01 0.  0.
     999903    2    3    3    0    0  0.63846636821E-01  0.44252523289E-01 -0.10988718520E+00  0.14187346553E+00  0.44924468807E-01 0.  0.
         14    1    1    2    0    0 -0.34406022076E-02 -0.12209346367E-01  0.17063075551E-02  0.12799115897E-01  0.00000000000E+00 0. -1.
     999901    1    3    3    0    0 -0.60406034613E-01 -0.32043176922E-01  0.10818087765E+00  0.88925741858E+00  0.88000000000E+00 0. -1.
        -11    1    4    4    0    0  0.48087037746E-01  0.85506126030E-02 -0.75128852307E-01  0.89610723382E-01  0.51100000000E-03 0. -1.
         11    1    4    4    0    0  0.15759599074E-01  0.35701910686E-01 -0.34758332897E-01  0.52262742144E-01  0.51100000000E-03 0.  1.
</event>
<event>
 8    1  0.2924722E+004  0.1043930E+01  0.7957747E-01            NaN
         13   -1    0    0    0    0  0.00000000000E+00  0.00000000000E+00  0.74505805969E-08  0.10566000000E+00  0.10566000000E+00 0.  1.
     999900   -1    0    0    0    0 -0.00000000000E+00 -0.00000000000E+00 -0.74505805969E-08  0.93827000000E+00  0.93827000000E+00 0. -1.
     999902    2    1    2    0    0  0.73905819580E-02 -0.12262975478E-01 -0.19520559312E-02  0.10294796785E+01  0.10293782573E+01 0.  0.
     999903    2    3    3    0    0  0.75842155667E-01  0.85278392011E-01 -0.64682787854E-01  0.13923528450E+00  0.46670811912E-01 0.  0.
         14    1    1    2    0    0 -0.73905819580E-02  0.12262975478E-01  0.19520559312E-02  0.14450321506E-01  0.00000000000E+00 0.  1.
     999901    1    3    3    0    0 -0.68451573709E-01 -0.97541367489E-01  0.62730731923E-01  0.89024439400E+00  0.88000000000E+00 0.  1.
        -11    1    4    4    0    0  0.59327485673E-01  0.66024534435E-01 -0.70321693918E-01  0.11324482973E+00  0.51100000000E-03 0.  1.
         11    1    4    4    0    0  0.16514669994E-01  0.19253857575E-01  0.56389060640E-02  0.25990454770E-01  0.51100000000E-03 0. -1.
</event>
<event>
 8    1  0.2924722E+004  0.1043930E+01  0.7957747E-01            NaN
         13   -1    0    0    0    0  0.00000000000E+00  0.00000000000E+00  0.74505805969E-08  0.10566000000E+00  0.10566000000E+00 0.  1.
     999900   -1    0    0    0    0 -0.00000000000E+00 -0.00000000000E+00 -0.74505805969E-08  0.93827000000E+00  0.93827000000E+00 0.  1.
     999902    2    1    2    0    0  0.19212832708E-01 -0.83732899982E-02 -0.90922946609E-02  0.10210845464E+01  0.10208289456E+01 0.  0.
     999903    2    3    3    0    0 -0.32480938140E-01  0.10787575578E+00 -0.49011713910E-01  0.13103980227E+00  0.45575120968E-01 0.  0.
         14    1    1    2    0    0 -0.19212832708E-01  0.83732899982E-02  0.90922946609E-02  0.22845453558E-01  0.00000000000E+00 0.  1.
     999901    1    3    3    0    0  0.51693770848E-01 -0.11624904578E+00  0.39919419249E-01  0.89004474417E+00  0.88000000000E+00 0. -1.
        -11    1    4    4    0    0 -0.17693247080E-01  0.62102747323E-01 -0.51901071404E-01  0.82847960453E-01  0.51100000000E-03 0. -1.
         11    1    4    4    0    0 -0.14787691060E-01  0.45773008460E-01  0.28893574939E-02  0.48191841821E-01  0.51100000000E-03 0.  1.
</event>
<event>
 8    1  0.2924722E+004  0.1043930E+01  0.7957747E-01            NaN
         13   -1    0    0    0    0  0.00000000000E+00  0.00000000000E+00  0.74505805969E-08  0.10566000000E+00  0.10566000000E+00 0.  1.
     999900   -1    0    0    0    0 -0.00000000000E+00 -0.00000000000E+00 -0.74505805969E-08  0.93827000000E+00  0.93827000000E+00 0.  1.
     999902    2    1    2    0    0 -0.54447118158E-02 -0.61241884831E-02 -0.10775298652E-01  0.10303927317E+01  0.10303038018E+01 0.  0.
     999903    2    3    3    0    0 -0.50798012891E-01 -0.55892335250E-01  0.10814553691E+00  0.13984461091E+00  0.46439926731E-01 0.  0.
         14    1    1    2    0    0  0.54447118158E-02  0.61241884831E-02  0.10775298652E-01  0.13537268276E-01  0.00000000000E+00 0.  1.
     999901    1    3    3    0    0  0.45353301075E-01  0.49768146767E-01 -0.11892083556E+00  0.89054812081E+00  0.88000000000E+00 0.  1.
        -11    1    4    4    0    0 -0.39348669304E-01 -0.90186465600E-02  0.51250949345E-01  0.65242430147E-01  0.51100000000E-03 0. -1.
         11    1    4    4    0    0 -0.11449343587E-01 -0.46873688690E-01  0.56894587563E-01  0.74602180765E-01  0.51100000000E-03 0.  1.
</event>
<event>
 8    1  0.2924722E+004  0.1043930E+01  0.7957747E-01            NaN
         13   -1    0    0    0    0  0.00000000000E+00  0.00000000000E+00  0.74505805969E-08  0.10566000000E+00  0.10566000000E+00 0.  1.
     999900   -1    0    0    0    0 -0.00000000000E+00 -0.00000000000E+00 -0.74505805969E-08  0.93827000000E+00  0.93827000000E+00 0. -1.
     999902    2    1    2    0    0  0.80524790094E-04 -0.41631191690E-03  0.43665758534E-02  0.10395428843E+01  0.10395336269E+01 0.  0.
     999903    2    3    3    0    0 -0.32285625894E-01  0.75543892534E-01  0.11561295299E+00  0.14870435972E+00  0.44692173398E-01 0.  0.
         14    1    1    2    0    0 -0.80524790094E-04  0.41631191690E-03 -0.43665758534E-02  0.43871157424E-02  0.00000000000E+00 0. -1.
     999901    1    3    3    0    0  0.32366150684E-01 -0.75960204451E-01 -0.11124637714E+00  0.89083852454E+00  0.88000000000E+00 0. -1.
        -11    1    4    4    0    0 -0.27687750401E-01  0.22732253881E-01  0.24881096309E-01  0.43619914756E-01  0.51100000000E-03 0.  1.
         11    1    4    4    0    0 -0.45978754927E-02  0.52811638653E-01  0.90731856680E-01  0.10508444497E+00  0.51100000000E-03 0. -1.
</event>
<event>
 8    1  0.2924722E+004  0.1043930E+01  0.7957747E-01            NaN
         13   -1    0    0    0    0  0.00000000000E+00  0.00000000000E+00  0.74505805969E-08  0.10566000000E+00  0.10566000000E+00 0.  1.
     999900   -1    0    0    0    0 -0.00000000000E+00 -0.00000000000E+00 -0.74505805969E-08  0.93827000000E+00  0.93827000000E+00 0.  1.
     999902    2    1    2    0    0 -0.36014104249E-02 -0.12770492114E-01  0.34531355490E-02  0.10302194285E+01  0.10301281916E+01 0.  0.
     999903    2    3    3    0    0 -0.59520146097E-01  0.43168091568E-01 -0.10981116911E+00  0.13944177226E+00  0.44490258119E-01 0.  0.
         14    1    1    2    0    0  0.36014104249E-02  0.12770492114E-01 -0.34531355490E-02  0.13710571505E-01  0.00000000000E+00 0. -1.
     999901    1    3    3    0    0  0.55918735672E-01 -0.55938583682E-01  0.11326430466E+00  0.89077765624E+00  0.88000000000E+00 0. -1.
        -11    1    4    4    0    0 -0.62884485292E-01  0.46899053480E-01 -0.91887498111E-01  0.12082033412E+00  0.51100000000E-03 0.  1.
         11    1    4    4    0    0  0.33643391947E-02 -0.37309619120E-02 -0.17923671000E-01  0.18621438132E-01  0.51100000000E-03 0. -1.
</event>
<event>
 8    1  0.2924722E+004  0.1043930E+01  0.7957747E-01            NaN
         13   -1    0    0    0    0  0.00000000000E+00  0.00000000000E+00  0.74505805969E-08  0.10566000000E+00  0.10566000000E+00 0. -1.
     999900   -1    0    0    0    0 -0.00000000000E+00 -0.00000000000E+00 -0.74505805969E-08  0.93827000000E+00  0.93827000000E+00 0.  1.
     999902    2    1    2    0    0  0.31284008287E-02 -0.12622736904E-01 -0.45565482135E-02  0.10301502137E+01  0.10300580470E+01 0.  0.
     999903    2    3    3    0    0 -0.91059425304E-01 -0.50532037335E-02 -0.96742086617E-01  0.14030370002E+00  0.44819003919E-01 0.  0.
         14    1    1    2    0    0 -0.31284008287E-02  0.12622736904E-01  0.45565482135E-02  0.13779786295E-01  0.00000000000E+00 0. -1.
     999901    1    3    3    0    0  0.94187826133E-01 -0.75695331708E-02  0.92185538403E-01  0.88984651368E+00  0.88000000000E+00 0.  1.
        -11    1    4    4    0    0 -0.52005746947E-01  0.70671778744E-02 -0.80928139396E-01  0.96458113115E-01  0.51100000000E-03 0.  1.
         11    1    4    4    0    0 -0.39053678357E-01 -0.12120381608E-01 -0.15813947221E-01  0.43845586907E-01  0.51100000000E-03 0. -1.
</event>
<event>
 8    1  0.2924722E+004  0.1043930E+01  0.7957747E-01            NaN
         13   -1    0    0    0    0  0.00000000000E+00  0.00000000000E+00  0.74505805969E-08  0.10566000000E+00  0.10566000000E+00 0. -1.
     999900   -1    0    0    0    0 -0.00000000000E+00 -0.00000000000E+00 -0.74505805969E-08  0.93827000000E+00  0.93827000000E+00 0.  1.
     999902    2    1    2    0    0 -0.10143195617E-01  0.86418256173E-02  0.21249443550E-03  0.10306029328E+01  0.10305167608E+01 0.  0.
     999903    2    3    3    0    0 -0.60670486178E-02 -0.99658327759E-01 -0.86599298198E-01  0.13971470995E+00  0.45300886949E-01 0.  0.
         14    1    1    2    0    0  0.10143195617E-01 -0.86418256173E-02 -0.21249443550E-03  0.13327067239E-01  0.00000000000E+00 0. -1.
     999901    1    3    3    0    0 -0.40761469988E-02  0.10830015338E+00  0.86811792634E-01  0.89088822281E+00  0.88000000000E+00 0. -1.
        -11    1    4    4    0    0  0.14569501445E-01 -0.18599974409E-01 -0.32177077192E-01  0.39923111577E-01  0.51100000000E-03 0.  1.
         11    1    4    4    0    0 -0.20636550063E-01 -0.81058353350E-01 -0.54422221006E-01  0.99791598376E-01  0.51100000000E-03 0. -1.
</event>
<event>
 8    1  0.2924722E+004  0.1043930E+01  0.7957747E-01            NaN
         13   -1    0    0    0    0  0.00000000000E+00  0.00000000000E+00  0.74505805969E-08  0.10566000000E+00  0.10566000000E+00 0. -1.
     999900   -1    0    0    0    0 -0.00000000000E+00 -0.00000000000E+00 -0.74505805969E-08  0.93827000000E+00  0.93827000000E+00 0.  1.
     999902    2    1    2    0    0  0.34319566004E-02 -0.13326797393E-01  0.68452892164E-03  0.10301513776E+01  0.10300592266E+01 0.  0.
     999903    2    3    3    0    0  0.58745265928E-01  0.57408862771E-01  0.10337884095E+00  0.13964072775E+00  0.45448479573E-01 0.  0.
         14    1    1    2    0    0 -0.34319566004E-02  0.13326797393E-01 -0.68452892164E-03  0.13778622381E-01  0.00000000000E+00 0.  1.
     999901    1    3    3    0    0 -0.55313309328E-01 -0.70735660164E-01 -0.10269431203E+00  0.89051064987E+00  0.88000000000E+00 0.  1.
        -11    1    4    4    0    0  0.14807436366E-01  0.43389095700E-01  0.65524622262E-01  0.79972564301E-01  0.51100000000E-03 0. -1.
         11    1    4    4    0    0  0.43937829563E-01  0.14019767071E-01  0.37854218693E-01  0.59668163448E-01  0.51100000000E-03 0.  1.
</event>
<event>
 8    1  0.2924722E+004  0.1043930E+01  0.7957747E-01            NaN
         13   -1    0    0    0    0  0.00000000000E+00  0.00000000000E+00  0.74505805969E-08  0.10566000000E+00  0.10566000000E+00 0. -1.
     999900   -1    0    0    0    0 -0.00000000000E+00 -0.00000000000E+00 -0.74505805969E-08  0.93827000000E+00  0.93827000000E+00 0. -1.
     999902    2    1    2    0    0 -0.60892504772E-03 -0.23358681628E-03 -0.12297527061E-01  0.10316151909E+01  0.10315416848E+01 0.  0.
     999903    2    3    3    0    0 -0.80246866115E-01  0.79648526683E-01  0.70078311177E-01  0.14059940399E+00  0.45538723969E-01 0.  0.
         14    1    1    2    0    0  0.60892504772E-03  0.23358681628E-03  0.12297527061E-01  0.12314809147E-01  0.00000000000E+00 0. -1.
     999901    1    3    3    0    0  0.79637941067E-01 -0.79882113500E-01 -0.82375838238E-01  0.89101578686E+00  0.88000000000E+00 0. -1.
        -11    1    4    4    0    0 -0.49059956571E-01  0.32816149819E-01  0.12982703658E-01  0.60436667206E-01  0.51100000000E-03 0.  1.
         11    1    4    4    0    0 -0.31186909543E-01  0.46832376864E-01  0.57095607519E-01  0.80162736783E-01  0.51100000000E-03 0. -1.
</event>
<event>
 8    1  0.2924722E+004  0.1043930E+01  0.7957747E-01            NaN
         13   -1    0    0    0    0  0.00000000000E+00  0.00000000000E+00  0.74505805969E-08  0.10566000000E+00  0.10566000000E+00 0.  1.
     999900   -1    0    0    0    0 -0.00000000000E+00 -0.00000000000E+00 -0.74505805969E-08  0.93827000000E+00  0.93827000000E+00 0.  1.
     999902    2    1    2    0    0  0.13377045959E-02 -0.93685575346E-02  0.32182419753E-03  0.10344609507E+01  0.10344176118E+01 0.  0.
     999903    2    3    3    0    0  0.47325278025E-01 -0.78328424559E-01 -0.10043441329E+00  0.14484185268E+00  0.50170378516E-01 0.  0.
         14    1    1    2    0    0 -0.13377045959E-02  0.93685575346E-02 -0.32182419753E-03  0.94690493017E-02  0.00000000000E+00 0.  1.
     999901    1    3    3    0    0 -0.45987573429E-01  0.68959867025E-01  0.10075623749E+00  0.88961909802E+00  0.88000000000E+00 0. -1.
        -11    1    4    4    0    0  0.58588762377E-02 -0.54735604995E-01 -0.41079698070E-01  0.68688540525E-01  0.51100000000E-03 0.  1.
         11    1    4    4    0    0  0.41466401787E-01 -0.23592819564E-01 -0.59354715219E-01  0.76153312153E-01  0.51100000000E-03 0. -1.
</event>
<event>
 8    1  0.2924722E+004  0.1043930E+01  0.7957747E-01            NaN
         13   -1    0    0    0    0  0.00000000000E+00  0.00000000000E+00  0.74505805969E-08  0.10566000000E+00  0.10566000000E+00 0.  1.
     999900   -1    0    0    0    0 -0.00000000000E+00 -0.00000000000E+00 -0.74505805969E-08  0.93827000000E+00  0.93827000000E+00 0. -1.
     999902    2    1    2    0    0 -0.12326773813E-01 -0.72738875438E-02 -0.45150505285E-03  0.10296099913E+01  0.10295104038E+01 0.  0.
     999903    2    3    3    0    0 -0.52637649595E-01  0.66273996350E-01 -0.10270454515E+00  0.13972800915E+00  0.42576145884E-01 0.  0.
         14    1    1    2    0    0  0.12326773813E-01  0.72738875438E-02  0.45150505285E-03  0.14320008710E-01  0.00000000000E+00 0.  1.
     999901    1    3    3    0    0  0.40310875782E-01 -0.73547883894E-01  0.10225304010E+00  0.88988198214E+00  0.88000000000E+00 0.  1.
        -11    1    4    4    0    0 -0.24940057969E-01  0.54271459641E-02 -0.15578274065E-01  0.29906590389E-01  0.51100000000E-03 0.  1.
         11    1    4    4    0    0 -0.27697591627E-01  0.60846850386E-01 -0.87126271087E-01  0.10982141876E+00  0.51100000000E-03 0. -1.
</event>
<event>
 8    1  0.2924722E+004  0.1043930E+01  0.7957747E-01            NaN
         13   -1    0    0    0    0  0.00000000000E+00  0.00000000000E+00  0.74505805969E-08  0.10566000000E+00  0.10566000000E+00 0. -1.
     999900   -1    0    0    0    0 -0.00000000000E+00 -0.00000000000E+00 -0.74505805969E-08  0.93827000000E+00  0.93827000000E+00 0.  1.
     999902    2    1    2    0    0  0.89939862050E-02  0.11937876157E-01  0.19410329087E-02  0.10288577645E+01  0.10287473583E+01 0.  0.
     999903    2    3    3    0    0 -0.68119165718E-01 -0.10324631384E+00 -0.30431499574E-01  0.13741970343E+00  0.51556538520E-01 0.  0.
         14    1    1    2    0    0 -0.89939862050E-02 -0.11937876157E-01 -0.19410329087E-02  0.15072235526E-01  0.00000000000E+00 0.  1.
     999901    1    3    3    0    0  0.77113151923E-01  0.11518419000E+00  0.32372532483E-01  0.89143806105E+00  0.88000000000E+00 0. -1.
        -11    1    4    4    0    0 -0.24149948738E-01 -0.76814977985E-01 -0.30524796474E-01  0.86114953333E-01  0.51100000000E-03 0. -1.
         11    1    4    4    0    0 -0.43969216979E-01 -0.26431335854E-01  0.93296899753E-04  0.51304750093E-01  0.51100000000E-03 0.  1.
</event>
<event>
 8    1  0.2924722E+004  0.1043930E+01  0.7957747E-01            NaN
         13   -1    0    0    0    0  0.00000000000E+00  0.00000000000E+00  0.74505805969E-08  0.10566000000E+00  0.10566000000E+00 0.  1.
     999900   -1    0    0    0    0 -0.00000000000E+00 -0.00000000000E+00 -0.74505805969E-08  0.93827000000E+00  0.93827000000E+00 0.  1.
     999902    2    1    2    0    0 -0.49263214023E-02 -0.13127754593E-01 -0.24547063469E-02  0.10296951074E+01  0.10295967085E+01 0.  0.
     999903    2    3    3    0    0  0.69045311563E-01 -0.10652547167E+00  0.39577850420E-01  0.14067223266E+00  0.45905769080E-01 0.  0.
         14    1    1    2    0    0  0.49263214023E-02  0.13127754593E-01  0.24547063469E-02  0.14234892570E-01  0.00000000000E+00 0.  1.
     999901    1    3    3    0    0 -0.73971632965E-01  0.93397717074E-01 -0.42032556767E-01  0.88902287477E+00  0.88000000000E+00 0. -1.
        -11    1    4    4    0    0  0.66169697504E-01 -0.67164682383E-01  0.36426705438E-01  0.10107764054E+00  0.51100000000E-03 0. -1.
         11    1    4    4    0    0  0.28756140588E-02 -0.39360789284E-01  0.31511449823E-02  0.39594592118E-01  0.51100000000E-03 0.  1.
</event>
<event>
 8    1  0.2924722E+004  0.1043930E+01  0.7957747E-01            NaN
         13   -1    0    0    0    0  0.00000000000E+00  0.00000000000E+00  0.74505805969E-08  0.10566000000E+00  0.10566000000E+00 0. -1.
     999900   -1    0    0    0    0 -0.00000000000E+00 -0.00000000000E+00 -0.74505805969E-08  0.93827000000E+00  0.93827000000E+00 0.  1.
     999902    2    1    2    0    0 -0.84606712280E-02  0.10019141082E-01 -0.49946197819E-02  0.10298974531E+01  0.10298018506E+01 0.  0.
     999903    2    3    3    0    0  0.30936688302E-01 -0.12625647990E+00  0.10647221026E-01  0.13839991301E+00  0.46296816360E-01 0.  0.
         14    1    1    2    0    0  0.84606712280E-02 -0.10019141082E-01  0.49946197819E-02  0.14032546897E-01  0.00000000000E+00 0. -1.
     999901    1    3    3    0    0 -0.39397359530E-01  0.13627562098E+00 -0.15641840808E-01  0.89149754010E+00  0.88000000000E+00 0. -1.
        -11    1    4    4    0    0  0.75741367457E-02 -0.10810645762E+00  0.72108031884E-02  0.10861229457E+00  0.51100000000E-03 0. -1.
         11    1    4    4    0    0  0.23362551556E-01 -0.18150022277E-01  0.34364178374E-02  0.29787618442E-01  0.51100000000E-03 0.  1.
</event>
<event>
 8    1  0.2924722E+004  0.1043930E+01  0.7957747E-01            NaN
         13   -1    0    0    0    0  0.00000000000E+00  0.00000000000E+00  0.74505805969E-08  0.10566000000E+00  0.10566000000E+00 0. -1.
     999900   -1    0    0    0    0 -0.00000000000E+00 -0.00000000000E+00 -0.74505805969E-08  0.93827000000E+00  0.93827000000E+00 0.  1.
     999902    2    1    2    0    0 -0.65575453287E-02 -0.49232659671E-02 -0.12075653777E-01  0.10293333784E+01  0.10292298783E+01 0.  0.
     999903    2    3    3    0    0 -0.87256666883E-01  0.15329740358E-01 -0.97814884128E-01  0.14126032502E+00  0.50378576925E-01 0.  0.
         14    1    1    2    0    0  0.65575453287E-02  0.49232659671E-02  0.12075653777E-01  0.14596621618E-01  0.00000000000E+00 0. -1.
     999901    1    3    3    0    0  0.80699121555E-01 -0.20253006325E-01  0.85739230351E-01  0.88807305336E+00  0.88000000000E+00 0. -1.
        -11    1    4    4    0    0 -0.69439794060E-01 -0.86802180834E-02 -0.80655444499E-01  0.10678386130E+00  0.51100000000E-03 0.  1.
         11    1    4    4    0    0 -0.17816872824E-01  0.24009958441E-01 -0.17159439629E-01  0.34476463725E-01  0.51100000000E-03 0. -1.
</event>
<event>
 8    1  0.2924722E+004  0.1043930E+01  0.7957747E-01            NaN
         13   -1    0    0    0    0  0.00000000000E+00  0.00000000000E+00  0.74505805969E-08  0.10566000000E+00  0.10566000000E+00 0.  1.
     999900   -1    0    0    0    0 -0.00000000000E+00 -0.00000000000E+00 -0.74505805969E-08  0.93827000000E+00  0.93827000000E+00 0.  1.
     999902    2    1    2    0    0 -0.12902025637E-01  0.29566406380E-02 -0.25656752216E-02  0.10304471710E+01  0.10303589595E+01 0.  0.
     999903    2    3    3    0    0 -0.74095402861E-01  0.76173056937E-01  0.81453023253E-01  0.14131027784E+00  0.45183363055E-01 0.  0.
         14    1    1    2    0    0  0.12902025637E-01 -0.29566406380E-02  0.25656752216E-02  0.13482829034E-01  0.00000000000E+00 0. -1.
     999901    1    3    3    0    0  0.61193377224E-01 -0.73216416299E-01 -0.84018698474E-01  0.88913689313E+00  0.88000000000E+00 0.  1.
        -11    1    4    4    0    0 -0.26933146147E-01  0.34307921029E-01  0.77406892672E-02  0.44301322757E-01  0.51100000000E-03 0.  1.
         11    1    4    4    0    0 -0.47162256714E-01  0.41865135907E-01  0.73712333986E-01  0.97008955079E-01  0.51100000000E-03 0. -1.
</event>
<event>
 8    1  0.2924722E+004  0.1043930E+01  0.7957747E-01            NaN
         13   -1    0    0    0    0  0.00000000000E+00  0.00000000000E+00  0.74505805969E-08  0.10566000000E+00  0.10566000000E+00 0. -1.
     999900   -1    0    0    0    0 -0.00000000000E+00 -0.00000000000E+00 -0.74505805969E-08  0.93827000000E+00  0.93827000000E+00 0. -1.
     999902    2    1    2    0    0  0.64109527383E-02  0.27708686744E-02  0.12543737551E-01  0.10295730024E+01  0.10294728961E+01 0.  0.
     999903    2    3    3    0    0 -0.28542918658E-01  0.11284549752E+00  0.64696784053E-01  0.14049587566E+00  0.44772901325E-01 0.  0.
         14    1    1    2    0    0 -0.64109527383E-02 -0.27708686744E-02 -0.12543737551E-01  0.14356997596E-01  0.00000000000E+00 0.  1.
     999901    1    3    3    0    0  0.34953871396E-01 -0.11007462885E+00 -0.52153046502E-01  0.88907712675E+00  0.88000000000E+00 0.  1.
        -11    1    4    4    0    0 -0.32110787058E-02  0.77517538765E-01  0.24702544556E-01  0.81423317736E-01  0.51100000000E-03 0.  1.
         11    1    4    4    0    0 -0.25331839952E-01  0.35327958760E-01  0.39994239497E-01  0.59072557922E-01  0.51100000000E-03 0. -1.
</event>
<event>
 8    1  0.2924722E+004  0.1043930E+01  0.7957747E-01            NaN
         13   -1    0    0    0    0  0.00000000000E+00  0.00000000000E+00  0.74505805969E-08  0.10566000000E+00  0.10566000000E+00 0. -1.
     999900   -1    0    0    0    0 -0.00000000000E+00 -0.00000000000E+00 -0.74505805969E-08  0.93827000000E+00  0.93827000000E+00 0. -1.
     999902    2    1    2    0    0  0.39760859975E-03 -0.14943272818E-01  0.27756700187E-02  0.10287259269E+01  0.10286135663E+01 0.  0.
     999903    2    3    3    0    0 -0.66499417871E-01  0.83751370584E-02 -0.11240424624E+00  0.13839712611E+00  0.45019267495E-01 0.  0.
         14    1    1    2    0    0 -0.39760859975E-03  0.14943272818E-01 -0.27756700187E-02  0.15204073111E-01  0.00000000000E+00 0. -1.
     999901    1    3    3    0    0  0.66897026471E-01 -0.23318409876E-01  0.11517991625E+00  0.89032880078E+00  0.88000000000E+00 0.  1.
        -11    1    4    4    0    0  0.84386660498E-03 -0.31272473169E-02 -0.35003762236E-01  0.35157023172E-01  0.51100000000E-03 0. -1.
         11    1    4    4    0    0 -0.67343284476E-01  0.11502384375E-01 -0.77400483999E-01  0.10324010294E+00  0.51100000000E-03 0.  1.
</event>
<event>
 8    1  0.2924722E+004  0.1043930E+01  0.7957747E-01            NaN
         13   -1    0    0    0    0  0.00000000000E+00  0.00000000000E+00  0.74505805969E-08  0.10566000000E+00  0.10566000000E+00 0. -1.
     999900   -1    0    0    0    0 -0.00000000000E+00 -0.00000000000E+00 -0.74505805969E-08  0.93827000000E+00  0.93827000000E+00 0. -1.
     999902    2    1    2    0    0 -0.30088118165E-02  0.10618594804E-01  0.84655657676E-02  0.10300205317E+01  0.10299266102E+01 0.  0.
     999903    2    3    3    0    0 -0.11600706137E+00  0.49764008420E-01 -0.40928738552E-01  0.14055959097E+00  0.46343739084E-01 0.  0.
         14    1    1    2    0    0  0.30088118165E-02 -0.10618594804E-01 -0.84655657676E-02  0.13909468283E-01  0.00000000000E+00 0.  1.
     999901    1    3    3    0    0  0.11299824956E+00 -0.39145413615E-01  0.49394304320E-01  0.88946094074E+00  0.88000000000E+00 0.  1.
        -11    1    4    4    0    0 -0.10330512818E+00  0.58771646183E-01 -0.37196708927E-01  0.12453879789E+00  0.51100000000E-03 0. -1.
         11    1    4    4    0    0 -0.12701933190E-01 -0.90076377632E-02 -0.37320296256E-02  0.16020793081E-01  0.51100000000E-03 0.  1.
</event>
<event>
 8    1  0.2924722E+004  0.1043930E+01  0.7957747E-01            NaN
         13   -1    0    0    0    0  0.00000000000E+00  0.00000000000E+00  0.74505805969E-08  0.10566000000E+00  0.10566000000E+00 0.  1.
     999900   -1    0    0    0    0 -0.00000000000E+00 -0.00000000000E+00 -0.74505805969E-08  0.93827000000E+00  0.93827000000E+00 0.  1.
     999902    2    1    2    0    0  0.25829786617E-02  0.13028332313E-01 -0.22578967084E-03  0.10306461676E+01  0.10305605575E+01 0.  0.
     999903    2    3    3    0    0 -0.69812525565E-01 -0.92083071664E-01 -0.63073932118E-01  0.13922067703E+00  0.45287914349E-01 0.  0.
         14    1    1    2    0    0 -0.25829786617E-02 -0.13028332313E-01  0.22578967084E-03  0.13283832376E-01  0.00000000000E+00 0. -1.
     999901    1    3    3    0    0  0.72395504226E-01  0.10511140398E+00  0.62848142448E-01  0.89142549060E+00  0.88000000000E+00 0. -1.
        -11    1    4    4    0    0 -0.34424350871E-01 -0.15753084805E-01 -0.81022458161E-02  0.38718253086E-01  0.51100000000E-03 0.  1.
         11    1    4    4    0    0 -0.35388174694E-01 -0.76329986859E-01 -0.54971686302E-01  0.10050242394E+00  0.51100000000E-03 0. -1.
</event>
<event>
 8    1  0.2924722E+004  0.1043930E+01  0.7957747E-01            NaN
         13   -1    0    0    0    0  0.00000000000E+00  0.00000000000E+00  0.74505805969E-08  0.10566000000E+00  0.10566000000E+00 0. -1.
     999900   -1    0    0    0    0 -0.00000000000E+00 -0.00000000000E+00 -0.74505805969E-08  0.93827000000E+00  0.93827000000E+00 0. -1.
     999902    2    1    2    0    0 -0.20721297416E-02 -0.13508442884E-01 -0.18104444409E-02  0.10301441573E+01  0.10300519090E+01 0.  0.
     999903    2    3    3    0    0 -0.32319950612E-01  0.57057831350E-01  0.11441806358E+00  0.13918759502E+00  0.44514245000E-01 0.  0.
         14    1    1    2    0    0  0.20721297416E-02  0.13508442884E-01  0.18104444409E-02  0.13785842734E-01  0.00000000000E+00 0. -1.
     999901    1    3    3    0    0  0.30247820870E-01 -0.70566274234E-01 -0.11622850802E+00  0.89095656224E+00  0.88000000000E+00 0. -1.
        -11    1    4    4    0    0 -0.20834334647E-01  0.73613803630E-02  0.62980664888E-01  0.66746420816E-01  0.51100000000E-03 0. -1.
         11    1    4    4    0    0 -0.11485615965E-01  0.49696450987E-01  0.51437398696E-01  0.72441174207E-01  0.51100000000E-03 0.  1.
</event>
<event>
 8    1  0.2924722E+004  0.1043930E+01  0.7957747E-01            NaN
         13   -1    0    0    0    0  0.00000000000E+00  0.00000000000E+00  0.74505805969E-08  0.10566000000E+00  0.10566000000E+00 0.  1.
     999900   -1    0    0    0    0 -0.00000000000E+00 -0.00000000000E+00 -0.74505805969E-08  0.93827000000E+00  0.93827000000E+00 0.  1.
     999902    2    1    2    0    0  0.18173674768E-02  0.39040257246E-02  0.14060487761E-01  0.10292248459E+01  0.10291197898E+01 0.  0.
     999903    2    3    3    0    0 -0.68480610695E-01  0.99844206826E-01 -0.50533846613E-01  0.13887730020E+00  0.45549700090E-01 0.  0.
         14    1    1    2    0    0 -0.18173674768E-02 -0.39040257246E-02 -0.14060487761E-01  0.14705154113E-01  0.00000000000E+00 0. -1.
     999901    1    3    3    0    0  0.70297978171E-01 -0.95940181102E-01  0.64594334375E-01  0.89034754569E+00  0.88000000000E+00 0. -1.
        -11    1    4    4    0    0 -0.50155446509E-01  0.87262200857E-01 -0.22567959400E-01  0.10314957307E+00  0.51100000000E-03 0. -1.
         11    1    4    4    0    0 -0.18325164186E-01  0.12582005969E-01 -0.27965887213E-01  0.35727727122E-01  0.51100000000E-03 0.  1.
</event>
<event>
 8    1  0.2924722E+004  0.1043930E+01  0.7957747E-01            NaN
         13   -1    0    0    0    0  0.00000000000E+00  0.00000000000E+00  0.74505805969E-08  0.10566000000E+00  0.10566000000E+00 0. -1.
     999900   -1    0    0    0    0 -0.00000000000E+00 -0.00000000000E+00 -0.74505805969E-08  0.93827000000E+00  0.93827000000E+00 0.  1.
     999902    2    1    2    0    0  0.79878649990E-02 -0.26580161979E-02  0.10838061622E-01  0.10302064940E+01  0.10301150837E+01 0.  0.
     999903    2    3    3    0    0 -0.11640899970E+00  0.62023150504E-01 -0.15723945739E-02  0.13902062523E+00  0.43890037647E-01 0.  0.
         14    1    1    2    0    0 -0.79878649990E-02  0.26580161979E-02 -0.10838061622E-01  0.13723506005E-01  0.00000000000E+00 0.  1.
     999901    1    3    3    0    0  0.12439686469E+00 -0.64681166702E-01  0.12410456196E-01  0.89118586877E+00  0.88000000000E+00 0. -1.
        -11    1    4    4    0    0 -0.55701198703E-01  0.12787043203E-01 -0.16404459278E-01  0.59460065725E-01  0.51100000000E-03 0.  1.
         11    1    4    4    0    0 -0.60707800992E-01  0.49236107301E-01  0.14832064704E-01  0.79560559500E-01  0.51100000000E-03 0. -1.
</event>
<event>
 8    1  0.2924722E+004  0.1043930E+01  0.7957747E-01            NaN
         13   -1    0    0    0    0  0.00000000000E+00  0.00000000000E+00  0.74505805969E-08  0.10566000000E+00  0.10566000000E+00 0.  1.
     999900   -1    0    0    0    0 -0.00000000000E+00 -0.00000000000E+00 -0.74505805969E-08  0.93827000000E+00  0.93827000000E+00 0.  1.
     999902    2    1    2    0    0 -0.11159352647E-01  0.46945017262E-02 -0.75625868020E-02  0.10296554696E+01  0.10295565181E+01 0.  0.
     999903    2    3    3    0    0  0.12275053751E+00  0.44660693989E-01 -0.11665949756E-01  0.13861899856E+00  0.44909468180E-01 0.  0.
         14    1    1    2    0    0  0.11159352647E-01 -0.46945017262E-02  0.75625868020E-02  0.14274530363E-01  0.00000000000E+00 0.  1.
     999901    1    3    3    0    0 -0.13390989015E+00 -0.39966192262E-01  0.41033629537E-02  0.89103647108E+00  0.88000000000E+00 0. -1.
        -11    1    4    4    0    0  0.18953290370E-01  0.24401303401E-01 -0.11176556759E-01  0.32860726795E-01  0.51100000000E-03 0.  1.
         11    1    4    4    0    0  0.10379724713E+00  0.20259390588E-01 -0.48939299641E-03  0.10575827176E+00  0.51100000000E-03 0. -1.
</event>
<event>
 8    1  0.2924722E+004  0.1043930E+01  0.7957747E-01            NaN
         13   -1    0    0    0    0  0.00000000000E+00  0.00000000000E+00  0.74505805969E-08  0.10566000000E+00  0.10566000000E+00 0. -1.
     999900   -1    0    0    0    0 -0.00000000000E+00 -0.00000000000E+00 -0.74505805969E-08  0.93827000000E+00  0.93827000000E+00 0.  1.
     999902    2    1    2    0    0 -0.12798853931E-01 -0.38630819141E-02 -0.32034174681E-02  0.10301824203E+01  0.10300906869E+01 0.  0.
     999903    2    3    3    0    0 -0.76236041604E-02  0.97191464591E-01 -0.91642578434E-01  0.13998003334E+00  0.41130857294E-01 0.  0.
         14    1    1    2    0    0  0.12798853931E-01  0.38630819141E-02  0.32034174681E-02  0.13747579689E-01  0.00000000000E+00 0.  1.
     999901    1    3    3    0    0 -0.51752497707E-02 -0.10105454650E+00  0.88439160966E-01  0.89020238697E+00  0.88000000000E+00 0. -1.
        -11    1    4    4    0    0 -0.12246582342E-02  0.65488254587E-01 -0.33802211455E-01  0.73709306718E-01  0.51100000000E-03 0. -1.
         11    1    4    4    0    0 -0.63989459262E-02  0.31703210004E-01 -0.57840366979E-01  0.66270726620E-01  0.51100000000E-03 0.  1.
</event>
<event>
 8    1  0.2924722E+004  0.1043930E+01  0.7957747E-01            NaN
         13   -1    0    0    0    0  0.00000000000E+00  0.00000000000E+00  0.74505805969E-08  0.10566000000E+00  0.10566000000E+00 0. -1.
     999900   -1    0    0    0    0 -0.00000000000E+00 -0.00000000000E+00 -0.74505805969E-08  0.93827000000E+00  0.93827000000E+00 0. -1.
     999902    2    1    2    0    0 -0.97951736397E-02  0.68133614347E-02  0.71220909366E-02  0.10300342632E+01  0.10299405284E+01 0.  0.
     999903    2    3    3    0    0  0.88325415054E-01  0.37920212718E-01 -0.89569445253E-01  0.13877417814E+00  0.44679587281E-01 0.  0.
         14    1    1    2    0    0  0.97951736397E-02 -0.68133614347E-02 -0.71220909366E-02  0.13895736756E-01  0.00000000000E+00 0.  1.
     999901    1    3    3    0    0 -0.98120588693E-01 -0.31106851283E-01  0.96691536190E-01  0.89126008510E+00  0.88000000000E+00 0.  1.
        -11    1    4    4    0    0  0.13954350982E-01  0.60692626265E-02 -0.42561958273E-01  0.45203332546E-01  0.51100000000E-03 0.  1.
         11    1    4    4    0    0  0.74371064072E-01  0.31850950092E-01 -0.47007486980E-01  0.93570845599E-01  0.51100000000E-03 0. -1.
</event>
<event>
 8    1  0.2924722E+004  0.1043930E+01  0.7957747E-01            NaN
         13   -1    0    0    0    0  0.00000000000E+00  0.00000000000E+00  0.74505805969E-08  0.10566000000E+00  0.10566000000E+00 0. -1.
     999900   -1    0    0    0    0 -0.00000000000E+00 -0.00000000000E+00 -0.74505805969E-08  0.93827000000E+00  0.93827000000E+00 0.  1.
     999902    2    1    2    0    0 -0.95118772617E-02 -0.60341801034E-02  0.74658672754E-02  0.10304160697E+01  0.10303274481E+01 0.  0.
     999903    2    3    3    0    0  0.67269249738E-01 -0.92004759078E-01 -0.66861249361E-01  0.13979224214E+00  0.45622545337E-01 0.  0.
         14    1    1    2    0    0  0.95118772617E-02  0.60341801034E-02 -0.74658672754E-02  0.13513930322E-01  0.00000000000E+00 0.  1.
     999901    1    3    3    0    0 -0.76781127000E-01  0.85970578974E-01  0.74327116636E-01  0.89062382754E+00  0.88000000000E+00 0. -1.
        -11    1    4    4    0    0  0.72841768320E-01 -0.81266723304E-01 -0.52802096442E-01  0.12123747786E+00  0.51100000000E-03 0.  1.
         11    1    4    4    0    0 -0.55725185819E-02 -0.10738035773E-01 -0.14059152918E-01  0.18554764278E-01  0.51100000000E-03 0. -1.
</event>
<event>
 8    1  0.2924722E+004  0.1043930E+01  0.7957747E-01            NaN
         13   -1    0    0    0    0  0.00000000000E+00  0.00000000000E+00  0.74505805969E-08  0.10566000000E+00  0.10566000000E+00 0.  1.
     999900   -1    0    0    0    0 -0.00000000000E+00 -0.00000000000E+00 -0.74505805969E-08  0.93827000000E+00  0.93827000000E+00 0. -1.
     999902    2    1    2    0    0  0.18571455493E-02  0.64136139250E-02 -0.11516084748E-01  0.10306182142E+01  0.10305322410E+01 0.  0.
     999903    2    3    3    0    0 -0.10149657983E+00  0.85798567794E-01  0.77633364246E-03  0.14093564890E+00  0.46896742797E-01 0.  0.
         14    1    1    2    0    0 -0.18571455493E-02 -0.64136139250E-02  0.11516084748E-01  0.13311785797E-01  0.00000000000E+00 0.  1.
     999901    1    3    3    0    0  0.10335372538E+00 -0.79384953869E-01 -0.12292418390E-01  0.88968256530E+00  0.88000000000E+00 0.  1.
        -11    1    4    4    0    0 -0.94284922817E-01  0.83238453270E-01 -0.11674159257E-01  0.12631244550E+00  0.51100000000E-03 0.  1.
         11    1    4    4    0    0 -0.72116570128E-02  0.25601145241E-02  0.12450492899E-01  0.14623203400E-01  0.51100000000E-03 0. -1.
</event>
<event>
 8    1  0.2924722E+004  0.1043930E+01  0.7957747E-01            NaN
         13   -1    0    0    0    0  0.00000000000E+00  0.00000000000E+00  0.74505805969E-08  0.10566000000E+00  0.10566000000E+00 0.  1.
     999900   -1    0    0    0    0 -0.00000000000E+00 -0.00000000000E+00 -0.74505805969E-08  0.93827000000E+00  0.93827000000E+00 0. -1.
     999902    2    1    2    0    0  0.49481060398E-02  0.47402210649E-02  0.12931814239E-01  0.10292949302E+01  0.10291908803E+01 0.  0.
     999903    2    3    3    0    0  0.66687843506E-01 -0.96114034574E-01 -0.58996585764E-01  0.13847672718E+00  0.44833366213E-01 0.  0.
         14    1    1    2    0    0 -0.49481060398E-02 -0.47402210649E-02 -0.12931814239E-01  0.14635069820E-01  0.00000000000E+00 0. -1.
     999901    1    3    3    0    0 -0.61739737466E-01  0.10085425564E+00  0.71928400003E-01  0.89081820300E+00  0.88000000000E+00 0. -1.
        -11    1    4    4    0    0  0.27982070234E-01 -0.42140219722E-01 -0.50562756799E-01  0.71523757373E-01  0.51100000000E-03 0.  1.
         11    1    4    4    0    0  0.38705773273E-01 -0.53973814852E-01 -0.84338289655E-02  0.66952969810E-01  0.51100000000E-03 0. -1.
</event>
<event>
 8    1  0.2924722E+004  0.1043930E+01  0.7957747E-01            NaN
         13   -1    0    0    0    0  0.00000000000E+00  0.00000000000E+00  0.74505805969E-08  0.10566000000E+00  0.10566000000E+00 0.  1.
     999900   -1    0    0    0    0 -0.00000000000E+00 -0.00000000000E+00 -0.74505805969E-08  0.93827000000E+00  0.93827000000E+00 0. -1.
     999902    2    1    2    0    0 -0.77031074269E-02 -0.95655694397E-02 -0.46533260350E-02  0.10307964009E+01  0.10307127285E+01 0.  0.
     999903    2    3    3    0    0  0.32607176588E-01  0.45449975319E-04  0.12802982998E+00  0.13988556887E+00  0.45968521646E-01 0.  0.
         14    1    1    2    0    0  0.77031074269E-02  0.95655694397E-02  0.46533260350E-02  0.13133599123E-01  0.00000000000E+00 0. -1.
     999901    1    3    3    0    0 -0.40310284015E-01 -0.96110194150E-02 -0.13268315602E+00  0.89091083200E+00  0.88000000000E+00 0. -1.
        -11    1    4    4    0    0  0.97145895859E-02  0.22163102664E-01  0.62758646206E-01  0.67264293389E-01  0.51100000000E-03 0. -1.
         11    1    4    4    0    0  0.22892587002E-01 -0.22117652688E-01  0.65271183778E-01  0.72621275483E-01  0.51100000000E-03 0.  1.
</event>
<event>
 8    1  0.2924722E+004  0.1043930E+01  0.7957747E-01            NaN
         13   -1    0    0    0    0  0.00000000000E+00  0.00000000000E+00  0.74505805969E-08  0.10566000000E+00  0.10566000000E+00 0.  1.
     999900   -1    0    0    0    0 -0.00000000000E+00 -0.00000000000E+00 -0.74505805969E-08  0.93827000000E+00  0.93827000000E+00 0. -1.
     999902    2    1    2    0    0 -0.15015305263E-01  0.88168218808E-02 -0.10750384017E-01  0.10234662150E+01  0.10232616121E+01 0.  0.
     999903    2    3    3    0    0 -0.76010041740E-01 -0.10036115498E+00 -0.16802246757E-01  0.13460356331E+00  0.44563616184E-01 0.  0.
         14    1    1    2    0    0  0.15015305263E-01 -0.88168218808E-02  0.10750384017E-01  0.20463785005E-01  0.00000000000E+00 0.  1.
     999901    1    3    3    0    0  0.60994736476E-01  0.10917797686E+00  0.60518627399E-02  0.88886265168E+00  0.88000000000E+00 0. -1.
        -11    1    4    4    0    0 -0.11440301270E-01 -0.14131752971E-01  0.13551370822E-01  0.22682321471E-01  0.51100000000E-03 0.  1.
         11    1    4    4    0    0 -0.64569740470E-01 -0.86229402007E-01 -0.30353617579E-01  0.11192124184E+00  0.51100000000E-03 0. -1.
</event>
<event>
 8    1  0.2924722E+004  0.1043930E+01  0.7957747E-01            NaN
         13   -1    0    0    0    0  0.00000000000E+00  0.00000000000E+00  0.74505805969E-08  0.10566000000E+00  0.10566000000E+00 0.  1.
     999900   -1    0    0    0    0 -0.00000000000E+00 -0.00000000000E+00 -0.74505805969E-08  0.93827000000E+00  0.93827000000E+00 0. -1.
     999902    2    1    2    0    0 -0.32624176900E-03  0.12162526689E-01  0.71251911058E-02  0.10298302895E+01  0.10297337633E+01 0.  0.
     999903    2    3    3    0    0 -0.83245483624E-02 -0.13029458185E+00  0.11210745130E-01  0.13832891961E+00  0.44308385537E-01 0.  0.
         14    1    1    2    0    0  0.32624176900E-03 -0.12162526689E-01 -0.71251911058E-02  0.14099710545E-01  0.00000000000E+00 0. -1.
     999901    1    3    3    0    0  0.79983065934E-02  0.14245710854E+00 -0.40855540243E-02  0.89150136984E+00  0.88000000000E+00 0. -1.
        -11    1    4    4    0    0 -0.13576399850E-01 -0.24380894466E-01 -0.10969754134E-01  0.29989052579E-01  0.51100000000E-03 0. -1.
         11    1    4    4    0    0  0.52518514880E-02 -0.10591368739E+00  0.22180499264E-01  0.10833986703E+00  0.51100000000E-03 0.  1.
</event>
<event>
 8    1  0.2924722E+004  0.1043930E+01  0.7957747E-01            NaN
         13   -1    0    0    0    0  0.00000000000E+00  0.00000000000E+00  0.74505805969E-08  0.10566000000E+00  0.10566000000E+00 0.  1.
     999900   -1    0    0    0    0 -0.00000000000E+00 -0.00000000000E+00 -0.74505805969E-08  0.93827000000E+00  0.93827000000E+00 0.  1.
     999902    2    1    2    0    0 -0.38690605132E-02  0.13019039057E-01 -0.65337639767E-03  0.10303325036E+01  0.10302427753E+01 0.  0.
     999903    2    3    3    0    0 -0.13260851019E+00 -0.68006545402E-02  0.11074327122E-01  0.14066728277E+00  0.45092991062E-01 0.  0.
         14    1    1    2    0    0  0.38690605132E-02 -0.13019039057E-01  0.65337639767E-03  0.13597496385E-01  0.00000000000E+00 0.  1.
     999901    1    3    3    0    0  0.12873944968E+00  0.19819693597E-01 -0.11727703520E-01  0.88966522085E+00  0.88000000000E+00 0. -1.
        -11    1    4    4    0    0 -0.11562532748E+00  0.54812027266E-02 -0.23364628965E-02  0.11577987787E+00  0.51100000000E-03 0.  1.
         11    1    4    4    0    0 -0.16983182708E-01 -0.12281857267E-01  0.13410790019E-01  0.24887404902E-01  0.51100000000E-03 0. -1.
</event>
<event>
 8    1  0.2924722E+004  0.1043930E+01  0.7957747E-01            NaN
         13   -1    0    0    0    0  0.00000000000E+00  0.00000000000E+00  0.74505805969E-08  0.10566000000E+00  0.10566000000E+00 0.  1.
     999900   -1    0    0    0    0 -0.00000000000E+00 -0.00000000000E+00 -0.74505805969E-08  0.93827000000E+00  0.93827000000E+00 0. -1.
     999902    2    1    2    0    0 -0.37485616184E-02  0.26963393786E-02  0.12676044749E-01  0.10304391116E+01  0.10303507939E+01 0.  0.
     999903    2    3    3    0    0  0.12613794392E+00 -0.33495297083E-01  0.24469558334E-01  0.14009118753E+00  0.44654962949E-01 0.  0.
         14    1    1    2    0    0  0.37485616184E-02 -0.26963393786E-02 -0.12676044749E-01  0.13490888434E-01  0.00000000000E+00 0. -1.
     999901    1    3    3    0    0 -0.12988650554E+00  0.36191636462E-01 -0.11793513585E-01  0.89034792403E+00  0.88000000000E+00 0.  1.
        -11    1    4    4    0    0  0.96295183189E-01 -0.26159299799E-01  0.37644442955E-01  0.10665100317E+00  0.51100000000E-03 0.  1.
         11    1    4    4    0    0  0.29842760731E-01 -0.73359972845E-02 -0.13174884621E-01  0.33440184359E-01  0.51100000000E-03 0. -1.
</event>
<event>
 8    1  0.2924722E+004  0.1043930E+01  0.7957747E-01            NaN
         13   -1    0    0    0    0  0.00000000000E+00  0.00000000000E+00  0.74505805969E-08  0.10566000000E+00  0.10566000000E+00 0. -1.
     999900   -1    0    0    0    0 -0.00000000000E+00 -0.00000000000E+00 -0.74505805969E-08  0.93827000000E+00  0.93827000000E+00 0. -1.
     999902    2    1    2    0    0 -0.14397176642E-01  0.25483714686E-02  0.54905315956E-02  0.10283120991E+01  0.10281934907E+01 0.  0.
     999903    2    3    3    0    0 -0.10658725578E+00  0.70443521630E-01  0.36391165366E-01  0.14035736414E+00  0.45307172927E-01 0.  0.
         14    1    1    2    0    0  0.14397176642E-01 -0.25483714686E-02 -0.54905315956E-02  0.15617900935E-01  0.00000000000E+00 0.  1.
     999901    1    3    3    0    0  0.92190079133E-01 -0.67895150162E-01 -0.30900633770E-01  0.88795473492E+00  0.88000000000E+00 0. -1.
        -11    1    4    4    0    0 -0.48311516021E-01  0.56543821687E-01  0.10584976851E-01  0.75123293373E-01  0.51100000000E-03 0. -1.
         11    1    4    4    0    0 -0.58275739754E-01  0.13899699944E-01  0.25806188515E-01  0.65234070769E-01  0.51100000000E-03 0.  1.
</event>
<event>
 8    1  0.2924722E+004  0.1043930E+01  0.7957747E-01            NaN
         13   -1    0    0    0    0  0.00000000000E+00  0.00000000000E+00  0.74505805969E-08  0.10566000000E+00  0.10566000000E+00 0. -1.
     999900   -1    0    0    0    0 -0.00000000000E+00 -0.00000000000E+00 -0.74505805969E-08  0.93827000000E+00  0.93827000000E+00 0.  1.
     999902    2    1    2    0    0 -0.95986053313E-02 -0.15885682205E-01 -0.51067280875E-02  0.10246798884E+01  0.10244990517E+01 0.  0.
     999903    2    3    3    0    0 -0.62807607681E-01 -0.12904361144E-01  0.11328463710E+00  0.13515383398E+00  0.36357003677E-01 0.  0.
         14    1    1    2    0    0  0.95986053313E-02  0.15885682205E-01  0.51067280875E-02  0.19250111563E-01  0.00000000000E+00 0. -1.
     999901    1    3    3    0    0  0.53209002350E-01 -0.29813210602E-02 -0.11839136519E+00  0.88952605446E+00  0.88000000000E+00 0.  1.
        -11    1    4    4    0    0 -0.31769282427E-01 -0.16819673902E-01  0.32278532811E-01  0.48315148117E-01  0.51100000000E-03 0.  1.
         11    1    4    4    0    0 -0.31038325254E-01  0.39153127578E-02  0.81006104294E-01  0.86838685863E-01  0.51100000000E-03 0. -1.
</event>
<event>
 8    1  0.2924722E+004  0.1043930E+01  0.7957747E-01            NaN
         13   -1    0    0    0    0  0.00000000000E+00  0.00000000000E+00  0.74505805969E-08  0.10566000000E+00  0.10566000000E+00 0.  1.
     999900   -1    0    0    0    0 -0.00000000000E+00 -0.00000000000E+00 -0.74505805969E-08  0.93827000000E+00  0.93827000000E+00 0. -1.
     999902    2    1    2    0    0 -0.49651563024E-02  0.74719150640E-02 -0.10543173768E-01  0.10300865609E+01  0.10299935350E+01 0.  0.
     999903    2    3    3    0    0  0.37660377489E-02 -0.12997811244E+00  0.19601617623E-01  0.13886411270E+00  0.44615307101E-01 0.  0.
         14    1    1    2    0    0  0.49651563024E-02 -0.74719150640E-02  0.10543173768E-01  0.13843439057E-01  0.00000000000E+00 0.  1.
     999901    1    3    3    0    0 -0.87311940514E-02  0.13745002750E+00 -0.30144791391E-01  0.89122244825E+00  0.88000000000E+00 0.  1.
        -11    1    4    4    0    0  0.23895268053E-01 -0.58786425196E-01  0.76074862224E-02  0.63913712068E-01  0.51100000000E-03 0. -1.
         11    1    4    4    0    0 -0.20129230304E-01 -0.71191687244E-01  0.11994131400E-01  0.74950400628E-01  0.51100000000E-03 0.  1.
</event>
<event>
 8    1  0.2924722E+004  0.1043930E+01  0.7957747E-01            NaN
         13   -1    0    0    0    0  0.00000000000E+00  0.00000000000E+00  0.74505805969E-08  0.10566000000E+00  0.10566000000E+00 0. -1.
     999900   -1    0    0    0    0 -0.00000000000E+00 -0.00000000000E+00 -0.74505805969E-08  0.93827000000E+00  0.93827000000E+00 0.  1.
     999902    2    1    2    0    0  0.77451782945E-02  0.11648878811E-01  0.68854571609E-03  0.10299243490E+01  0.10298291152E+01 0.  0.
     999903    2    3    3    0    0 -0.52234843302E-01 -0.15170274585E-01  0.11741030157E+00  0.13978905690E+00  0.52888424320E-01 0.  0.
         14    1    1    2    0    0 -0.77451782945E-02 -0.11648878811E-01 -0.68854571609E-03  0.14005650987E-01  0.00000000000E+00 0. -1.
     999901    1    3    3    0    0  0.59980021596E-01  0.26819153397E-01 -0.11672175586E+00  0.89013529212E+00  0.88000000000E+00 0.  1.
        -11    1    4    4    0    0  0.15712483646E-02  0.34311001279E-02  0.55690679395E-01  0.55820732367E-01  0.51100000000E-03 0.  1.
         11    1    4    4    0    0 -0.53806091667E-01 -0.18601374713E-01  0.61719622177E-01  0.83968324530E-01  0.51100000000E-03 0. -1.
</event>
<event>
 8    1  0.2924722E+004  0.1043930E+01  0.7957747E-01            NaN
         13   -1    0    0    0    0  0.00000000000E+00  0.00000000000E+00  0.74505805969E-08  0.10566000000E+00  0.10566000000E+00 0.  1.
     999900   -1    0    0    0    0 -0.00000000000E+00 -0.00000000000E+00 -0.74505805969E-08  0.93827000000E+00  0.93827000000E+00 0. -1.
     999902    2    1    2    0    0 -0.95525292133E-02 -0.10455053795E-01  0.32269873725E-03  0.10297644397E+01  0.10296670035E+01 0.  0.
     999903    2    3    3    0    0 -0.11398362199E+00 -0.15323255507E-01  0.67863428982E-01  0.14100614704E+00  0.45279358082E-01 0.  0.
         14    1    1    2    0    0  0.95525292133E-02  0.10455053795E-01 -0.32269873725E-03  0.14165560303E-01  0.00000000000E+00 0.  1.
     999901    1    3    3    0    0  0.10443109278E+00  0.48682017118E-02 -0.67540730245E-01  0.88875829266E+00  0.88000000000E+00 0. -1.
        -11    1    4    4    0    0 -0.81709441736E-01 -0.31222771349E-01  0.51170573141E-01  0.10134092459E+00  0.51100000000E-03 0. -1.
         11    1    4    4    0    0 -0.32274180253E-01  0.15899515842E-01  0.16692855841E-01  0.39665222452E-01  0.51100000000E-03 0.  1.
</event>
<event>
 8    1  0.2924722E+004  0.1043930E+01  0.7957747E-01            NaN
         13   -1    0    0    0    0  0.00000000000E+00  0.00000000000E+00  0.74505805969E-08  0.10566000000E+00  0.10566000000E+00 0.  1.
     999900   -1    0    0    0    0 -0.00000000000E+00 -0.00000000000E+00 -0.74505805969E-08  0.93827000000E+00  0.93827000000E+00 0. -1.
     999902    2    1    2    0    0 -0.87394618681E-02  0.10322134067E-01 -0.12766370959E-02  0.10303449182E+01  0.10302553548E+01 0.  0.
     999903    2    3    3    0    0 -0.57741756653E-01 -0.36969907333E-01  0.11399096057E+00  0.14021887029E+00  0.44345326529E-01 0.  0.
         14    1    1    2    0    0  0.87394618681E-02 -0.10322134067E-01  0.12766370959E-02  0.13585081807E-01  0.00000000000E+00 0.  1.
     999901    1    3    3    0    0  0.49002294785E-01  0.47292041400E-01 -0.11526759767E+00  0.89012604790E+00  0.88000000000E+00 0.  1.
        -11    1    4    4    0    0 -0.36235832769E-01 -0.10229755681E-01  0.92130624170E-01  0.99528872739E-01  0.51100000000E-03 0.  1.
         11    1    4    4    0    0 -0.21505923884E-01 -0.26740151652E-01  0.21860336403E-01  0.40689997556E-01  0.51100000000E-03 0. -1.
</event>
<event>
 8    1  0.2924722E+004  0.1043930E+01  0.7957747E-01            NaN
         13   -1    0    0    0    0  0.00000000000E+00  0.00000000000E+00  0.74505805969E-08  0.10566000000E+00  0.10566000000E+00 0. -1.
     999900   -1    0    0    0    0 -0.00000000000E+00 -0.00000000000E+00 -0.74505805969E-08  0.93827000000E+00  0.93827000000E+00 0. -1.
     999902    2    1    2    0    0 -0.11039991067E-01  0.19675066055E-02  0.82441548101E-02  0.10300117180E+01  0.10299176766E+01 0.  0.
     999903    2    3    3    0    0  0.12992091644E+00  0.16308258357E-03  0.15808541520E-01  0.13875953522E+00  0.46095851265E-01 0.  0.
         14    1    1    2    0    0  0.11039991067E-01 -0.19675066055E-02 -0.82441548101E-02  0.13918281990E-01  0.00000000000E+00 0. -1.
     999901    1    3    3    0    0 -0.14096090751E+00  0.18044240219E-02 -0.75643867099E-02  0.89125218280E+00  0.88000000000E+00 0. -1.
        -11    1    4    4    0    0  0.84982247848E-01  0.20032807462E-01  0.19564626931E-01  0.89478106664E-01  0.51100000000E-03 0.  1.
         11    1    4    4    0    0  0.44938668591E-01 -0.19869724879E-01 -0.37560854110E-02  0.49281428552E-01  0.51100000000E-03 0. -1.
</event>
<event>
 8    1  0.2924722E+004  0.1043930E+01  0.7957747E-01            NaN
         13   -1    0    0    0    0  0.00000000000E+00  0.00000000000E+00  0.74505805969E-08  0.10566000000E+00  0.10566000000E+00 0. -1.
     999900   -1    0    0    0    0 -0.00000000000E+00 -0.00000000000E+00 -0.74505805969E-08  0.93827000000E+00  0.93827000000E+00 0.  1.
     999902    2    1    2    0    0  0.87809254920E-03 -0.30077801344E-02  0.12477923040E-01  0.10310646842E+01  0.10309844163E+01 0.  0.
     999903    2    3    3    0    0 -0.61696053581E-01  0.91883261523E-01 -0.72561362835E-01  0.13968849328E+00  0.44707795776E-01 0.  0.
         14    1    1    2    0    0 -0.87809254920E-03  0.30077801344E-02 -0.12477923040E-01  0.12865315824E-01  0.00000000000E+00 0.  1.
     999901    1    3    3    0    0  0.62574146130E-01 -0.94891041658E-01  0.85039285876E-01  0.89137619089E+00  0.88000000000E+00 0.  1.
        -11    1    4    4    0    0 -0.61320820382E-01  0.54722353855E-01 -0.49194123359E-01  0.95786752309E-01  0.51100000000E-03 0.  1.
         11    1    4    4    0    0 -0.37523319825E-03  0.37160907668E-01 -0.23367239476E-01  0.43901740973E-01  0.51100000000E-03 0. -1.
</event>
<event>
 8    1  0.2924722E+004  0.1043930E+01  0.7957747E-01            NaN
         13   -1    0    0    0    0  0.00000000000E+00  0.00000000000E+00  0.74505805969E-08  0.10566000000E+00  0.10566000000E+00 0.  1.
     999900   -1    0    0    0    0 -0.00000000000E+00 -0.00000000000E+00 -0.74505805969E-08  0.93827000000E+00  0.93827000000E+00 0.  1.
     999902    2    1    2    0    0 -0.38089167483E-02 -0.57786805146E-04 -0.13092852447E-01  0.10302942392E+01  0.10302040019E+01 0.  0.
     999903    2    3    3    0    0 -0.70039776688E-01 -0.11158298335E-02 -0.11486181933E+00  0.14195614545E+00  0.45293424441E-01 0.  0.
         14    1    1    2    0    0  0.38089167483E-02  0.57786805146E-04  0.13092852447E-01  0.13635760753E-01  0.00000000000E+00 0.  1.
     999901    1    3    3    0    0  0.66230859940E-01  0.10580430284E-02  0.10176896688E+00  0.88833809379E+00  0.88000000000E+00 0. -1.
        -11    1    4    4    0    0 -0.60563453114E-01  0.13198842796E-01 -0.10558511531E+00  0.12243618338E+00  0.51100000000E-03 0. -1.
         11    1    4    4    0    0 -0.94763235740E-02 -0.14314672629E-01 -0.92767040205E-02  0.19519962076E-01  0.51100000000E-03 0.  1.
</event>
<event>
 8    1  0.2924722E+004  0.1043930E+01  0.7957747E-01            NaN
         13   -1    0    0    0    0  0.00000000000E+00  0.00000000000E+00  0.74505805969E-08  0.10566000000E+00  0.10566000000E+00 0. -1.
     999900   -1    0    0    0    0 -0.00000000000E+00 -0.00000000000E+00 -0.74505805969E-08  0.93827000000E+00  0.93827000000E+00 0.  1.
     999902    2    1    2    0    0 -0.13336170387E-02 -0.10910726080E-01 -0.19819516379E-01  0.10212664675E+01  0.10210149665E+01 0.  0.
     999903    2    3    3    0    0  0.86112311738E-01 -0.84019679618E-01 -0.37474000218E-01  0.13373990991E+00  0.44804307986E-01 0.  0.
         14    1    1    2    0    0  0.13336170387E-02  0.10910726080E-01  0.19819516379E-01  0.22663532547E-01  0.00000000000E+00 0. -1.
     999901    1    3    3    0    0 -0.87445928777E-01  0.73108953537E-01  0.17654483839E-01  0.88752655754E+00  0.88000000000E+00 0. -1.
        -11    1    4    4    0    0  0.39774352186E-01 -0.50080576045E-01 -0.41367675183E-01  0.76168293009E-01  0.51100000000E-03 0. -1.
         11    1    4    4    0    0  0.46337959552E-01 -0.33939103573E-01  0.38936749646E-02  0.57571616900E-01  0.51100000000E-03 0.  1.
</event>
<event>
 8    1  0.2924722E+004  0.1043930E+01  0.7957747E-01            NaN
         13   -1    0    0    0    0  0.00000000000E+00  0.00000000000E+00  0.74505805969E-08  0.10566000000E+00  0.10566000000E+00 0.  1.
     999900   -1    0    0    0    0 -0.00000000000E+00 -0.00000000000E+00 -0.74505805969E-08  0.93827000000E+00  0.93827000000E+00 0.  1.
     999902    2    1    2    0    0  0.25867501591E-02  0.11482701900E-01 -0.85260647883E-02  0.10293959882E+01  0.10292933804E+01 0.  0.
     999903    2    3    3    0    0  0.11861427630E+00 -0.12567307441E-01 -0.58267791007E-01  0.14006195131E+00  0.44664650223E-01 0.  0.
         14    1    1    2    0    0 -0.25867501591E-02 -0.11482701900E-01  0.85260647883E-02  0.14534011837E-01  0.00000000000E+00 0.  1.
     999901    1    3    3    0    0 -0.11602752614E+00  0.24050009341E-01  0.49741726219E-01  0.88933403685E+00  0.88000000000E+00 0. -1.
        -11    1    4    4    0    0  0.38572375301E-01 -0.25482265133E-01 -0.19181706403E-01  0.50053700704E-01  0.51100000000E-03 0. -1.
         11    1    4    4    0    0  0.80041900995E-01  0.12914957693E-01 -0.39086084604E-01  0.90008250609E-01  0.51100000000E-03 0.  1.
</event>
<event>
 8    1  0.2924722E+004  0.1043930E+01  0.7957747E-01            NaN
         13   -1    0    0    0    0  0.00000000000E+00  0.00000000000E+00  0.74505805969E-08  0.10566000000E+00  0.10566000000E+00 0. -1.
     999900   -1    0    0    0    0 -0.00000000000E+00 -0.00000000000E+00 -0.74505805969E-08  0.93827000000E+00  0.93827000000E+00 0.  1.
     999902    2    1    2    0    0  0.18934792240E-02  0.22749586099E-02 -0.11761387823E-01  0.10318018945E+01  0.10317306133E+01 0.  0.
     999903    2    3    3    0    0 -0.14001783578E-01  0.13382696454E+00 -0.48257495046E-02  0.14185431583E+00  0.44650337951E-01 0.  0.
         14    1    1    2    0    0 -0.18934792240E-02 -0.22749586099E-02  0.11761387823E-01  0.12128105531E-01  0.00000000000E+00 0. -1.
     999901    1    3    3    0    0  0.15895262802E-01 -0.13155200593E+00 -0.69356383182E-02  0.88994757864E+00  0.88000000000E+00 0.  1.
        -11    1    4    4    0    0 -0.10934247989E-01  0.93457869407E-02  0.83488398871E-02  0.16639283671E-01  0.51100000000E-03 0. -1.
         11    1    4    4    0    0 -0.30675355887E-02  0.12448117760E+00 -0.13174589392E-01  0.12521503216E+00  0.51100000000E-03 0.  1.
</event>
<event>
 8    1  0.2924722E+004  0.1043930E+01  0.7957747E-01            NaN
         13   -1    0    0    0    0  0.00000000000E+00  0.00000000000E+00  0.74505805969E-08  0.10566000000E+00  0.10566000000E+00 0. -1.
     999900   -1    0    0    0    0 -0.00000000000E+00 -0.00000000000E+00 -0.74505805969E-08  0.93827000000E+00  0.93827000000E+00 0. -1.
     999902    2    1    2    0    0  0.31994493643E-02 -0.10489539941E-01 -0.66689271331E-02  0.10310948329E+01  0.10310149431E+01 0.  0.
     999903    2    3    3    0    0 -0.13019990380E+00 -0.38761124875E-02 -0.28725483082E-01  0.14074343236E+00  0.44905692048E-01 0.  0.
         14    1    1    2    0    0 -0.31994493643E-02  0.10489539941E-01  0.66689271331E-02  0.12835167062E-01  0.00000000000E+00 0. -1.
     999901    1    3    3    0    0  0.13339935316E+00 -0.66134274534E-02  0.22056555949E-01  0.89035140058E+00  0.88000000000E+00 0. -1.
        -11    1    4    4    0    0 -0.73143161350E-01  0.20056994844E-01 -0.17896917310E-01  0.77927953038E-01  0.51100000000E-03 0. -1.
         11    1    4    4    0    0 -0.57056742446E-01 -0.23933107332E-01 -0.10828565772E-01  0.62815479325E-01  0.51100000000E-03 0.  1.
</event>
<event>
 8    1  0.2924722E+004  0.1043930E+01  0.7957747E-01            NaN
         13   -1    0    0    0    0  0.00000000000E+00  0.00000000000E+00  0.74505805969E-08  0.10566000000E+00  0.10566000000E+00 0. -1.
     999900   -1    0    0    0    0 -0.00000000000E+00 -0.00000000000E+00 -0.74505805969E-08  0.93827000000E+00  0.93827000000E+00 0.  1.
     999902    2    1    2    0    0  0.20748057969E-01  0.22619724606E-02 -0.37133123142E-02  0.10227312473E+01  0.10225115242E+01 0.  0.
     999903    2    3    3    0    0 -0.23600924346E-01 -0.12271295473E+00  0.76877084947E-02  0.13272251252E+00  0.44053281135E-01 0.  0.
         14    1    1    2    0    0 -0.20748057969E-01 -0.22619724606E-02  0.37133123142E-02  0.21198752728E-01  0.00000000000E+00 0. -1.
     999901    1    3    3    0    0  0.44348982314E-01  0.12497492719E+00 -0.11401020809E-01  0.89000873475E+00  0.88000000000E+00 0. -1.
        -11    1    4    4    0    0  0.56156909648E-02 -0.60044874252E-01  0.17706250184E-01  0.62854556919E-01  0.51100000000E-03 0.  1.
         11    1    4    4    0    0 -0.29216615311E-01 -0.62668080480E-01 -0.10018541690E-01  0.69867955601E-01  0.51100000000E-03 0. -1.
</event>
<event>
 8    1  0.2924722E+004  0.1043930E+01  0.7957747E-01            NaN
         13   -1    0    0    0    0  0.00000000000E+00  0.00000000000E+00  0.74505805969E-08  0.10566000000E+00  0.10566000000E+00 0. -1.
     999900   -1    0    0    0    0 -0.00000000000E+00 -0.00000000000E+00 -0.74505805969E-08  0.93827000000E+00  0.93827000000E+00 0.  1.
     999902    2    1    2    0    0  0.80102004192E-02  0.24084690279E-02  0.11472367940E-01  0.10297321389E+01  0.10296342548E+01 0.  0.
     999903    2    3    3    0    0 -0.42538917683E-01 -0.12649541489E-01  0.12699956405E+00  0.14061544798E+00  0.40917533215E-01 0.  0.
         14    1    1    2    0    0 -0.80102004192E-02 -0.24084690279E-02 -0.11472367940E-01  0.14197861105E-01  0.00000000000E+00 0.  1.
     999901    1    3    3    0    0  0.50549118103E-01  0.15058010517E-01 -0.11552719611E+00  0.88911669091E+00  0.88000000000E+00 0.  1.
        -11    1    4    4    0    0 -0.13452724407E-01  0.11073619751E-01  0.71634319353E-01  0.73724742648E-01  0.51100000000E-03 0.  1.
         11    1    4    4    0    0 -0.29086193277E-01 -0.23723161240E-01  0.55365244697E-01  0.66890705333E-01  0.51100000000E-03 0. -1.
</event>
<event>
 8    1  0.2924722E+004  0.1043930E+01  0.7957747E-01            NaN
         13   -1    0    0    0    0  0.00000000000E+00  0.00000000000E+00  0.74505805969E-08  0.10566000000E+00  0.10566000000E+00 0.  1.
     999900   -1    0    0    0    0 -0.00000000000E+00 -0.00000000000E+00 -0.74505805969E-08  0.93827000000E+00  0.93827000000E+00 0. -1.
     999902    2    1    2    0    0  0.16982468850E-01 -0.89954138878E-02 -0.87266044860E-03  0.10246924519E+01  0.10245118534E+01 0.  0.
     999903    2    3    3    0    0  0.90660802561E-01  0.90852760943E-01 -0.21738144092E-02  0.13598561170E+00  0.44874890855E-01 0.  0.
         14    1    1    2    0    0 -0.16982468850E-01  0.89954138878E-02  0.87266044860E-03  0.19237548064E-01  0.00000000000E+00 0. -1.
     999901    1    3    3    0    0 -0.73678333712E-01 -0.99848174831E-01  0.13011539606E-02  0.88870684023E+00  0.88000000000E+00 0. -1.
        -11    1    4    4    0    0  0.34659308442E-01  0.24443107098E-01  0.19146831040E-01  0.46535958206E-01  0.51100000000E-03 0.  1.
         11    1    4    4    0    0  0.56001494119E-01  0.66409653845E-01 -0.21320645449E-01  0.89449653497E-01  0.51100000000E-03 0. -1.
</event>
<event>
 8    1  0.2924722E+004  0.1043930E+01  0.7957747E-01            NaN
         13   -1    0    0    0    0  0.00000000000E+00  0.00000000000E+00  0.74505805969E-08  0.10566000000E+00  0.10566000000E+00 0.  1.
     999900   -1    0    0    0    0 -0.00000000000E+00 -0.00000000000E+00 -0.74505805969E-08  0.93827000000E+00  0.93827000000E+00 0. -1.
     999902    2    1    2    0    0 -0.70046647031E-02  0.66937809260E-02 -0.12725522926E-01  0.10279359085E+01  0.10278114715E+01 0.  0.
     999903    2    3    3    0    0  0.12215222316E+00  0.18344872712E-01 -0.40100131140E-01  0.13801084487E+00  0.46704098386E-01 0.  0.
         14    1    1    2    0    0  0.70046647031E-02 -0.66937809260E-02  0.12725522926E-01  0.15994091547E-01  0.00000000000E+00 0.  1.
     999901    1    3    3    0    0 -0.12915688786E+00 -0.11651091786E-01  0.27374608215E-01  0.88992506359E+00  0.88000000000E+00 0.  1.
        -11    1    4    4    0    0  0.77991048541E-01  0.54697616581E-02 -0.18868552020E-02  0.78207053957E-01  0.51100000000E-03 0. -1.
         11    1    4    4    0    0  0.44161174618E-01  0.12875111054E-01 -0.38213275938E-01  0.59803790911E-01  0.51100000000E-03 0.  1.
</event>
<event>
 8    1  0.2924722E+004  0.1043930E+01  0.7957747E-01            NaN
         13   -1    0    0    0    0  0.00000000000E+00  0.00000000000E+00  0.74505805969E-08  0.10566000000E+00  0.10566000000E+00 0. -1.
     999900   -1    0    0    0    0 -0.00000000000E+00 -0.00000000000E+00 -0.74505805969E-08  0.93827000000E+00  0.93827000000E+00 0. -1.
     999902    2    1    2    0    0 -0.68866257820E-02  0.83765274720E-02  0.89238324449E-02  0.10298862607E+01  0.10297905046E+01 0.  0.
     999903    2    3    3    0    0  0.11619675222E+00  0.56522075390E-01  0.29287385424E-01  0.13978391492E+00  0.44557397728E-01 0.  0.
         14    1    1    2    0    0  0.68866257820E-02 -0.83765274720E-02 -0.89238324449E-02  0.14043739269E-01  0.00000000000E+00 0. -1.
     999901    1    3    3    0    0 -0.12308337801E+00 -0.48145547918E-01 -0.20363552979E-01  0.89010234581E+00  0.88000000000E+00 0. -1.
        -11    1    4    4    0    0  0.54940119063E-01  0.49615930472E-01  0.24384502107E-01  0.77942429416E-01  0.51100000000E-03 0. -1.
         11    1    4    4    0    0  0.61256633160E-01  0.69061449178E-02  0.49028833163E-02  0.61841485506E-01  0.51100000000E-03 0.  1.
</event>
<event>
 8    1  0.2924722E+004  0.1043930E+01  0.7957747E-01            NaN
         13   -1    0    0    0    0  0.00000000000E+00  0.00000000000E+00  0.74505805969E-08  0.10566000000E+00  0.10566000000E+00 0. -1.
     999900   -1    0    0    0    0 -0.00000000000E+00 -0.00000000000E+00 -0.74505805969E-08  0.93827000000E+00  0.93827000000E+00 0.  1.
     999902    2    1    2    0    0  0.12718915942E-01 -0.31167504183E-02 -0.10255415447E-02  0.10307946777E+01  0.10307109832E+01 0.  0.
     999903    2    3    3    0    0 -0.13178018456E+00 -0.11518377244E-01  0.86787218214E-02  0.13891758411E+00  0.41522101413E-01 0.  0.
         14    1    1    2    0    0 -0.12718915942E-01  0.31167504183E-02  0.10255415447E-02  0.13135322279E-01  0.00000000000E+00 0.  1.
     999901    1    3    3    0    0  0.14449910050E+00  0.84016268260E-02 -0.97042633660E-02  0.89187709361E+00  0.88000000000E+00 0.  1.
        -11    1    4    4    0    0 -0.72411865244E-01  0.43289150864E-02  0.22463370573E-01  0.75941305443E-01  0.51100000000E-03 0.  1.
         11    1    4    4    0    0 -0.59368319316E-01 -0.15847292331E-01 -0.13784648751E-01  0.62976278668E-01  0.51100000000E-03 0. -1.
</event>
<event>
 8    1  0.2924722E+004  0.1043930E+01  0.7957747E-01            NaN
         13   -1    0    0    0    0  0.00000000000E+00  0.00000000000E+00  0.74505805969E-08  0.10566000000E+00  0.10566000000E+00 0.  1.
     999900   -1    0    0    0    0 -0.00000000000E+00 -0.00000000000E+00 -0.74505805969E-08  0.93827000000E+00  0.93827000000E+00 0. -1.
     999902    2    1    2    0    0 -0.14123192505E-02 -0.14094479288E-01  0.46708723612E-02  0.10290147045E+01  0.10289066022E+01 0.  0.
     999903    2    3    3    0    0 -0.51114379994E-01 -0.94383025457E-01  0.78881042009E-01  0.14085723264E+00  0.45800719019E-01 0.  0.
         14    1    1    2    0    0  0.14123192505E-02  0.14094479288E-01 -0.46708723612E-02  0.14915295528E-01  0.00000000000E+00 0. -1.
     999901    1    3    3    0    0  0.49702060744E-01  0.80288546169E-01 -0.74210169648E-01  0.88815747183E+00  0.88000000000E+00 0. -1.
        -11    1    4    4    0    0 -0.27423513421E-01 -0.75502985094E-01  0.35217403468E-01  0.87711324665E-01  0.51100000000E-03 0.  1.
         11    1    4    4    0    0 -0.23690866573E-01 -0.18880040363E-01  0.43663638541E-01  0.53145907977E-01  0.51100000000E-03 0. -1.
</event>
<event>
 8    1  0.2924722E+004  0.1043930E+01  0.7957747E-01            NaN
         13   -1    0    0    0    0  0.00000000000E+00  0.00000000000E+00  0.74505805969E-08  0.10566000000E+00  0.10566000000E+00 0. -1.
     999900   -1    0    0    0    0 -0.00000000000E+00 -0.00000000000E+00 -0.74505805969E-08  0.93827000000E+00  0.93827000000E+00 0.  1.
     999902    2    1    2    0    0 -0.11344989215E-01  0.52687069230E-02 -0.53918138544E-02  0.10303087038E+01  0.10302186591E+01 0.  0.
     999903    2    3    3    0    0  0.97858963523E-02 -0.16550836245E-01  0.13048817302E+00  0.13936202886E+00  0.44999087119E-01 0.  0.
         14    1    1    2    0    0  0.11344989215E-01 -0.52687069230E-02  0.53918138544E-02  0.13621296178E-01  0.00000000000E+00 0. -1.
     999901    1    3    3    0    0 -0.21130885567E-01  0.21819543168E-01 -0.13587998688E+00  0.89094667496E+00  0.88000000000E+00 0.  1.
        -11    1    4    4    0    0 -0.73738244787E-02 -0.20697052343E-01  0.29204107972E-01  0.36549723755E-01  0.51100000000E-03 0. -1.
         11    1    4    4    0    0  0.17159720831E-01  0.41462160979E-02  0.10128406505E+00  0.10281230511E+00  0.51100000000E-03 0.  1.
</event>
<event>
 8    1  0.2924722E+004  0.1043930E+01  0.7957747E-01            NaN
         13   -1    0    0    0    0  0.00000000000E+00  0.00000000000E+00  0.74505805969E-08  0.10566000000E+00  0.10566000000E+00 0. -1.
     999900   -1    0    0    0    0 -0.00000000000E+00 -0.00000000000E+00 -0.74505805969E-08  0.93827000000E+00  0.93827000000E+00 0. -1.
     999902    2    1    2    0    0 -0.20370133501E-02  0.11587242203E-01 -0.73465176033E-02  0.10300597107E+01  0.10299663211E+01 0.  0.
     999903    2    3    3    0    0 -0.95495211447E-01  0.93970853872E-01  0.98242280811E-02  0.14111858283E+00  0.43221316207E-01 0.  0.
         14    1    1    2    0    0  0.20370133501E-02 -0.11587242203E-01  0.73465176033E-02  0.13870289332E-01  0.00000000000E+00 0. -1.
     999901    1    3    3    0    0  0.93458198097E-01 -0.82383611669E-01 -0.17170745684E-01  0.88894112784E+00  0.88000000000E+00 0.  1.
        -11    1    4    4    0    0 -0.39824373959E-01  0.55242278501E-01 -0.13448429157E-01  0.69417659591E-01  0.51100000000E-03 0.  1.
         11    1    4    4    0    0 -0.55670837487E-01  0.38728575370E-01  0.23272657238E-01  0.71700923235E-01  0.51100000000E-03 0. -1.
</event>
<event>
 8    1  0.2924722E+004  0.1043930E+01  0.7957747E-01            NaN
         13   -1    0    0    0    0  0.00000000000E+00  0.00000000000E+00  0.74505805969E-08  0.10566000000E+00  0.10566000000E+00 0.  1.
     999900   -1    0    0    0    0 -0.00000000000E+00 -0.00000000000E+00 -0.74505805969E-08  0.93827000000E+00  0.93827000000E+00 0.  1.
     999902    2    1    2    0    0 -0.52793977761E-03 -0.11927800932E-01 -0.77116028199E-02  0.10297166269E+01  0.10296185273E+01 0.  0.
     999903    2    3    3    0    0 -0.12415720100E+00  0.20990275777E-01 -0.41562556289E-01  0.13982130667E+00  0.44350304117E-01 0.  0.
         14    1    1    2    0    0  0.52793977761E-03  0.11927800932E-01  0.77116028199E-02  0.14213373052E-01  0.00000000000E+00 0.  1.
     999901    1    3    3    0    0  0.12362926122E+00 -0.32918076709E-01  0.33850953469E-01  0.88989532028E+00  0.88000000000E+00 0.  1.
        -11    1    4    4    0    0 -0.77499518397E-01  0.39937907187E-02 -0.42762034898E-02  0.77721764991E-01  0.51100000000E-03 0. -1.
         11    1    4    4    0    0 -0.46657682605E-01  0.16996485059E-01 -0.37286352799E-01  0.62099541677E-01  0.51100000000E-03 0.  1.
</event>
<event>
 8    1  0.2924722E+004  0.1043930E+01  0.7957747E-01            NaN
         13   -1    0    0    0    0  0.00000000000E+00  0.00000000000E+00  0.74505805969E-08  0.10566000000E+00  0.10566000000E+00 0. -1.
     999900   -1    0    0    0    0 -0.00000000000E+00 -0.00000000000E+00 -0.74505805969E-08  0.93827000000E+00  0.93827000000E+00 0. -1.
     999902    2    1    2    0    0 -0.14889048644E-01  0.99334293357E-02 -0.16308025201E-01  0.10197161925E+01  0.10194286659E+01 0.  0.
     999903    2    3    3    0    0  0.54560181201E-01 -0.18341126968E-01 -0.10964167072E+00  0.13160932086E+00  0.44570248691E-01 0.  0.
         14    1    1    2    0    0  0.14889048644E-01 -0.99334293357E-02  0.16308025201E-01  0.24213807504E-01  0.00000000000E+00 0.  1.
     999901    1    3    3    0    0 -0.69449229845E-01  0.28274556304E-01  0.93333645517E-01  0.88810687164E+00  0.88000000000E+00 0.  1.
        -11    1    4    4    0    0  0.15425048699E-01 -0.41733907531E-02 -0.18919471450E-02  0.16099375849E-01  0.51100000000E-03 0. -1.
         11    1    4    4    0    0  0.39135132502E-01 -0.14167736215E-01 -0.10774972357E+00  0.11550994501E+00  0.51100000000E-03 0.  1.
</event>
<event>
 8    1  0.2924722E+004  0.1043930E+01  0.7957747E-01            NaN
         13   -1    0    0    0    0  0.00000000000E+00  0.00000000000E+00  0.74505805969E-08  0.10566000000E+00  0.10566000000E+00 0.  1.
     999900   -1    0    0    0    0 -0.00000000000E+00 -0.00000000000E+00 -0.74505805969E-08  0.93827000000E+00  0.93827000000E+00 0.  1.
     999902    2    1    2    0    0 -0.61825849507E-02  0.81278354669E-02 -0.94335469291E-02  0.10300275587E+01  0.10299337327E+01 0.  0.
     999903    2    3    3    0    0  0.43949961120E-01 -0.11192416805E+00 -0.54427280747E-01  0.13932548068E+00  0.44616613520E-01 0.  0.
         14    1    1    2    0    0  0.61825849507E-02 -0.81278354669E-02  0.94335469291E-02  0.13902441286E-01  0.00000000000E+00 0.  1.
     999901    1    3    3    0    0 -0.50132546070E-01  0.12005200352E+00  0.44993733818E-01  0.89070207803E+00  0.88000000000E+00 0. -1.
        -11    1    4    4    0    0  0.26275623636E-01 -0.17635593335E-01 -0.19813311242E-01  0.37339670234E-01  0.51100000000E-03 0. -1.
         11    1    4    4    0    0  0.17674337483E-01 -0.94288574715E-01 -0.34613969505E-01  0.10198581045E+00  0.51100000000E-03 0.  1.
</event>
<event>
 8    1  0.2924722E+004  0.1043930E+01  0.7957747E-01            NaN
         13   -1    0    0    0    0  0.00000000000E+00  0.00000000000E+00  0.74505805969E-08  0.10566000000E+00  0.10566000000E+00 0. -1.
     999900   -1    0    0    0    0 -0.00000000000E+00 -0.00000000000E+00 -0.74505805969E-08  0.93827000000E+00  0.93827000000E+00 0.  1.
     999902    2    1    2    0    0 -0.14929435381E-01 -0.66030552316E-02 -0.19907553393E-02  0.10274845907E+01  0.10273529738E+01 0.  0.
     999903    2    3    3    0    0 -0.82500044587E-01  0.47375657101E-01 -0.90340994715E-01  0.13884222543E+00  0.45441808868E-01 0.  0.
         14    1    1    2    0    0  0.14929435381E-01  0.66030552316E-02  0.19907553393E-02  0.16445409268E-01  0.00000000000E+00 0. -1.
     999901    1    3    3    0    0  0.67570609206E-01 -0.53978712333E-01  0.88350239376E-01  0.88864236530E+00  0.88000000000E+00 0. -1.
        -11    1    4    4    0    0 -0.86486029325E-01  0.38844724930E-01 -0.75234555475E-01  0.12103406703E+00  0.51100000000E-03 0.  1.
         11    1    4    4    0    0  0.39859847377E-02  0.85309321713E-02 -0.15106439240E-01  0.17808158399E-01  0.51100000000E-03 0. -1.
</event>
<event>
 8    1  0.2924722E+004  0.1043930E+01  0.7957747E-01            NaN
         13   -1    0    0    0    0  0.00000000000E+00  0.00000000000E+00  0.74505805969E-08  0.10566000000E+00  0.10566000000E+00 0.  1.
     999900   -1    0    0    0    0 -0.00000000000E+00 -0.00000000000E+00 -0.74505805969E-08  0.93827000000E+00  0.93827000000E+00 0.  1.
     999902    2    1    2    0    0 -0.13318270378E-01 -0.48880309992E-03 -0.40480514146E-02  0.10300015408E+01  0.10299073610E+01 0.  0.
     999903    2    3    3    0    0  0.43232335508E-01  0.10230303428E+00 -0.71056720013E-01  0.13969019388E+00  0.46144849673E-01 0.  0.
         14    1    1    2    0    0  0.13318270378E-01  0.48880309992E-03  0.40480514146E-02  0.13928459161E-01  0.00000000000E+00 0. -1.
     999901    1    3    3    0    0 -0.56550605886E-01 -0.10279183738E+00  0.67008668598E-01  0.89031134696E+00  0.88000000000E+00 0.  1.
        -11    1    4    4    0    0  0.29354299478E-01  0.25633491405E-01 -0.39894476037E-01  0.55772583935E-01  0.51100000000E-03 0. -1.
         11    1    4    4    0    0  0.13878036030E-01  0.76669542872E-01 -0.31162243976E-01  0.83917609945E-01  0.51100000000E-03 0.  1.
</event>
<event>
 7    1  0.2924722E+004  0.1043930E+01  0.7957747E-01            NaN
         13   -1    0    0    0    0  0.00000000000E+00  0.00000000000E+00  0.74505805969E-08  0.10566000000E+00  0.10566000000E+00 0.  1.
     999900   -1    0    0    0    0 -0.00000000000E+00 -0.00000000000E+00 -0.74505805969E-08  0.93827000000E+00  0.93827000000E+00 0.  1.
     999903    2    1    2    0    0 -0.10845400104E+00  0.10055678678E-01  0.44889807358E-01  0.12614542050E+00  0.45101943339E-01 0.  0.
         14    1    1    2    0    0  0.27928259971E-01 -0.16857489406E-01 -0.64037909167E-02  0.33244115151E-01  0.00000000000E+00 0. -1.
     999901    1    1    2    0    0  0.80525741073E-01  0.68018107282E-02 -0.38486016441E-01  0.88454046435E+00  0.88000000000E+00 0.  1.
        -11    1    3    3    0    0 -0.69024230237E-01  0.27531335022E-01  0.33621383132E-01  0.81565785061E-01  0.51100000000E-03 0. -1.
         11    1    3    3    0    0 -0.39429770807E-01 -0.17475656344E-01  0.11268424227E-01  0.44579635442E-01  0.51100000000E-03 0.  1.
</event>
<event>
 8    1  0.2924722E+004  0.1043930E+01  0.7957747E-01            NaN
         13   -1    0    0    0    0  0.00000000000E+00  0.00000000000E+00  0.74505805969E-08  0.10566000000E+00  0.10566000000E+00 0.  1.
     999900   -1    0    0    0    0 -0.00000000000E+00 -0.00000000000E+00 -0.74505805969E-08  0.93827000000E+00  0.93827000000E+00 0. -1.
     999902    2    1    2    0    0  0.99969697745E-02  0.97160138458E-02 -0.33300792788E-02  0.10295971790E+01  0.10294974120E+01 0.  0.
     999903    2    3    3    0    0  0.41407211195E-01 -0.12311747636E+00  0.21163271031E-01  0.13873733391E+00  0.43905508250E-01 0.  0.
         14    1    1    2    0    0 -0.99969697745E-02 -0.97160138458E-02  0.33300792788E-02  0.14332820997E-01  0.00000000000E+00 0.  1.
     999901    1    3    3    0    0 -0.31410241420E-01  0.13283349021E+00 -0.24493350310E-01  0.89085984509E+00  0.88000000000E+00 0.  1.
        -11    1    4    4    0    0  0.20167822423E-01 -0.80946263861E-01  0.33554890876E-01  0.89917909879E-01  0.51100000000E-03 0.  1.
         11    1    4    4    0    0  0.21239388772E-01 -0.42171212504E-01 -0.12391619845E-01  0.48819424032E-01  0.51100000000E-03 0. -1.
</event>
<event>
 8    1  0.2924722E+004  0.1043930E+01  0.7957747E-01            NaN
         13   -1    0    0    0    0  0.00000000000E+00  0.00000000000E+00  0.74505805969E-08  0.10566000000E+00  0.10566000000E+00 0. -1.
     999900   -1    0    0    0    0 -0.00000000000E+00 -0.00000000000E+00 -0.74505805969E-08  0.93827000000E+00  0.93827000000E+00 0.  1.
     999902    2    1    2    0    0 -0.21237215439E-02 -0.95126099255E-02 -0.73652435893E-02  0.10317133411E+01  0.10316410090E+01 0.  0.
     999903    2    3    3    0    0 -0.69306399523E-01 -0.10355580131E+00 -0.53724110482E-01  0.14294634208E+00  0.44946586808E-01 0.  0.
         14    1    1    2    0    0  0.21237215439E-02  0.95126099255E-02  0.73652435893E-02  0.12216658869E-01  0.00000000000E+00 0. -1.
     999901    1    3    3    0    0  0.67182677979E-01  0.94043191388E-01  0.46358866892E-01  0.88876699905E+00  0.88000000000E+00 0. -1.
        -11    1    4    4    0    0 -0.46847688194E-01 -0.98053121056E-01 -0.38652259760E-01  0.11534027373E+00  0.51100000000E-03 0.  1.
         11    1    4    4    0    0 -0.22458711329E-01 -0.55026802580E-02 -0.15071850721E-01  0.27606068350E-01  0.51100000000E-03 0. -1.
</event>
<event>
 7    1  0.2924722E+004  0.1043930E+01  0.7957747E-01            NaN
         13   -1    0    0    0    0  0.00000000000E+00  0.00000000000E+00  0.74505805969E-08  0.10566000000E+00  0.10566000000E+00 0.  1.
     999900   -1    0    0    0    0 -0.00000000000E+00 -0.00000000000E+00 -0.74505805969E-08  0.93827000000E+00  0.93827000000E+00 0. -1.
     999902    2    1    2    0    0 -0.21701184339E-02 -0.81647362498E-02  0.10447158317E-01  0.10304943962E+01  0.10304068057E+01 0.  0.
         14    1    1    2    0    0  0.21701184339E-02  0.81647362498E-02 -0.10447158317E-01  0.13435603781E-01  0.00000000000E+00 0. -1.
     999901    1    3    3    0    0  0.64555887438E-01 -0.90751728580E-01  0.94930185757E-01  0.89208468152E+00  0.88000000000E+00 0.  1.
        -11    1    3    3    0    0 -0.38767752019E-01  0.66886122962E-01 -0.55334656219E-01  0.95073010583E-01  0.51100000000E-03 0.  1.
         11    1    3    3    0    0 -0.27958253853E-01  0.15700869368E-01 -0.29148371220E-01  0.43336704111E-01  0.51100000000E-03 0. -1.
</event>
<event>
 8    1  0.2924722E+004  0.1043930E+01  0.7957747E-01            NaN
         13   -1    0    0    0    0  0.00000000000E+00  0.00000000000E+00  0.74505805969E-08  0.10566000000E+00  0.10566000000E+00 0. -1.
     999900   -1    0    0    0    0 -0.00000000000E+00 -0.00000000000E+00 -0.74505805969E-08  0.93827000000E+00  0.93827000000E+00 0. -1.
     999902    2    1    2    0    0 -0.60908352294E-02  0.11994610161E-01 -0.41676563779E-02  0.10298467367E+01  0.10297504371E+01 0.  0.
     999903    2    3    3    0    0  0.12098623622E+00 -0.32034432593E-01 -0.39791479197E-01  0.13891677564E+00  0.45283932147E-01 0.  0.
         14    1    1    2    0    0  0.60908352294E-02 -0.11994610161E-01  0.41676563779E-02  0.14083263343E-01  0.00000000000E+00 0. -1.
     999901    1    3    3    0    0 -0.12707707145E+00  0.44029042754E-01  0.35623822819E-01  0.89092996102E+00  0.88000000000E+00 0. -1.
        -11    1    4    4    0    0  0.11109870804E+00 -0.23626277585E-01 -0.20133291158E-01  0.11535481982E+00  0.51100000000E-03 0.  1.
         11    1    4    4    0    0  0.98875281767E-02 -0.84081550082E-02 -0.19658188039E-01  0.23561955820E-01  0.51100000000E-03 0. -1.
</event>
<event>
 8    1  0.2924722E+004  0.1043930E+01  0.7957747E-01            NaN
         13   -1    0    0    0    0  0.00000000000E+00  0.00000000000E+00  0.74505805969E-08  0.10566000000E+00  0.10566000000E+00 0.  1.
     999900   -1    0    0    0    0 -0.00000000000E+00 -0.00000000000E+00 -0.74505805969E-08  0.93827000000E+00  0.93827000000E+00 0.  1.
     999902    2    1    2    0    0 -0.82690518307E-02 -0.10010191947E-01 -0.58857278304E-02  0.10296743712E+01  0.10295756833E+01 0.  0.
     999903    2    3    3    0    0 -0.77437472751E-01 -0.50075459808E-01  0.95873440530E-01  0.14021137336E+00  0.44310255695E-01 0.  0.
         14    1    1    2    0    0  0.82690518307E-02  0.10010191947E-01  0.58857278304E-02  0.14255628821E-01  0.00000000000E+00 0. -1.
     999901    1    3    3    0    0  0.69168420920E-01  0.40065267861E-01 -0.10175916836E+00  0.88946299782E+00  0.88000000000E+00 0.  1.
        -11    1    4    4    0    0 -0.34368876281E-01 -0.15224356874E-01  0.11574537085E-01  0.39334866579E-01  0.51100000000E-03 0. -1.
         11    1    4    4    0    0 -0.43068596470E-01 -0.34851102934E-01  0.84298903445E-01  0.10087650678E+00  0.51100000000E-03 0.  1.
</event>
<event>
 8    1  0.2924722E+004  0.1043930E+01  0.7957747E-01            NaN
         13   -1    0    0    0    0  0.00000000000E+00  0.00000000000E+00  0.74505805969E-08  0.10566000000E+00  0.10566000000E+00 0.  1.
     999900   -1    0    0    0    0 -0.00000000000E+00 -0.00000000000E+00 -0.74505805969E-08  0.93827000000E+00  0.93827000000E+00 0.  1.
     999902    2    1    2    0    0  0.81337244179E-02 -0.10529893869E-01  0.43689555981E-02  0.10299255753E+01  0.10298303582E+01 0.  0.
     999903    2    3    3    0    0  0.61335735688E-01 -0.47980937614E-01  0.10902401528E+00  0.14133921699E+00  0.45014392186E-01 0.  0.
         14    1    1    2    0    0 -0.81337244179E-02  0.10529893869E-01 -0.43689555981E-02  0.14004424687E-01  0.00000000000E+00 0. -1.
     999901    1    3    3    0    0 -0.53202011270E-01  0.37451043744E-01 -0.10465505969E+00  0.88858635832E+00  0.88000000000E+00 0.  1.
        -11    1    4    4    0    0  0.30771115230E-01 -0.35535354565E-01  0.30174009668E-01  0.55860137280E-01  0.51100000000E-03 0.  1.
         11    1    4    4    0    0  0.30564620458E-01 -0.12445583048E-01  0.78850005616E-01  0.85479079709E-01  0.51100000000E-03 0. -1.
</event>
<event>
 8    1  0.2924722E+004  0.1043930E+01  0.7957747E-01            NaN
         13   -1    0    0    0    0  0.00000000000E+00  0.00000000000E+00  0.74505805969E-08  0.10566000000E+00  0.10566000000E+00 0.  1.
     999900   -1    0    0    0    0 -0.00000000000E+00 -0.00000000000E+00 -0.74505805969E-08  0.93827000000E+00  0.93827000000E+00 0. -1.
     999902    2    1    2    0    0  0.51127464444E-02 -0.12864674848E-01 -0.14829316407E-02  0.10300073881E+01  0.10299132878E+01 0.  0.
     999903    2    3    3    0    0  0.99484641061E-02 -0.68687446031E-01 -0.11369063942E+00  0.14111474240E+00  0.46592615812E-01 0.  0.
         14    1    1    2    0    0 -0.51127464444E-02  0.12864674848E-01  0.14829316407E-02  0.13922611874E-01  0.00000000000E+00 0. -1.
     999901    1    3    3    0    0 -0.48357176617E-02  0.55822771183E-01  0.11220770778E+00  0.88889264573E+00  0.88000000000E+00 0.  1.
        -11    1    4    4    0    0 -0.76137830248E-02 -0.53431545700E-01 -0.51049189126E-01  0.74291187898E-01  0.51100000000E-03 0.  1.
         11    1    4    4    0    0  0.17562247131E-01 -0.15255900331E-01 -0.62641450298E-01  0.66823554497E-01  0.51100000000E-03 0. -1.
</event>
<event>
 8    1  0.2924722E+004  0.1043930E+01  0.7957747E-01            NaN
         13   -1    0    0    0    0  0.00000000000E+00  0.00000000000E+00  0.74505805969E-08  0.10566000000E+00  0.10566000000E+00 0. -1.
     999900   -1    0    0    0    0 -0.00000000000E+00 -0.00000000000E+00 -0.74505805969E-08  0.93827000000E+00  0.93827000000E+00 0. -1.
     999902    2    1    2    0    0  0.55929594065E-02  0.43802398553E-02 -0.12360921992E-01  0.10296730688E+01  0.10295743627E+01 0.  0.
     999903    2    3    3    0    0 -0.10982239620E+00 -0.12933755578E-01 -0.73058651325E-01  0.13989517900E+00  0.44775594162E-01 0.  0.
         14    1    1    2    0    0 -0.55929594065E-02 -0.43802398553E-02  0.12360921992E-01  0.14256931248E-01  0.00000000000E+00 0.  1.
     999901    1    3    3    0    0  0.11541535561E+00  0.17313995433E-01  0.60697729333E-01  0.88977788975E+00  0.88000000000E+00 0. -1.
        -11    1    4    4    0    0 -0.96579134681E-01  0.53399784371E-02 -0.59036475000E-01  0.11332083271E+00  0.51100000000E-03 0.  1.
         11    1    4    4    0    0 -0.13243261522E-01 -0.18273734015E-01 -0.14022176325E-01  0.26574346285E-01  0.51100000000E-03 0. -1.
</event>
<event>
 8    1  0.2924722E+004  0.1043930E+01  0.7957747E-01            NaN
         13   -1    0    0    0    0  0.00000000000E+00  0.00000000000E+00  0.74505805969E-08  0.10566000000E+00  0.10566000000E+00 0.  1.
     999900   -1    0    0    0    0 -0.00000000000E+00 -0.00000000000E+00 -0.74505805969E-08  0.93827000000E+00  0.93827000000E+00 0.  1.
     999902    2    1    2    0    0  0.66324358335E-02 -0.52209647219E-02 -0.10890061992E-01  0.10301517153E+01  0.10300595689E+01 0.  0.
     999903    2    3    3    0    0  0.13099163941E+00 -0.23883757971E-01 -0.13241349169E-01  0.14120906258E+00  0.45115657338E-01 0.  0.
         14    1    1    2    0    0 -0.66324358335E-02  0.52209647219E-02  0.10890061992E-01  0.13778284650E-01  0.00000000000E+00 0.  1.
     999901    1    3    3    0    0 -0.12435920357E+00  0.18662793249E-01  0.23512871763E-02  0.88894265277E+00  0.88000000000E+00 0. -1.
        -11    1    4    4    0    0  0.65630400250E-01 -0.94424194426E-02 -0.29106389804E-01  0.72415134954E-01  0.51100000000E-03 0. -1.
         11    1    4    4    0    0  0.65361239157E-01 -0.14441338529E-01  0.15865040636E-01  0.68793927624E-01  0.51100000000E-03 0.  1.
</event>
<event>
 8    1  0.2924722E+004  0.1043930E+01  0.7957747E-01            NaN
         13   -1    0    0    0    0  0.00000000000E+00  0.00000000000E+00  0.74505805969E-08  0.10566000000E+00  0.10566000000E+00 0.  1.
     999900   -1    0    0    0    0 -0.00000000000E+00 -0.00000000000E+00 -0.74505805969E-08  0.93827000000E+00  0.93827000000E+00 0.  1.
     999902    2    1    2    0    0 -0.15142432257E-01  0.48313744537E-02 -0.26795312923E-02  0.10278112122E+01  0.10276848118E+01 0.  0.
     999903    2    3    3    0    0  0.76221082954E-01  0.81170245979E-01  0.65720087146E-01  0.13716345741E+00  0.45786699773E-01 0.  0.
         14    1    1    2    0    0  0.15142432257E-01 -0.48313744537E-02  0.26795312923E-02  0.16118787848E-01  0.00000000000E+00 0.  1.
     999901    1    3    3    0    0 -0.91363515211E-01 -0.76338871525E-01 -0.68399618439E-01  0.89064775474E+00  0.88000000000E+00 0.  1.
        -11    1    4    4    0    0  0.68593319060E-01  0.48526417792E-01  0.32869205238E-01  0.90224732847E-01  0.51100000000E-03 0. -1.
         11    1    4    4    0    0  0.76277638942E-02  0.32643828187E-01  0.32850881909E-01  0.46938724566E-01  0.51100000000E-03 0.  1.
</event>
<event>
 8    1  0.2924722E+004  0.1043930E+01  0.7957747E-01            NaN
         13   -1    0    0    0    0  0.00000000000E+00  0.00000000000E+00  0.74505805969E-08  0.10566000000E+00  0.10566000000E+00 0.  1.
     999900   -1    0    0    0    0 -0.00000000000E+00 -0.00000000000E+00 -0.74505805969E-08  0.93827000000E+00  0.93827000000E+00 0. -1.
     999902    2    1    2    0    0 -0.23251635665E-02  0.81898271836E-02  0.10554822128E-01  0.10303696193E+01  0.10302803834E+01 0.  0.
     999903    2    3    3    0    0 -0.83579371058E-01 -0.49611952786E-01  0.92467923924E-01  0.14095798891E+00  0.43266390621E-01 0.  0.
         14    1    1    2    0    0  0.23251635665E-02 -0.81898271836E-02 -0.10554822128E-01  0.13560380712E-01  0.00000000000E+00 0. -1.
     999901    1    3    3    0    0  0.81254207492E-01  0.57801779970E-01 -0.81913101796E-01  0.88941163038E+00  0.88000000000E+00 0.  1.
        -11    1    4    4    0    0 -0.30295652519E-01 -0.33954804883E-01  0.20138271502E-01  0.49765112642E-01  0.51100000000E-03 0. -1.
         11    1    4    4    0    0 -0.53283718540E-01 -0.15657147904E-01  0.72329652422E-01  0.91192876270E-01  0.51100000000E-03 0.  1.
</event>
<event>
 8    1  0.2924722E+004  0.1043930E+01  0.7957747E-01            NaN
         13   -1    0    0    0    0  0.00000000000E+00  0.00000000000E+00  0.74505805969E-08  0.10566000000E+00  0.10566000000E+00 0. -1.
     999900   -1    0    0    0    0 -0.00000000000E+00 -0.00000000000E+00 -0.74505805969E-08  0.93827000000E+00  0.93827000000E+00 0. -1.
     999902    2    1    2    0    0 -0.51925774573E-02 -0.60443951234E-02  0.11204154275E-01  0.10301811584E+01  0.10300894080E+01 0.  0.
     999903    2    3    3    0    0  0.10924816643E-01 -0.12993938756E+00 -0.27264287606E-01  0.14052416797E+00  0.44722526170E-01 0.  0.
         14    1    1    2    0    0  0.51925774573E-02  0.60443951234E-02 -0.11204154275E-01  0.13748841627E-01  0.00000000000E+00 0.  1.
     999901    1    3    3    0    0 -0.16117394100E-01  0.12389499244E+00  0.38468441882E-01  0.88965699040E+00  0.88000000000E+00 0. -1.
        -11    1    4    4    0    0  0.17510914898E-01 -0.16336679991E-01 -0.26693432279E-02  0.24101986805E-01  0.51100000000E-03 0. -1.
         11    1    4    4    0    0 -0.65860982556E-02 -0.11360270757E+00 -0.24594944379E-01  0.11642218117E+00  0.51100000000E-03 0.  1.
</event>
<event>
 8    1  0.2924722E+004  0.1043930E+01  0.7957747E-01            NaN
         13   -1    0    0    0    0  0.00000000000E+00  0.00000000000E+00  0.74505805969E-08  0.10566000000E+00  0.10566000000E+00 0.  1.
     999900   -1    0    0    0    0 -0.00000000000E+00 -0.00000000000E+00 -0.74505805969E-08  0.93827000000E+00  0.93827000000E+00 0.  1.
     999902    2    1    2    0    0  0.27671630658E-03  0.12864235480E-01  0.88832841624E-02  0.10282942121E+01  0.10281753298E+01 0.  0.
     999903    2    3    3    0    0 -0.10384836273E+00 -0.48347031682E-01 -0.60832334508E-01  0.13731210294E+00  0.45079072530E-01 0.  0.
         14    1    1    2    0    0 -0.27671630658E-03 -0.12864235480E-01 -0.88832841624E-02  0.15635787921E-01  0.00000000000E+00 0.  1.
     999901    1    3    3    0    0  0.10412507903E+00  0.61211267162E-01  0.69715618670E-01  0.89098210913E+00  0.88000000000E+00 0. -1.
        -11    1    4    4    0    0 -0.62012822419E-01 -0.50373769786E-01 -0.30176456379E-01  0.85404838666E-01  0.51100000000E-03 0. -1.
         11    1    4    4    0    0 -0.41835540306E-01  0.20267381048E-02 -0.30655878129E-01  0.51907264279E-01  0.51100000000E-03 0.  1.
</event>
<event>
 7    1  0.2924722E+004  0.1043930E+01  0.7957747E-01            NaN
         13   -1    0    0    0    0  0.00000000000E+00  0.00000000000E+00  0.74505805969E-08  0.10566000000E+00  0.10566000000E+00 0.  1.
     999900   -1    0    0    0    0 -0.00000000000E+00 -0.00000000000E+00 -0.74505805969E-08  0.93827000000E+00  0.93827000000E+00 0. -1.
     999903    2    1    2    0    0 -0.54911993696E-02  0.19321026731E-01 -0.52720766512E-01  0.70066159589E-01  0.41549153464E-01 0.  0.
         14    1    1    2    0    0 -0.27828292056E-01  0.49151153427E-01 -0.61175012354E-01  0.83262427652E-01  0.00000000000E+00 0. -1.
     999901    1    1    2    0    0  0.33319491425E-01 -0.68472180158E-01  0.11389577887E+00  0.89060141276E+00  0.88000000000E+00 0.  1.
        -11    1    3    3    0    0 -0.14207014478E-01  0.23901752494E-01 -0.16084498143E-01  0.32126394665E-01  0.51100000000E-03 0. -1.
         11    1    3    3    0    0  0.87158151082E-02 -0.45807257635E-02 -0.36636268369E-01  0.37939764924E-01  0.51100000000E-03 0.  1.
</event>
<event>
 8    1  0.2924722E+004  0.1043930E+01  0.7957747E-01            NaN
         13   -1    0    0    0    0  0.00000000000E+00  0.00000000000E+00  0.74505805969E-08  0.10566000000E+00  0.10566000000E+00 0. -1.
     999900   -1    0    0    0    0 -0.00000000000E+00 -0.00000000000E+00 -0.74505805969E-08  0.93827000000E+00  0.93827000000E+00 0.  1.
     999902    2    1    2    0    0  0.98837325800E-02  0.23858083204E-02  0.13896179841E-01  0.10267112874E+01  0.10265668919E+01 0.  0.
     999903    2    3    3    0    0  0.75108018951E-01  0.82586292756E-01 -0.65928987932E-01  0.13707181956E+00  0.44501033776E-01 0.  0.
         14    1    1    2    0    0 -0.98837325800E-02 -0.23858083204E-02 -0.13896179841E-01  0.17218712647E-01  0.00000000000E+00 0.  1.
     999901    1    3    3    0    0 -0.65224286371E-01 -0.80200484436E-01  0.79825167772E-01  0.88963946779E+00  0.88000000000E+00 0.  1.
        -11    1    4    4    0    0  0.17891938376E-01  0.28823841207E-01  0.93923438133E-03  0.33942282819E-01  0.51100000000E-03 0. -1.
         11    1    4    4    0    0  0.57216080576E-01  0.53762451549E-01 -0.66868222313E-01  0.10312953675E+00  0.51100000000E-03 0.  1.
</event>
<event>
 8    1  0.2924722E+004  0.1043930E+01  0.7957747E-01            NaN
         13   -1    0    0    0    0  0.00000000000E+00  0.00000000000E+00  0.74505805969E-08  0.10566000000E+00  0.10566000000E+00 0.  1.
     999900   -1    0    0    0    0 -0.00000000000E+00 -0.00000000000E+00 -0.74505805969E-08  0.93827000000E+00  0.93827000000E+00 0.  1.
     999902    2    1    2    0    0  0.77964148127E-02 -0.95490171706E-02 -0.15522339833E-01  0.10241080211E+01  0.10239161724E+01 0.  0.
     999903    2    3    3    0    0 -0.69922581210E-02 -0.49042372983E-01 -0.11936101028E+00  0.13699985439E+00  0.45473765041E-01 0.  0.
         14    1    1    2    0    0 -0.77964148127E-02  0.95490171706E-02  0.15522339833E-01  0.19821978881E-01  0.00000000000E+00 0.  1.
     999901    1    3    3    0    0  0.14788672934E-01  0.39493355812E-01  0.10383867044E+00  0.88710816673E+00  0.88000000000E+00 0. -1.
        -11    1    4    4    0    0  0.18604888805E-01 -0.14851977253E-01 -0.52678548195E-01  0.57810152021E-01  0.51100000000E-03 0. -1.
         11    1    4    4    0    0 -0.25597146926E-01 -0.34190395730E-01 -0.66682462081E-01  0.79189702368E-01  0.51100000000E-03 0.  1.
</event>
<event>
 8    1  0.2924722E+004  0.1043930E+01  0.7957747E-01            NaN
         13   -1    0    0    0    0  0.00000000000E+00  0.00000000000E+00  0.74505805969E-08  0.10566000000E+00  0.10566000000E+00 0. -1.
     999900   -1    0    0    0    0 -0.00000000000E+00 -0.00000000000E+00 -0.74505805969E-08  0.93827000000E+00  0.93827000000E+00 0.  1.
     999902    2    1    2    0    0  0.13465531305E-02  0.14104917072E-01 -0.13390592620E-02  0.10296978192E+01  0.10295994580E+01 0.  0.
     999903    2    3    3    0    0  0.23705209580E-01  0.35425008107E-01 -0.12591110378E+00  0.14038760893E+00  0.45146500681E-01 0.  0.
         14    1    1    2    0    0 -0.13465531305E-02 -0.14104917072E-01  0.13390592620E-02  0.14232180812E-01  0.00000000000E+00 0.  1.
     999901    1    3    3    0    0 -0.22358656449E-01 -0.21320091035E-01  0.12457204452E+00  0.88931021026E+00  0.88000000000E+00 0. -1.
        -11    1    4    4    0    0  0.29451108704E-01  0.35432609774E-02 -0.58322760988E-01  0.65434914782E-01  0.51100000000E-03 0. -1.
         11    1    4    4    0    0 -0.57458991249E-02  0.31881747130E-01 -0.67588342795E-01  0.74952694145E-01  0.51100000000E-03 0.  1.
</event>
<event>
 8    1  0.2924722E+004  0.1043930E+01  0.7957747E-01            NaN
         13   -1    0    0    0    0  0.00000000000E+00  0.00000000000E+00  0.74505805969E-08  0.10566000000E+00  0.10566000000E+00 0.  1.
     999900   -1    0    0    0    0 -0.00000000000E+00 -0.00000000000E+00 -0.74505805969E-08  0.93827000000E+00  0.93827000000E+00 0.  1.
     999902    2    1    2    0    0  0.12902880624E-01 -0.10781670432E-02 -0.51531397634E-02  0.10299943758E+01  0.10299000983E+01 0.  0.
     999903    2    3    3    0    0 -0.11683774033E+00 -0.56972642100E-01  0.14889642335E-01  0.13850206838E+00  0.45433269553E-01 0.  0.
         14    1    1    2    0    0 -0.12902880624E-01  0.10781670432E-02  0.51531397634E-02  0.13935624205E-01  0.00000000000E+00 0. -1.
     999901    1    3    3    0    0  0.12974062096E+00  0.55894475057E-01 -0.20042782098E-01  0.89149230742E+00  0.88000000000E+00 0.  1.
        -11    1    4    4    0    0 -0.10342131634E+00 -0.46010018183E-01  0.28191596850E-01  0.11665297982E+00  0.51100000000E-03 0.  1.
         11    1    4    4    0    0 -0.13416423988E-01 -0.10962623917E-01 -0.13301954515E-01  0.21849088555E-01  0.51100000000E-03 0. -1.
</event>
<event>
 8    1  0.2924722E+004  0.1043930E+01  0.7957747E-01            NaN
         13   -1    0    0    0    0  0.00000000000E+00  0.00000000000E+00  0.74505805969E-08  0.10566000000E+00  0.10566000000E+00 0.  1.
     999900   -1    0    0    0    0 -0.00000000000E+00 -0.00000000000E+00 -0.74505805969E-08  0.93827000000E+00  0.93827000000E+00 0. -1.
     999902    2    1    2    0    0  0.12117558367E-01  0.13572344784E-02  0.86979336893E-02  0.10289523047E+01  0.10288432893E+01 0.  0.
     999903    2    3    3    0    0 -0.69134369120E-02 -0.38959328815E-01 -0.12433477173E+00  0.13783766293E+00  0.44434906859E-01 0.  0.
         14    1    1    2    0    0 -0.12117558367E-01 -0.13572344784E-02 -0.86979336893E-02  0.14977695306E-01  0.00000000000E+00 0.  1.
     999901    1    3    3    0    0  0.19030995279E-01  0.40316563294E-01  0.13303270542E+00  0.89111464177E+00  0.88000000000E+00 0.  1.
        -11    1    4    4    0    0  0.10575450465E-01 -0.37146760565E-01 -0.61817836836E-01  0.72893264744E-01  0.51100000000E-03 0. -1.
         11    1    4    4    0    0 -0.17488887377E-01 -0.18125682501E-02 -0.62516934899E-01  0.64944398184E-01  0.51100000000E-03 0.  1.
</event>
<event>
 8    1  0.2924722E+004  0.1043930E+01  0.7957747E-01            NaN
         13   -1    0    0    0    0  0.00000000000E+00  0.00000000000E+00  0.74505805969E-08  0.10566000000E+00  0.10566000000E+00 0. -1.
     999900   -1    0    0    0    0 -0.00000000000E+00 -0.00000000000E+00 -0.74505805969E-08  0.93827000000E+00  0.93827000000E+00 0. -1.
     999902    2    1    2    0    0  0.53276867284E-02  0.78874390134E-02 -0.10172020922E-01  0.10299992445E+01  0.10299050333E+01 0.  0.
     999903    2    3    3    0    0  0.48379517104E-03  0.43164219289E-01  0.12438330461E+00  0.13905982445E+00  0.44755384322E-01 0.  0.
         14    1    1    2    0    0 -0.53276867284E-02 -0.78874390134E-02  0.10172020922E-01  0.13930755532E-01  0.00000000000E+00 0. -1.
     999901    1    3    3    0    0  0.48438915573E-02 -0.35276780276E-01 -0.13455532553E+00  0.89093942002E+00  0.88000000000E+00 0. -1.
        -11    1    4    4    0    0  0.17967771374E-01  0.12284270245E-01  0.23119839948E-01  0.31757396364E-01  0.51100000000E-03 0.  1.
         11    1    4    4    0    0 -0.17483976203E-01  0.30879949044E-01  0.10126346466E+00  0.10730242809E+00  0.51100000000E-03 0. -1.
</event>
<event>
 8    1  0.2924722E+004  0.1043930E+01  0.7957747E-01            NaN
         13   -1    0    0    0    0  0.00000000000E+00  0.00000000000E+00  0.74505805969E-08  0.10566000000E+00  0.10566000000E+00 0.  1.
     999900   -1    0    0    0    0 -0.00000000000E+00 -0.00000000000E+00 -0.74505805969E-08  0.93827000000E+00  0.93827000000E+00 0.  1.
     999902    2    1    2    0    0 -0.79288627040E-03  0.14337330498E-01  0.19639046032E-02  0.10294370833E+01  0.10293350590E+01 0.  0.
     999903    2    3    3    0    0  0.58186781693E-01  0.12037942577E+00 -0.96967766628E-02  0.14103430372E+00  0.43814833509E-01 0.  0.
         14    1    1    2    0    0  0.79288627040E-03 -0.14337330498E-01 -0.19639046032E-02  0.14492916744E-01  0.00000000000E+00 0. -1.
     999901    1    3    3    0    0 -0.58979667963E-01 -0.10604209527E+00  0.11660681266E-01  0.88840277954E+00  0.88000000000E+00 0.  1.
        -11    1    4    4    0    0  0.10696191430E-01  0.11804715221E-01 -0.15703329052E-01  0.22374438024E-01  0.51100000000E-03 0.  1.
         11    1    4    4    0    0  0.47490590263E-01  0.10857471055E+00  0.60065523892E-02  0.11865986569E+00  0.51100000000E-03 0. -1.
</event>
<event>
 8    1  0.2924722E+004  0.1043930E+01  0.7957747E-01            NaN
         13   -1    0    0    0    0  0.00000000000E+00  0.00000000000E+00  0.74505805969E-08  0.10566000000E+00  0.10566000000E+00 0.  1.
     999900   -1    0    0    0    0 -0.00000000000E+00 -0.00000000000E+00 -0.74505805969E-08  0.93827000000E+00  0.93827000000E+00 0.  1.
     999902    2    1    2    0    0 -0.74524703388E-02 -0.11942778443E-01 -0.17811033169E-02  0.10297405109E+01  0.10296427430E+01 0.  0.
     999903    2    3    3    0    0 -0.35542247098E-01  0.12601974988E+00  0.38046675586E-02  0.13853127870E+00  0.45080050942E-01 0.  0.
         14    1    1    2    0    0  0.74524703388E-02  0.11942778443E-01  0.17811033169E-02  0.14189489071E-01  0.00000000000E+00 0.  1.
     999901    1    3    3    0    0  0.28089776759E-01 -0.13796252832E+00 -0.55857708755E-02  0.89120923223E+00  0.88000000000E+00 0. -1.
        -11    1    4    4    0    0  0.86850979656E-02  0.43642777737E-01 -0.41428627173E-02  0.44693930324E-01  0.51100000000E-03 0. -1.
         11    1    4    4    0    0 -0.44227345064E-01  0.82376972144E-01  0.79475302759E-02  0.93837348372E-01  0.51100000000E-03 0.  1.
</event>
<event>
 8    1  0.2924722E+004  0.1043930E+01  0.7957747E-01            NaN
         13   -1    0    0    0    0  0.00000000000E+00  0.00000000000E+00  0.74505805969E-08  0.10566000000E+00  0.10566000000E+00 0.  1.
     999900   -1    0    0    0    0 -0.00000000000E+00 -0.00000000000E+00 -0.74505805969E-08  0.93827000000E+00  0.93827000000E+00 0. -1.
     999902    2    1    2    0    0  0.90490292052E-02  0.98078123462E-02  0.22826918395E-02  0.10303915808E+01  0.10303026356E+01 0.  0.
     999903    2    3    3    0    0 -0.80151837039E-01  0.48931859516E-01  0.88376990007E-01  0.14084129341E+00  0.56631561081E-01 0.  0.
         14    1    1    2    0    0 -0.90490292052E-02 -0.98078123462E-02 -0.22826918395E-02  0.13538419206E-01  0.00000000000E+00 0. -1.
     999901    1    3    3    0    0  0.89200866244E-01 -0.39124047170E-01 -0.86094298168E-01  0.88955028738E+00  0.88000000000E+00 0. -1.
        -11    1    4    4    0    0 -0.24278845838E-01  0.17066480349E-01 -0.21836511523E-02  0.29761662589E-01  0.51100000000E-03 0.  1.
         11    1    4    4    0    0 -0.55872991202E-01  0.31865379167E-01  0.90560641160E-01  0.11107963082E+00  0.51100000000E-03 0. -1.
</event>
<event>
 8    1  0.2924722E+004  0.1043930E+01  0.7957747E-01            NaN
         13   -1    0    0    0    0  0.00000000000E+00  0.00000000000E+00  0.74505805969E-08  0.10566000000E+00  0.10566000000E+00 0. -1.
     999900   -1    0    0    0    0 -0.00000000000E+00 -0.00000000000E+00 -0.74505805969E-08  0.93827000000E+00  0.93827000000E+00 0.  1.
     999902    2    1    2    0    0 -0.68937940419E-02  0.71997684859E-03 -0.12221139670E-01  0.10298801239E+01  0.10297842835E+01 0.  0.
     999903    2    3    3    0    0 -0.47574361701E-01  0.69163966144E-01 -0.10448553872E+00  0.14148144788E+00  0.45307815980E-01 0.  0.
         14    1    1    2    0    0  0.68937940419E-02 -0.71997684859E-03  0.12221139670E-01  0.14049876077E-01  0.00000000000E+00 0. -1.
     999901    1    3    3    0    0  0.40680567659E-01 -0.68443989295E-01  0.92264399054E-01  0.88839867604E+00  0.88000000000E+00 0. -1.
        -11    1    4    4    0    0 -0.17903370753E-01  0.57666385835E-01 -0.84654295422E-01  0.10398342942E+00  0.51100000000E-03 0. -1.
         11    1    4    4    0    0 -0.29670990948E-01  0.11497580309E-01 -0.19831243301E-01  0.37498018463E-01  0.51100000000E-03 0.  1.
</event>
<event>
 8    1  0.2924722E+004  0.1043930E+01  0.7957747E-01            NaN
         13   -1    0    0    0    0  0.00000000000E+00  0.00000000000E+00  0.74505805969E-08  0.10566000000E+00  0.10566000000E+00 0. -1.
     999900   -1    0    0    0    0 -0.00000000000E+00 -0.00000000000E+00 -0.74505805969E-08  0.93827000000E+00  0.93827000000E+00 0.  1.
     999902    2    1    2    0    0 -0.44069842912E-02 -0.26659580521E-02 -0.12675559739E-01  0.10302479440E+01  0.10301570887E+01 0.  0.
     999903    2    3    3    0    0  0.59261899010E-01  0.98730395932E-01  0.63308296831E-01  0.13889588458E+00  0.44994027931E-01 0.  0.
         14    1    1    2    0    0  0.44069842912E-02  0.26659580521E-02  0.12675559739E-01  0.13682056044E-01  0.00000000000E+00 0. -1.
     999901    1    3    3    0    0 -0.63668883301E-01 -0.10139635398E+00 -0.75983856570E-01  0.89135205938E+00  0.88000000000E+00 0.  1.
        -11    1    4    4    0    0  0.57418793410E-01  0.88153886152E-01  0.38796901855E-01  0.11213155753E+00  0.51100000000E-03 0.  1.
         11    1    4    4    0    0  0.18431056001E-02  0.10576509779E-01  0.24511394976E-01  0.26764327042E-01  0.51100000000E-03 0. -1.
</event>
<event>
 8    1  0.2924722E+004  0.1043930E+01  0.7957747E-01            NaN
         13   -1    0    0    0    0  0.00000000000E+00  0.00000000000E+00  0.74505805969E-08  0.10566000000E+00  0.10566000000E+00 0. -1.
     999900   -1    0    0    0    0 -0.00000000000E+00 -0.00000000000E+00 -0.74505805969E-08  0.93827000000E+00  0.93827000000E+00 0.  1.
     999902    2    1    2    0    0 -0.19277043337E-02 -0.12837185941E-01  0.59833778954E-02  0.10296362882E+01  0.10295370686E+01 0.  0.
     999903    2    3    3    0    0  0.13193780600E+00  0.52095093563E-03 -0.52095901804E-02  0.13934212486E+00  0.44511031097E-01 0.  0.
         14    1    1    2    0    0  0.19277043337E-02  0.12837185941E-01 -0.59833778954E-02  0.14293711831E-01  0.00000000000E+00 0. -1.
     999901    1    3    3    0    0 -0.13386551034E+00 -0.13358136877E-01  0.11192968076E-01  0.89029416330E+00  0.88000000000E+00 0.  1.
        -11    1    4    4    0    0  0.41648340736E-01 -0.28851422012E-02  0.18893731053E-01  0.45827312006E-01  0.51100000000E-03 0.  1.
         11    1    4    4    0    0  0.90289465266E-01  0.34060931368E-02 -0.24103321233E-01  0.93514812859E-01  0.51100000000E-03 0. -1.
</event>
<event>
 8    1  0.2924722E+004  0.1043930E+01  0.7957747E-01            NaN
         13   -1    0    0    0    0  0.00000000000E+00  0.00000000000E+00  0.74505805969E-08  0.10566000000E+00  0.10566000000E+00 0. -1.
     999900   -1    0    0    0    0 -0.00000000000E+00 -0.00000000000E+00 -0.74505805969E-08  0.93827000000E+00  0.93827000000E+00 0.  1.
     999902    2    1    2    0    0 -0.12501558354E-01  0.48245046303E-03 -0.57505463028E-02  0.10301608133E+01  0.10300687893E+01 0.  0.
     999903    2    3    3    0    0 -0.73286574460E-01  0.67575017378E-01 -0.89766984021E-01  0.14153547463E+00  0.45131742573E-01 0.  0.
         14    1    1    2    0    0  0.12501558354E-01 -0.48245046303E-03  0.57505463028E-02  0.13769186705E-01  0.00000000000E+00 0.  1.
     999901    1    3    3    0    0  0.60785016106E-01 -0.67092566915E-01  0.84016437718E-01  0.88862533867E+00  0.88000000000E+00 0. -1.
        -11    1    4    4    0    0 -0.22324993733E-01  0.11989545614E-01 -0.50519352713E-01  0.56520975476E-01  0.51100000000E-03 0. -1.
         11    1    4    4    0    0 -0.50961580728E-01  0.55585471764E-01 -0.39247631308E-01  0.85014499150E-01  0.51100000000E-03 0.  1.
</event>
<event>
 8    1  0.2924722E+004  0.1043930E+01  0.7957747E-01            NaN
         13   -1    0    0    0    0  0.00000000000E+00  0.00000000000E+00  0.74505805969E-08  0.10566000000E+00  0.10566000000E+00 0. -1.
     999900   -1    0    0    0    0 -0.00000000000E+00 -0.00000000000E+00 -0.74505805969E-08  0.93827000000E+00  0.93827000000E+00 0. -1.
     999902    2    1    2    0    0 -0.11383028972E-02  0.16280339421E-01  0.80606041281E-02  0.10257278429E+01  0.10255663260E+01 0.  0.
     999903    2    3    3    0    0  0.11786211335E+00 -0.40045941591E-01 -0.26979201723E-01  0.13524396486E+00  0.45474141051E-01 0.  0.
         14    1    1    2    0    0  0.11383028972E-02 -0.16280339421E-01 -0.80606041281E-02  0.18202157126E-01  0.00000000000E+00 0.  1.
     999901    1    3    3    0    0 -0.11900041625E+00  0.56326281011E-01  0.35039805851E-01  0.89048387801E+00  0.88000000000E+00 0. -1.
        -11    1    4    4    0    0  0.44067923081E-01 -0.67535242258E-02 -0.30810143785E-01  0.54195184427E-01  0.51100000000E-03 0.  1.
         11    1    4    4    0    0  0.73794190274E-01 -0.33292417365E-01  0.38309420617E-02  0.81048780437E-01  0.51100000000E-03 0. -1.
</event>
<event>
 8    1  0.2924722E+004  0.1043930E+01  0.7957747E-01            NaN
         13   -1    0    0    0    0  0.00000000000E+00  0.00000000000E+00  0.74505805969E-08  0.10566000000E+00  0.10566000000E+00 0.  1.
     999900   -1    0    0    0    0 -0.00000000000E+00 -0.00000000000E+00 -0.74505805969E-08  0.93827000000E+00  0.93827000000E+00 0.  1.
     999902    2    1    2    0    0  0.59191935949E-02 -0.11914577143E-01 -0.27192426988E-02  0.10303510353E+01  0.10302615530E+01 0.  0.
     999903    2    3    3    0    0 -0.45249609867E-01  0.12304383213E+00 -0.42094334756E-03  0.13859024851E+00  0.44941828764E-01 0.  0.
         14    1    1    2    0    0 -0.59191935949E-02  0.11914577143E-01  0.27192426988E-02  0.13578964694E-01  0.00000000000E+00 0.  1.
     999901    1    3    3    0    0  0.51168803462E-01 -0.13495840927E+00 -0.22982993512E-02  0.89176078679E+00  0.88000000000E+00 0.  1.
        -11    1    4    4    0    0 -0.27566249742E-01  0.50326153442E-01  0.20412220988E-01  0.60905990935E-01  0.51100000000E-03 0.  1.
         11    1    4    4    0    0 -0.17683360125E-01  0.72717678683E-01 -0.20833164335E-01  0.77684257579E-01  0.51100000000E-03 0. -1.
</event>
<event>
 8    1  0.2924722E+004  0.1043930E+01  0.7957747E-01            NaN
         13   -1    0    0    0    0  0.00000000000E+00  0.00000000000E+00  0.74505805969E-08  0.10566000000E+00  0.10566000000E+00 0.  1.
     999900   -1    0    0    0    0 -0.00000000000E+00 -0.00000000000E+00 -0.74505805969E-08  0.93827000000E+00  0.93827000000E+00 0. -1.
     999902    2    1    2    0    0  0.15815343597E-02 -0.13478473051E-01  0.38155226690E-02  0.10298328833E+01  0.10297363929E+01 0.  0.
     999903    2    3    3    0    0 -0.81111066476E-01 -0.60473336536E-01 -0.84664711195E-01  0.14029629875E+00  0.47737915583E-01 0.  0.
         14    1    1    2    0    0 -0.15815343597E-02  0.13478473051E-01 -0.38155226690E-02  0.14097116724E-01  0.00000000000E+00 0. -1.
     999901    1    3    3    0    0  0.82692600836E-01  0.46994863485E-01  0.88480233864E-01  0.88953658453E+00  0.88000000000E+00 0.  1.
        -11    1    4    4    0    0 -0.46391476260E-01 -0.97207149366E-02 -0.53081245654E-01  0.71165589505E-01  0.51100000000E-03 0. -1.
         11    1    4    4    0    0 -0.34719590216E-01 -0.50752621599E-01 -0.31583465542E-01  0.69130709244E-01  0.51100000000E-03 0.  1.
</event>
<event>
 8    1  0.2924722E+004  0.1043930E+01  0.7957747E-01            NaN
         13   -1    0    0    0    0  0.00000000000E+00  0.00000000000E+00  0.74505805969E-08  0.10566000000E+00  0.10566000000E+00 0.  1.
     999900   -1    0    0    0    0 -0.00000000000E+00 -0.00000000000E+00 -0.74505805969E-08  0.93827000000E+00  0.93827000000E+00 0.  1.
     999902    2    1    2    0    0  0.38399142687E-02  0.15645035664E-01 -0.20799259912E-02  0.10276869038E+01  0.10275585307E+01 0.  0.
     999903    2    3    3    0    0  0.80930138106E-01 -0.35596205763E-03  0.10203727834E+00  0.13805814594E+00  0.45810823258E-01 0.  0.
         14    1    1    2    0    0 -0.38399142687E-02 -0.15645035664E-01  0.20799259912E-02  0.16243096215E-01  0.00000000000E+00 0.  1.
     999901    1    3    3    0    0 -0.77090223838E-01  0.16000997721E-01 -0.10411720433E+00  0.88962875784E+00  0.88000000000E+00 0.  1.
        -11    1    4    4    0    0  0.25131630190E-01 -0.27962765288E-03  0.68470312569E-01  0.72939165418E-01  0.51100000000E-03 0. -1.
         11    1    4    4    0    0  0.55798507917E-01 -0.76334404747E-04  0.33566965772E-01  0.65118980526E-01  0.51100000000E-03 0.  1.
</event>
<event>
 8    1  0.2924722E+004  0.1043930E+01  0.7957747E-01            NaN
         13   -1    0    0    0    0  0.00000000000E+00  0.00000000000E+00  0.74505805969E-08  0.10566000000E+00  0.10566000000E+00 0.  1.
     999900   -1    0    0    0    0 -0.00000000000E+00 -0.00000000000E+00 -0.74505805969E-08  0.93827000000E+00  0.93827000000E+00 0. -1.
     999902    2    1    2    0    0 -0.11456674291E-01  0.58087341579E-02 -0.18642037914E-02  0.10309503223E+01  0.10308686119E+01 0.  0.
     999903    2    3    3    0    0 -0.41589973389E-02  0.50365092718E-01 -0.12706186013E+00  0.14094303110E+00  0.34150869581E-01 0.  0.
         14    1    1    2    0    0  0.11456674291E-01 -0.58087341579E-02  0.18642037914E-02  0.12979677735E-01  0.00000000000E+00 0.  1.
     999901    1    3    3    0    0 -0.72976769520E-02 -0.44556358560E-01  0.12519765634E+00  0.89000729117E+00  0.88000000000E+00 0.  1.
        -11    1    4    4    0    0  0.12353442404E-01  0.25567783471E-01 -0.83233026015E-01  0.87944964787E-01  0.51100000000E-03 0.  1.
         11    1    4    4    0    0 -0.16512439743E-01  0.24797309247E-01 -0.43828834112E-01  0.52998066312E-01  0.51100000000E-03 0. -1.
</event>
<event>
 8    1  0.2924722E+004  0.1043930E+01  0.7957747E-01            NaN
         13   -1    0    0    0    0  0.00000000000E+00  0.00000000000E+00  0.74505805969E-08  0.10566000000E+00  0.10566000000E+00 0. -1.
     999900   -1    0    0    0    0 -0.00000000000E+00 -0.00000000000E+00 -0.74505805969E-08  0.93827000000E+00  0.93827000000E+00 0. -1.
     999902    2    1    2    0    0  0.96744036706E-02  0.41803158205E-02  0.90749820828E-02  0.10300222890E+01  0.10299283914E+01 0.  0.
     999903    2    3    3    0    0 -0.11549748531E+00  0.10872031632E-01  0.62889615222E-01  0.13951187599E+00  0.45283436867E-01 0.  0.
         14    1    1    2    0    0 -0.96744036706E-02 -0.41803158205E-02 -0.90749820828E-02  0.13907711046E-01  0.00000000000E+00 0.  1.
     999901    1    3    3    0    0  0.12517188898E+00 -0.66917158112E-02 -0.53814633139E-01  0.89051041296E+00  0.88000000000E+00 0. -1.
        -11    1    4    4    0    0 -0.10252323896E+00 -0.64460092027E-02  0.54583014209E-01  0.11632769285E+00  0.51100000000E-03 0. -1.
         11    1    4    4    0    0 -0.12974246352E-01  0.17318040834E-01  0.83066010124E-02  0.23184183145E-01  0.51100000000E-03 0.  1.
</event>
<event>
 8    1  0.2924722E+004  0.1043930E+01  0.7957747E-01            NaN
         13   -1    0    0    0    0  0.00000000000E+00  0.00000000000E+00  0.74505805969E-08  0.10566000000E+00  0.10566000000E+00 0.  1.
     999900   -1    0    0    0    0 -0.00000000000E+00 -0.00000000000E+00 -0.74505805969E-08  0.93827000000E+00  0.93827000000E+00 0.  1.
     999902    2    1    2    0    0  0.56883177755E-02 -0.15921756191E-01  0.79616079441E-02  0.10252418626E+01  0.10250715245E+01 0.  0.
     999903    2    3    3    0    0  0.92383121155E-01  0.82386818411E-01 -0.28603630047E-01  0.13478266564E+00  0.45010780749E-01 0.  0.
         14    1    1    2    0    0 -0.56883177755E-02  0.15921756191E-01 -0.79616079441E-02  0.18688137424E-01  0.00000000000E+00 0. -1.
     999901    1    3    3    0    0 -0.86694803380E-01 -0.98308574602E-01  0.36565237991E-01  0.89045919693E+00  0.88000000000E+00 0. -1.
        -11    1    4    4    0    0  0.70499636672E-01  0.60793209990E-01 -0.40881808577E-01  0.10167397182E+00  0.51100000000E-03 0. -1.
         11    1    4    4    0    0  0.21883484483E-01  0.21593608421E-01  0.12278178530E-01  0.33108693825E-01  0.51100000000E-03 0.  1.
</event>
<event>
 8    1  0.2924722E+004  0.1043930E+01  0.7957747E-01            NaN
         13   -1    0    0    0    0  0.00000000000E+00  0.00000000000E+00  0.74505805969E-08  0.10566000000E+00  0.10566000000E+00 0.  1.
     999900   -1    0    0    0    0 -0.00000000000E+00 -0.00000000000E+00 -0.74505805969E-08  0.93827000000E+00  0.93827000000E+00 0.  1.
     999902    2    1    2    0    0 -0.82695407160E-02  0.20302712343E-02  0.10909561281E-01  0.10300907142E+01  0.10299977445E+01 0.  0.
     999903    2    3    3    0    0  0.10866500504E-01 -0.32075909994E-02  0.13381994528E+00  0.14132719907E+00  0.44013974709E-01 0.  0.
         14    1    1    2    0    0  0.82695407160E-02 -0.20302712343E-02 -0.10909561281E-01  0.13839285830E-01  0.00000000000E+00 0. -1.
     999901    1    3    3    0    0 -0.19136041220E-01  0.52378622337E-02 -0.12291038400E+00  0.88876351510E+00  0.88000000000E+00 0.  1.
        -11    1    4    4    0    0 -0.12697210159E-01  0.11143671229E-01  0.37509390102E-01  0.41141414914E-01  0.51100000000E-03 0.  1.
         11    1    4    4    0    0  0.23563710663E-01 -0.14351262229E-01  0.96310555178E-01  0.10018578416E+00  0.51100000000E-03 0. -1.
</event>
<event>
 8    1  0.2924722E+004  0.1043930E+01  0.7957747E-01            NaN
         13   -1    0    0    0    0  0.00000000000E+00  0.00000000000E+00  0.74505805969E-08  0.10566000000E+00  0.10566000000E+00 0.  1.
     999900   -1    0    0    0    0 -0.00000000000E+00 -0.00000000000E+00 -0.74505805969E-08  0.93827000000E+00  0.93827000000E+00 0. -1.
     999902    2    1    2    0    0 -0.95152853580E-02  0.95240085766E-02 -0.19010221128E-02  0.10303336299E+01  0.10302439166E+01 0.  0.
     999903    2    3    3    0    0  0.87311195328E-01  0.56021042529E-01 -0.82781669686E-01  0.14012072240E+00  0.44937845681E-01 0.  0.
         14    1    1    2    0    0  0.95152853580E-02 -0.95240085766E-02  0.19010221128E-02  0.13596370100E-01  0.00000000000E+00 0.  1.
     999901    1    3    3    0    0 -0.96826480686E-01 -0.46497033952E-01  0.80880647573E-01  0.89021290750E+00  0.88000000000E+00 0.  1.
        -11    1    4    4    0    0  0.40724418190E-01  0.11839772115E-01 -0.11007909906E-01  0.43818873127E-01  0.51100000000E-03 0.  1.
         11    1    4    4    0    0  0.46586777137E-01  0.44181270413E-01 -0.71773759780E-01  0.96301849273E-01  0.51100000000E-03 0. -1.
</event>
<event>
 8    1  0.2924722E+004  0.1043930E+01  0.7957747E-01            NaN
         13   -1    0    0    0    0  0.00000000000E+00  0.00000000000E+00  0.74505805969E-08  0.10566000000E+00  0.10566000000E+00 0.  1.
     999900   -1    0    0    0    0 -0.00000000000E+00 -0.00000000000E+00 -0.74505805969E-08  0.93827000000E+00  0.93827000000E+00 0.  1.
     999902    2    1    2    0    0 -0.12625598634E-01 -0.20125677996E-02 -0.53187948257E-02  0.10300827711E+01  0.10299896939E+01 0.  0.
     999903    2    3    3    0    0 -0.12855004754E-01  0.10534687282E+00 -0.80268041772E-01  0.14039547112E+00  0.44774044048E-01 0.  0.
         14    1    1    2    0    0  0.12625598634E-01  0.20125677996E-02  0.53187948257E-02  0.13847228907E-01  0.00000000000E+00 0. -1.
     999901    1    3    3    0    0  0.22940612022E-03 -0.10735944062E+00  0.74949246947E-01  0.88968729997E+00  0.88000000000E+00 0. -1.
        -11    1    4    4    0    0 -0.16322880930E-01  0.87570840040E-02 -0.13254516360E-01  0.22783026293E-01  0.51100000000E-03 0.  1.
         11    1    4    4    0    0  0.34678761761E-02  0.96589788816E-01 -0.67013525412E-01  0.11761244483E+00  0.51100000000E-03 0. -1.
</event>
<event>
 8    1  0.2924722E+004  0.1043930E+01  0.7957747E-01            NaN
         13   -1    0    0    0    0  0.00000000000E+00  0.00000000000E+00  0.74505805969E-08  0.10566000000E+00  0.10566000000E+00 0. -1.
     999900   -1    0    0    0    0 -0.00000000000E+00 -0.00000000000E+00 -0.74505805969E-08  0.93827000000E+00  0.93827000000E+00 0. -1.
     999902    2    1    2    0    0 -0.35221321425E-02 -0.11817753543E-01  0.45800867394E-02  0.10307754605E+01  0.10306915194E+01 0.  0.
     999903    2    3    3    0    0 -0.68673106056E-01 -0.67445256610E-01  0.94524578182E-01  0.14205217401E+00  0.44486696050E-01 0.  0.
         14    1    1    2    0    0  0.35221321425E-02  0.11817753543E-01 -0.45800867394E-02  0.13154539451E-01  0.00000000000E+00 0. -1.
     999901    1    3    3    0    0  0.65150973913E-01  0.55627503067E-01 -0.89944491442E-01  0.88872328654E+00  0.88000000000E+00 0. -1.
        -11    1    4    4    0    0 -0.68591220931E-01 -0.43251897496E-01  0.79545536261E-01  0.11359241034E+00  0.51100000000E-03 0.  1.
         11    1    4    4    0    0 -0.81885124358E-04 -0.24193359115E-01  0.14979041921E-01  0.28459763672E-01  0.51100000000E-03 0. -1.
</event>
<event>
 8    1  0.2924722E+004  0.1043930E+01  0.7957747E-01            NaN
         13   -1    0    0    0    0  0.00000000000E+00  0.00000000000E+00  0.74505805969E-08  0.10566000000E+00  0.10566000000E+00 0. -1.
     999900   -1    0    0    0    0 -0.00000000000E+00 -0.00000000000E+00 -0.74505805969E-08  0.93827000000E+00  0.93827000000E+00 0.  1.
     999902    2    1    2    0    0  0.11044470595E-01 -0.69502316640E-02 -0.56104425047E-02  0.10297256656E+01  0.10296276916E+01 0.  0.
     999903    2    3    3    0    0 -0.10176148037E+00  0.80080718513E-01  0.14607883303E-01  0.13803718324E+00  0.45525304370E-01 0.  0.
         14    1    1    2    0    0 -0.11044470595E-01  0.69502316640E-02  0.56104425047E-02  0.14204334409E-01  0.00000000000E+00 0. -1.
     999901    1    3    3    0    0  0.11280595096E+00 -0.87030950177E-01 -0.20218325808E-01  0.89168848235E+00  0.88000000000E+00 0.  1.
        -11    1    4    4    0    0 -0.91903854509E-01  0.63903380207E-01  0.27311624706E-01  0.11522216124E+00  0.51100000000E-03 0. -1.
         11    1    4    4    0    0 -0.98576258571E-02  0.16177338305E-01 -0.12703741403E-01  0.22815021999E-01  0.51100000000E-03 0.  1.
</event>
<event>
 8    1  0.2924722E+004  0.1043930E+01  0.7957747E-01            NaN
         13   -1    0    0    0    0  0.00000000000E+00  0.00000000000E+00  0.74505805969E-08  0.10566000000E+00  0.10566000000E+00 0. -1.
     999900   -1    0    0    0    0 -0.00000000000E+00 -0.00000000000E+00 -0.74505805969E-08  0.93827000000E+00  0.93827000000E+00 0. -1.
     999902    2    1    2    0    0 -0.13849021334E-01 -0.24078879092E-02  0.42928511737E-02  0.10292323169E+01  0.10291273684E+01 0.  0.
     999903    2    3    3    0    0 -0.12842159904E+00  0.35601771887E-01  0.86463689826E-02  0.14098090945E+00  0.45180348281E-01 0.  0.
         14    1    1    2    0    0  0.13849021334E-01  0.24078879092E-02 -0.42928511737E-02  0.14697683059E-01  0.00000000000E+00 0. -1.
     999901    1    3    3    0    0  0.11457257770E+00 -0.38009659796E-01 -0.43535178089E-02  0.88825140749E+00  0.88000000000E+00 0. -1.
        -11    1    4    4    0    0 -0.88299794232E-01  0.28224098969E-01 -0.14875404601E-01  0.93888189923E-01  0.51100000000E-03 0.  1.
         11    1    4    4    0    0 -0.40121804806E-01  0.73776729180E-02  0.23521773584E-01  0.47092719523E-01  0.51100000000E-03 0. -1.
</event>
<event>
 8    1  0.2924722E+004  0.1043930E+01  0.7957747E-01            NaN
         13   -1    0    0    0    0  0.00000000000E+00  0.00000000000E+00  0.74505805969E-08  0.10566000000E+00  0.10566000000E+00 0.  1.
     999900   -1    0    0    0    0 -0.00000000000E+00 -0.00000000000E+00 -0.74505805969E-08  0.93827000000E+00  0.93827000000E+00 0. -1.
     999902    2    1    2    0    0 -0.77928602617E-02 -0.10064598552E-01  0.16427140815E-03  0.10312000432E+01  0.10311214658E+01 0.  0.
     999903    2    3    3    0    0 -0.83839870619E-01  0.10441387231E+00 -0.12709633566E-01  0.14043957848E+00  0.40377713916E-01 0.  0.
         14    1    1    2    0    0  0.77928602617E-02  0.10064598552E-01 -0.16427140815E-03  0.12729956802E-01  0.00000000000E+00 0.  1.
     999901    1    3    3    0    0  0.76047010358E-01 -0.11447847087E+00  0.12873904974E-01  0.89076046472E+00  0.88000000000E+00 0. -1.
        -11    1    4    4    0    0 -0.69084782653E-01  0.55229565087E-01 -0.10049053643E-01  0.89018293929E-01  0.51100000000E-03 0. -1.
         11    1    4    4    0    0 -0.14755087967E-01  0.49184307228E-01 -0.26605799222E-02  0.51421284551E-01  0.51100000000E-03 0.  1.
</event>
<event>
 8    1  0.2924722E+004  0.1043930E+01  0.7957747E-01            NaN
         13   -1    0    0    0    0  0.00000000000E+00  0.00000000000E+00  0.74505805969E-08  0.10566000000E+00  0.10566000000E+00 0.  1.
     999900   -1    0    0    0    0 -0.00000000000E+00 -0.00000000000E+00 -0.74505805969E-08  0.93827000000E+00  0.93827000000E+00 0. -1.
     999902    2    1    2    0    0  0.25251236811E-02  0.21172644062E-02 -0.13751352536E-01  0.10297893227E+01  0.10296922309E+01 0.  0.
     999903    2    3    3    0    0 -0.12076198084E+00  0.51672103309E-01  0.83900906200E-02  0.13953900076E+00  0.46338718530E-01 0.  0.
         14    1    1    2    0    0 -0.25251236811E-02 -0.21172644062E-02  0.13751352536E-01  0.14140677308E-01  0.00000000000E+00 0.  1.
     999901    1    3    3    0    0  0.12328710452E+00 -0.49554838903E-01 -0.22141443156E-01  0.89025032193E+00  0.88000000000E+00 0.  1.
        -11    1    4    4    0    0 -0.41493318084E-01  0.41691181484E-01  0.97829430736E-02  0.59630672941E-01  0.51100000000E-03 0. -1.
         11    1    4    4    0    0 -0.79268662755E-01  0.99809218250E-02 -0.13928524536E-02  0.79908327816E-01  0.51100000000E-03 0.  1.
</event>
<event>
 8    1  0.2924722E+004  0.1043930E+01  0.7957747E-01            NaN
         13   -1    0    0    0    0  0.00000000000E+00  0.00000000000E+00  0.74505805969E-08  0.10566000000E+00  0.10566000000E+00 0. -1.
     999900   -1    0    0    0    0 -0.00000000000E+00 -0.00000000000E+00 -0.74505805969E-08  0.93827000000E+00  0.93827000000E+00 0.  1.
     999902    2    1    2    0    0 -0.13937373592E-01 -0.89529982978E-03 -0.64402890721E-03  0.10299490588E+01  0.10298541629E+01 0.  0.
     999903    2    3    3    0    0  0.12190425190E+00  0.30337858377E-01 -0.36433260389E-01  0.13826002863E+00  0.44804249485E-01 0.  0.
         14    1    1    2    0    0  0.13937373592E-01  0.89529982978E-03  0.64402890721E-03  0.13980941230E-01  0.00000000000E+00 0. -1.
     999901    1    3    3    0    0 -0.13584162549E+00 -0.31233158207E-01  0.35789231481E-01  0.89168903014E+00  0.88000000000E+00 0. -1.
        -11    1    4    4    0    0  0.75317298291E-01 -0.29874773014E-02 -0.27750074782E-01  0.80324020155E-01  0.51100000000E-03 0.  1.
         11    1    4    4    0    0  0.46586953606E-01  0.33325335679E-01 -0.86831856071E-02  0.57936008472E-01  0.51100000000E-03 0. -1.
</event>
<event>
 8    1  0.2924722E+004  0.1043930E+01  0.7957747E-01            NaN
         13   -1    0    0    0    0  0.00000000000E+00  0.00000000000E+00  0.74505805969E-08  0.10566000000E+00  0.10566000000E+00 0.  1.
     999900   -1    0    0    0    0 -0.00000000000E+00 -0.00000000000E+00 -0.74505805969E-08  0.93827000000E+00  0.93827000000E+00 0. -1.
     999902    2    1    2    0    0  0.30177675076E-02 -0.13129777017E-01 -0.32102029579E-02  0.10300806907E+01  0.10299875853E+01 0.  0.
     999903    2    3    3    0    0  0.32506966692E-01  0.97696200176E-01  0.81167800924E-01  0.13863710996E+00  0.45064242355E-01 0.  0.
         14    1    1    2    0    0 -0.30177675076E-02  0.13129777017E-01  0.32102029579E-02  0.13849309307E-01  0.00000000000E+00 0.  1.
     999901    1    3    3    0    0 -0.29489199184E-01 -0.11082597719E+00 -0.84378003882E-01  0.89144358073E+00  0.88000000000E+00 0. -1.
        -11    1    4    4    0    0  0.43386524511E-01  0.86124248279E-01  0.68017045525E-01  0.11800998370E+00  0.51100000000E-03 0.  1.
         11    1    4    4    0    0 -0.10879557819E-01  0.11571951897E-01  0.13150755399E-01  0.20627126257E-01  0.51100000000E-03 0. -1.
</event>
<event>
 8    1  0.2924722E+004  0.1043930E+01  0.7957747E-01            NaN
         13   -1    0    0    0    0  0.00000000000E+00  0.00000000000E+00  0.74505805969E-08  0.10566000000E+00  0.10566000000E+00 0. -1.
     999900   -1    0    0    0    0 -0.00000000000E+00 -0.00000000000E+00 -0.74505805969E-08  0.93827000000E+00  0.93827000000E+00 0. -1.
     999902    2    1    2    0    0  0.65236914821E-02 -0.12395168388E-01 -0.77161927970E-03  0.10299016663E+01  0.10298061216E+01 0.  0.
     999903    2    3    3    0    0  0.61385437526E-01 -0.25207596534E-01  0.11561393380E+00  0.14045264221E+00  0.44235372188E-01 0.  0.
         14    1    1    2    0    0 -0.65236914821E-02  0.12395168388E-01  0.77161927970E-03  0.14028333694E-01  0.00000000000E+00 0. -1.
     999901    1    3    3    0    0 -0.54861746044E-01  0.12812428146E-01 -0.11638555308E+00  0.88944902409E+00  0.88000000000E+00 0.  1.
        -11    1    4    4    0    0  0.33748585148E-01  0.97870135183E-02  0.52287247945E-01  0.62999762315E-01  0.51100000000E-03 0. -1.
         11    1    4    4    0    0  0.27636852378E-01 -0.34994610053E-01  0.63326685855E-01  0.77452879898E-01  0.51100000000E-03 0.  1.
</event>
<event>
 8    1  0.2924722E+004  0.1043930E+01  0.7957747E-01            NaN
         13   -1    0    0    0    0  0.00000000000E+00  0.00000000000E+00  0.74505805969E-08  0.10566000000E+00  0.10566000000E+00 0. -1.
     999900   -1    0    0    0    0 -0.00000000000E+00 -0.00000000000E+00 -0.74505805969E-08  0.93827000000E+00  0.93827000000E+00 0. -1.
     999902    2    1    2    0    0 -0.13210719143E-01  0.36510652189E-02 -0.11164202867E-02  0.10301786447E+01  0.10300868606E+01 0.  0.
     999903    2    3    3    0    0  0.35693280550E-01  0.30943805307E-01 -0.12376420499E+00  0.13990959891E+00  0.45006533627E-01 0.  0.
         14    1    1    2    0    0  0.13210719143E-01 -0.36510652189E-02  0.11164202867E-02  0.13751355270E-01  0.00000000000E+00 0.  1.
     999901    1    3    3    0    0 -0.48903999692E-01 -0.27292740088E-01  0.12264778470E+00  0.89026904582E+00  0.88000000000E+00 0.  1.
        -11    1    4    4    0    0  0.43352687620E-02  0.20942391526E-01 -0.14624557409E-01  0.25913647340E-01  0.51100000000E-03 0.  1.
         11    1    4    4    0    0  0.31358011788E-01  0.10001413781E-01 -0.10913964758E+00  0.11399595157E+00  0.51100000000E-03 0. -1.
</event>
<event>
 8    1  0.2924722E+004  0.1043930E+01  0.7957747E-01            NaN
         13   -1    0    0    0    0  0.00000000000E+00  0.00000000000E+00  0.74505805969E-08  0.10566000000E+00  0.10566000000E+00 0. -1.
     999900   -1    0    0    0    0 -0.00000000000E+00 -0.00000000000E+00 -0.74505805969E-08  0.93827000000E+00  0.93827000000E+00 0. -1.
     999902    2    1    2    0    0  0.59806349242E-02 -0.69283611811E-02  0.97313072276E-02  0.10305707888E+01  0.10304841980E+01 0.  0.
     999903    2    3    3    0    0 -0.21179511607E-01  0.12848305509E+00 -0.29695016360E-01  0.13892716035E+00  0.38242577424E-01 0.  0.
         14    1    1    2    0    0 -0.59806349242E-02  0.69283611811E-02 -0.97313072276E-02  0.13359211171E-01  0.00000000000E+00 0.  1.
     999901    1    3    3    0    0  0.27160146532E-01 -0.13541141627E+00  0.39426323587E-01  0.89164362848E+00  0.88000000000E+00 0.  1.
        -11    1    4    4    0    0 -0.42608877173E-02  0.49681736045E-01  0.70228384324E-02  0.50358826846E-01  0.51100000000E-03 0. -1.
         11    1    4    4    0    0 -0.16918623890E-01  0.78801319048E-01 -0.36717854792E-01  0.88568333504E-01  0.51100000000E-03 0.  1.
</event>
<event>
 8    1  0.2924722E+004  0.1043930E+01  0.7957747E-01            NaN
         13   -1    0    0    0    0  0.00000000000E+00  0.00000000000E+00  0.74505805969E-08  0.10566000000E+00  0.10566000000E+00 0. -1.
     999900   -1    0    0    0    0 -0.00000000000E+00 -0.00000000000E+00 -0.74505805969E-08  0.93827000000E+00  0.93827000000E+00 0.  1.
     999902    2    1    2    0    0 -0.98201650118E-02  0.58766616798E-02 -0.79972821410E-02  0.10299683627E+01  0.10298737306E+01 0.  0.
     999903    2    3    3    0    0 -0.38496243721E-01 -0.12134004006E+00 -0.36865175410E-01  0.13988984825E+00  0.44774572963E-01 0.  0.
         14    1    1    2    0    0  0.98201650118E-02 -0.58766616798E-02  0.79972821410E-02  0.13961637261E-01  0.00000000000E+00 0. -1.
     999901    1    3    3    0    0  0.28676078709E-01  0.12721670174E+00  0.28867893269E-01  0.89007851449E+00  0.88000000000E+00 0.  1.
        -11    1    4    4    0    0 -0.17977803469E-01 -0.11081371361E-01  0.19393412052E-02  0.21213683653E-01  0.51100000000E-03 0. -1.
         11    1    4    4    0    0 -0.20518440252E-01 -0.11025866870E+00 -0.38804516615E-01  0.11867616460E+00  0.51100000000E-03 0.  1.
</event>
<event>
 8    1  0.2924722E+004  0.1043930E+01  0.7957747E-01            NaN
         13   -1    0    0    0    0  0.00000000000E+00  0.00000000000E+00  0.74505805969E-08  0.10566000000E+00  0.10566000000E+00 0. -1.
     999900   -1    0    0    0    0 -0.00000000000E+00 -0.00000000000E+00 -0.74505805969E-08  0.93827000000E+00  0.93827000000E+00 0.  1.
     999902    2    1    2    0    0  0.31730317245E-02  0.36375866703E-02  0.12321699909E-01  0.10306965403E+01  0.10306115824E+01 0.  0.
     999903    2    3    3    0    0 -0.22691633311E-01 -0.14080538323E-01 -0.12903839756E+00  0.13886382616E+00  0.43807332587E-01 0.  0.
         14    1    1    2    0    0 -0.31730317245E-02 -0.36375866703E-02 -0.12321699909E-01  0.13233459705E-01  0.00000000000E+00 0.  1.
     999901    1    3    3    0    0  0.25864665035E-01  0.17718124993E-01  0.14136009747E+00  0.89183271414E+00  0.88000000000E+00 0. -1.
        -11    1    4    4    0    0  0.58814686876E-02  0.11261546246E-01 -0.40183926935E-01  0.42147635790E-01  0.51100000000E-03 0.  1.
         11    1    4    4    0    0 -0.28573101998E-01 -0.25342084569E-01 -0.88854470625E-01  0.96716190367E-01  0.51100000000E-03 0. -1.
</event>
<event>
 8    1  0.2924722E+004  0.1043930E+01  0.7957747E-01            NaN
         13   -1    0    0    0    0  0.00000000000E+00  0.00000000000E+00  0.74505805969E-08  0.10566000000E+00  0.10566000000E+00 0.  1.
     999900   -1    0    0    0    0 -0.00000000000E+00 -0.00000000000E+00 -0.74505805969E-08  0.93827000000E+00  0.93827000000E+00 0.  1.
     999902    2    1    2    0    0 -0.12822115481E-01 -0.30925945272E-02  0.19447055070E-02  0.10305976084E+01  0.10305113671E+01 0.  0.
     999903    2    3    3    0    0 -0.90651785572E-01  0.21957412528E-01  0.96214630605E-01  0.14179404226E+00  0.46351063481E-01 0.  0.
         14    1    1    2    0    0  0.12822115481E-01  0.30925945272E-02 -0.19447055070E-02  0.13332391602E-01  0.00000000000E+00 0. -1.
     999901    1    3    3    0    0  0.77829670091E-01 -0.25050007055E-01 -0.94269925098E-01  0.88880356614E+00  0.88000000000E+00 0.  1.
        -11    1    4    4    0    0 -0.53257737921E-01  0.14837571689E-01  0.24233989462E-01  0.60366278238E-01  0.51100000000E-03 0. -1.
         11    1    4    4    0    0 -0.37394047651E-01  0.71198408389E-02  0.71980641143E-01  0.81427764022E-01  0.51100000000E-03 0.  1.
</event>
<event>
 8    1  0.2924722E+004  0.1043930E+01  0.7957747E-01            NaN
         13   -1    0    0    0    0  0.00000000000E+00  0.00000000000E+00  0.74505805969E-08  0.10566000000E+00  0.10566000000E+00 0.  1.
     999900   -1    0    0    0    0 -0.00000000000E+00 -0.00000000000E+00 -0.74505805969E-08  0.93827000000E+00  0.93827000000E+00 0. -1.
     999902    2    1    2    0    0 -0.13835915788E-01  0.12006337726E-02 -0.59404014364E-03  0.10300293896E+01  0.10299355885E+01 0.  0.
     999903    2    3    3    0    0 -0.12233466956E+00 -0.34525502829E-01  0.43105421844E-01  0.14157118604E+00  0.45017125673E-01 0.  0.
         14    1    1    2    0    0  0.13835915788E-01 -0.12006337726E-02  0.59404014364E-03  0.13900610449E-01  0.00000000000E+00 0. -1.
     999901    1    3    3    0    0  0.10849875377E+00  0.35726136602E-01 -0.43699461987E-01  0.88845820351E+00  0.88000000000E+00 0.  1.
        -11    1    4    4    0    0 -0.63783762183E-01  0.10270277430E-02  0.34516790923E-01  0.72533392867E-01  0.51100000000E-03 0. -1.
         11    1    4    4    0    0 -0.58550907373E-01 -0.35552530572E-01  0.85886309209E-02  0.69037793174E-01  0.51100000000E-03 0.  1.
</event>
<event>
 8    1  0.2924722E+004  0.1043930E+01  0.7957747E-01            NaN
         13   -1    0    0    0    0  0.00000000000E+00  0.00000000000E+00  0.74505805969E-08  0.10566000000E+00  0.10566000000E+00 0. -1.
     999900   -1    0    0    0    0 -0.00000000000E+00 -0.00000000000E+00 -0.74505805969E-08  0.93827000000E+00  0.93827000000E+00 0. -1.
     999902    2    1    2    0    0 -0.13893644573E-01  0.20267009091E-02 -0.34585675586E-02  0.10294696208E+01  0.10293680574E+01 0.  0.
     999903    2    3    3    0    0  0.10216055164E+00  0.75116079179E-01 -0.32669483343E-01  0.13836698293E+00  0.44709318500E-01 0.  0.
         14    1    1    2    0    0  0.13893644573E-01 -0.20267009091E-02  0.34585675586E-02  0.14460379167E-01  0.00000000000E+00 0. -1.
     999901    1    3    3    0    0 -0.11605419621E+00 -0.73089378270E-01  0.29210915784E-01  0.89110263790E+00  0.88000000000E+00 0.  1.
        -11    1    4    4    0    0  0.94219879057E-01  0.47139611920E-01 -0.24797175219E-01  0.10823441985E+00  0.51100000000E-03 0. -1.
         11    1    4    4    0    0  0.79406725849E-02  0.27976467259E-01 -0.78723081238E-02  0.30132563077E-01  0.51100000000E-03 0.  1.
</event>
<event>
 8    1  0.2924722E+004  0.1043930E+01  0.7957747E-01            NaN
         13   -1    0    0    0    0  0.00000000000E+00  0.00000000000E+00  0.74505805969E-08  0.10566000000E+00  0.10566000000E+00 0.  1.
     999900   -1    0    0    0    0 -0.00000000000E+00 -0.00000000000E+00 -0.74505805969E-08  0.93827000000E+00  0.93827000000E+00 0.  1.
     999902    2    1    2    0    0  0.12197548095E-01  0.58350769370E-02 -0.75766665530E-03  0.10303873872E+01  0.10302983866E+01 0.  0.
     999903    2    3    3    0    0  0.10006464319E+00  0.36347359352E-01 -0.82719580031E-01  0.14169768826E+00  0.43607827164E-01 0.  0.
         14    1    1    2    0    0 -0.12197548095E-01 -0.58350769370E-02  0.75766665530E-03  0.13542612789E-01  0.00000000000E+00 0.  1.
     999901    1    3    3    0    0 -0.87867095091E-01 -0.30512282415E-01  0.81961913375E-01  0.88868969895E+00  0.88000000000E+00 0. -1.
        -11    1    4    4    0    0  0.84755178457E-01  0.31287947480E-01 -0.86553417508E-01  0.12511647028E+00  0.51100000000E-03 0.  1.
         11    1    4    4    0    0  0.15309464729E-01  0.50594118715E-02  0.38338374777E-02  0.16581217976E-01  0.51100000000E-03 0. -1.
</event>
<event>
 8    1  0.2924722E+004  0.1043930E+01  0.7957747E-01            NaN
         13   -1    0    0    0    0  0.00000000000E+00  0.00000000000E+00  0.74505805969E-08  0.10566000000E+00  0.10566000000E+00 0. -1.
     999900   -1    0    0    0    0 -0.00000000000E+00 -0.00000000000E+00 -0.74505805969E-08  0.93827000000E+00  0.93827000000E+00 0.  1.
     999902    2    1    2    0    0  0.25274063551E-02  0.79048914173E-02  0.11218565314E-01  0.10299753843E+01  0.10298808480E+01 0.  0.
     999903    2    3    3    0    0  0.24999520217E-01  0.11148601844E+00 -0.67093787545E-01  0.14016255547E+00  0.45714957173E-01 0.  0.
         14    1    1    2    0    0 -0.25274063551E-02 -0.79048914173E-02 -0.11218565314E-01  0.13954615685E-01  0.00000000000E+00 0.  1.
     999901    1    3    3    0    0 -0.22472113862E-01 -0.10358112702E+00  0.78312352858E-01  0.88981282885E+00  0.88000000000E+00 0. -1.
        -11    1    4    4    0    0  0.37818687190E-01  0.85396106868E-01 -0.56841758139E-01  0.10933432562E+00  0.51100000000E-03 0. -1.
         11    1    4    4    0    0 -0.12819166973E-01  0.26089911569E-01 -0.10252029405E-01  0.30828229847E-01  0.51100000000E-03 0.  1.
</event>
<event>
 8    1  0.2924722E+004  0.1043930E+01  0.7957747E-01            NaN
         13   -1    0    0    0    0  0.00000000000E+00  0.00000000000E+00  0.74505805969E-08  0.10566000000E+00  0.10566000000E+00 0. -1.
     999900   -1    0    0    0    0 -0.00000000000E+00 -0.00000000000E+00 -0.74505805969E-08  0.93827000000E+00  0.93827000000E+00 0. -1.
     999902    2    1    2    0    0  0.60293758148E-02 -0.93331716336E-02 -0.55560343324E-02  0.10315069978E+01  0.10314321866E+01 0.  0.
     999903    2    3    3    0    0  0.44779593968E-01  0.12225149955E+00  0.23848718765E-01  0.14039491475E+00  0.46811638749E-01 0.  0.
         14    1    1    2    0    0 -0.60293758148E-02  0.93331716336E-02  0.55560343324E-02  0.12423002172E-01  0.00000000000E+00 0. -1.
     999901    1    3    3    0    0 -0.38750218153E-01 -0.13158467119E+00 -0.29404753098E-01  0.89111208308E+00  0.88000000000E+00 0. -1.
        -11    1    4    4    0    0  0.84967945474E-02  0.66195401127E-01 -0.64803586111E-02  0.67054327352E-01  0.51100000000E-03 0. -1.
         11    1    4    4    0    0  0.36282799420E-01  0.56056098427E-01  0.30329077377E-01  0.73340587400E-01  0.51100000000E-03 0.  1.
</event>
<event>
 8    1  0.2924722E+004  0.1043930E+01  0.7957747E-01            NaN
         13   -1    0    0    0    0  0.00000000000E+00  0.00000000000E+00  0.74505805969E-08  0.10566000000E+00  0.10566000000E+00 0. -1.
     999900   -1    0    0    0    0 -0.00000000000E+00 -0.00000000000E+00 -0.74505805969E-08  0.93827000000E+00  0.93827000000E+00 0.  1.
     999902    2    1    2    0    0 -0.15686660684E-02 -0.22135972375E-02 -0.63566931457E-02  0.10370185404E+01  0.10369955086E+01 0.  0.
     999903    2    3    3    0    0 -0.99666805591E-02  0.58938568467E-01  0.12474235647E+00  0.14516817469E+00  0.44046042618E-01 0.  0.
         14    1    1    2    0    0  0.15686660684E-02  0.22135972375E-02  0.63566931457E-02  0.69114595935E-02  0.00000000000E+00 0. -1.
     999901    1    3    3    0    0  0.83980144906E-02 -0.61152165704E-01 -0.13109904962E+00  0.89185036572E+00  0.88000000000E+00 0.  1.
        -11    1    4    4    0    0 -0.91013546713E-04  0.56806308484E-01  0.73280240680E-01  0.92721193706E-01  0.51100000000E-03 0. -1.
         11    1    4    4    0    0 -0.98756670124E-02  0.21322599827E-02  0.51462115792E-01  0.52446980984E-01  0.51100000000E-03 0.  1.
</event>
<event>
 8    1  0.2924722E+004  0.1043930E+01  0.7957747E-01            NaN
         13   -1    0    0    0    0  0.00000000000E+00  0.00000000000E+00  0.74505805969E-08  0.10566000000E+00  0.10566000000E+00 0. -1.
     999900   -1    0    0    0    0 -0.00000000000E+00 -0.00000000000E+00 -0.74505805969E-08  0.93827000000E+00  0.93827000000E+00 0. -1.
     999902    2    1    2    0    0  0.71478693719E-02  0.10745343498E-01  0.39434368690E-04  0.10310243424E+01  0.10309435671E+01 0.  0.
     999903    2    3    3    0    0  0.12112444037E+00  0.56502211776E-01  0.19981610408E-01  0.14227126075E+00  0.44477150212E-01 0.  0.
         14    1    1    2    0    0 -0.71478693719E-02 -0.10745343498E-01 -0.39434368690E-04  0.12905657616E-01  0.00000000000E+00 0. -1.
     999901    1    3    3    0    0 -0.11397657099E+00 -0.45756868279E-01 -0.19942176039E-01  0.88875308163E+00  0.88000000000E+00 0. -1.
        -11    1    4    4    0    0  0.17035134700E-01  0.26157591905E-01 -0.32447311190E-02  0.31387972689E-01  0.51100000000E-03 0. -1.
         11    1    4    4    0    0  0.10408930567E+00  0.30344619871E-01  0.23226341527E-01  0.11088328806E+00  0.51100000000E-03 0.  1.
</event>
<event>
 8    1  0.2924722E+004  0.1043930E+01  0.7957747E-01            NaN
         13   -1    0    0    0    0  0.00000000000E+00  0.00000000000E+00  0.74505805969E-08  0.10566000000E+00  0.10566000000E+00 0.  1.
     999900   -1    0    0    0    0 -0.00000000000E+00 -0.00000000000E+00 -0.74505805969E-08  0.93827000000E+00  0.93827000000E+00 0.  1.
     999902    2    1    2    0    0  0.26875851795E-02  0.12788078707E-01  0.50893397347E-02  0.10299064680E+01  0.10298109891E+01 0.  0.
     999903    2    3    3    0    0  0.19400999428E-01  0.10712694073E+00 -0.77001105779E-01  0.14090815509E+00  0.45534137413E-01 0.  0.
         14    1    1    2    0    0 -0.26875851795E-02 -0.12788078707E-01 -0.50893397347E-02  0.14023532010E-01  0.00000000000E+00 0. -1.
     999901    1    3    3    0    0 -0.16713414249E-01 -0.94338862021E-01  0.82090445513E-01  0.88899831290E+00  0.88000000000E+00 0.  1.
        -11    1    4    4    0    0  0.32958239819E-01  0.61022258186E-01 -0.38474797413E-01  0.79312878671E-01  0.51100000000E-03 0. -1.
         11    1    4    4    0    0 -0.13557240391E-01  0.46104682541E-01 -0.38526308366E-01  0.61595276414E-01  0.51100000000E-03 0.  1.
</event>
<event>
 8    1  0.2924722E+004  0.1043930E+01  0.7957747E-01            NaN
         13   -1    0    0    0    0  0.00000000000E+00  0.00000000000E+00  0.74505805969E-08  0.10566000000E+00  0.10566000000E+00 0. -1.
     999900   -1    0    0    0    0 -0.00000000000E+00 -0.00000000000E+00 -0.74505805969E-08  0.93827000000E+00  0.93827000000E+00 0. -1.
     999902    2    1    2    0    0 -0.14211828185E-02  0.11351013415E-01  0.10052782003E-01  0.10287009589E+01  0.10285882263E+01 0.  0.
     999903    2    3    3    0    0 -0.77189342428E-02 -0.51036622293E-01  0.12135678465E+00  0.13947631927E+00  0.45407661184E-01 0.  0.
         14    1    1    2    0    0  0.14211828185E-02 -0.11351013415E-01 -0.10052782003E-01  0.15229041078E-01  0.00000000000E+00 0. -1.
     999901    1    3    3    0    0  0.62977514243E-02  0.62387635708E-01 -0.11130400265E+00  0.88922463965E+00  0.88000000000E+00 0. -1.
        -11    1    4    4    0    0  0.16464753490E-01 -0.59943431790E-02  0.27930376260E-01  0.32975556048E-01  0.51100000000E-03 0. -1.
         11    1    4    4    0    0 -0.24183687733E-01 -0.45042279114E-01  0.93426408394E-01  0.10650076322E+00  0.51100000000E-03 0.  1.
</event>
<event>
 8    1  0.2924722E+004  0.1043930E+01  0.7957747E-01            NaN
         13   -1    0    0    0    0  0.00000000000E+00  0.00000000000E+00  0.74505805969E-08  0.10566000000E+00  0.10566000000E+00 0.  1.
     999900   -1    0    0    0    0 -0.00000000000E+00 -0.00000000000E+00 -0.74505805969E-08  0.93827000000E+00  0.93827000000E+00 0.  1.
     999902    2    1    2    0    0 -0.11590672362E-01  0.12510366323E-01  0.41995488953E-02  0.10263661405E+01  0.10262158472E+01 0.  0.
     999903    2    3    3    0    0 -0.51850908307E-01  0.65428911174E-01 -0.10165971292E+00  0.13753126135E+00  0.40133421343E-01 0.  0.
         14    1    1    2    0    0  0.11590672362E-01 -0.12510366323E-01 -0.41995488953E-02  0.17563859550E-01  0.00000000000E+00 0.  1.
     999901    1    3    3    0    0  0.40260235945E-01 -0.52918544851E-01  0.10585926182E+00  0.88883487910E+00  0.88000000000E+00 0. -1.
        -11    1    4    4    0    0 -0.51926804239E-01  0.44843785581E-01 -0.60363100899E-01  0.91385574217E-01  0.51100000000E-03 0.  1.
         11    1    4    4    0    0  0.75895932393E-04  0.20585125593E-01 -0.41296612022E-01  0.46145687137E-01  0.51100000000E-03 0. -1.
</event>
<event>
 7    1  0.2924722E+004  0.1043930E+01  0.7957747E-01            NaN
         13   -1    0    0    0    0  0.00000000000E+00  0.00000000000E+00  0.74505805969E-08  0.10566000000E+00  0.10566000000E+00 0.  1.
     999900   -1    0    0    0    0 -0.00000000000E+00 -0.00000000000E+00 -0.74505805969E-08  0.93827000000E+00  0.93827000000E+00 0.  1.
     999902    2    1    2    0    0 -0.11424456734E-01  0.58065803021E-02 -0.14729503201E-02  0.10310302260E+01  0.10309495248E+01 0.  0.
         14    1    1    2    0    0  0.11424456734E-01 -0.58065803021E-02  0.14729503201E-02  0.12899773995E-01  0.00000000000E+00 0.  1.
     999901    1    3    3    0    0  0.65068142423E-01  0.75563478180E-01  0.91640779875E-01  0.89036045225E+00  0.88000000000E+00 0.  1.
        -11    1    3    3    0    0 -0.44216222200E-01 -0.52769895952E-01 -0.57691569054E-01  0.89823796876E-01  0.51100000000E-03 0.  1.
         11    1    3    3    0    0 -0.32276376957E-01 -0.16987001926E-01 -0.35422161142E-01  0.50845976880E-01  0.51100000000E-03 0. -1.
</event>
<event>
 8    1  0.2924722E+004  0.1043930E+01  0.7957747E-01            NaN
         13   -1    0    0    0    0  0.00000000000E+00  0.00000000000E+00  0.74505805969E-08  0.10566000000E+00  0.10566000000E+00 0. -1.
     999900   -1    0    0    0    0 -0.00000000000E+00 -0.00000000000E+00 -0.74505805969E-08  0.93827000000E+00  0.93827000000E+00 0.  1.
     999902    2    1    2    0    0  0.10358089463E-01  0.43610387314E-02  0.55302819861E-02  0.10314043186E+01  0.10313282580E+01 0.  0.
     999903    2    3    3    0    0 -0.11334728103E+00  0.66007986634E-01  0.21209629665E-01  0.14047827967E+00  0.45603050905E-01 0.  0.
         14    1    1    2    0    0 -0.10358089463E-01 -0.43610387314E-02 -0.55302819861E-02  0.12525681418E-01  0.00000000000E+00 0.  1.
     999901    1    3    3    0    0  0.12370537049E+00 -0.61646947903E-01 -0.15679347679E-01  0.89092603892E+00  0.88000000000E+00 0.  1.
        -11    1    4    4    0    0  0.10995857626E-02  0.10347924395E-01 -0.31883974628E-02  0.10895670127E-01  0.51100000000E-03 0.  1.
         11    1    4    4    0    0 -0.11444686679E+00  0.55660062239E-01  0.24398027128E-01  0.12958260954E+00  0.51100000000E-03 0. -1.
</event>
<event>
 8    1  0.2924722E+004  0.1043930E+01  0.7957747E-01            NaN
         13   -1    0    0    0    0  0.00000000000E+00  0.00000000000E+00  0.74505805969E-08  0.10566000000E+00  0.10566000000E+00 0. -1.
     999900   -1    0    0    0    0 -0.00000000000E+00 -0.00000000000E+00 -0.74505805969E-08  0.93827000000E+00  0.93827000000E+00 0.  1.
     999902    2    1    2    0    0  0.34394251039E-02  0.13967529633E-01  0.96875931247E-03  0.10295126485E+01  0.10294116929E+01 0.  0.
     999903    2    3    3    0    0 -0.10300469653E+00  0.56146933856E-01  0.62601045695E-01  0.13995770817E+00  0.43667189805E-01 0.  0.
         14    1    1    2    0    0 -0.34394251039E-02 -0.13967529633E-01 -0.96875931247E-03  0.14417351480E-01  0.00000000000E+00 0.  1.
     999901    1    3    3    0    0  0.10644412164E+00 -0.42179404222E-01 -0.61632286383E-01  0.88955494035E+00  0.88000000000E+00 0.  1.
        -11    1    4    4    0    0 -0.60722685715E-01  0.40640684415E-01  0.15319527920E-01  0.74658280498E-01  0.51100000000E-03 0. -1.
         11    1    4    4    0    0 -0.42282010818E-01  0.15506249440E-01  0.47281517775E-01  0.65299427674E-01  0.51100000000E-03 0.  1.
</event>
<event>
 8    1  0.2924722E+004  0.1043930E+01  0.7957747E-01            NaN
         13   -1    0    0    0    0  0.00000000000E+00  0.00000000000E+00  0.74505805969E-08  0.10566000000E+00  0.10566000000E+00 0.  1.
     999900   -1    0    0    0    0 -0.00000000000E+00 -0.00000000000E+00 -0.74505805969E-08  0.93827000000E+00  0.93827000000E+00 0.  1.
     999902    2    1    2    0    0 -0.81795693197E-02  0.57669333856E-02  0.82606445871E-02  0.10309530541E+01  0.10308713784E+01 0.  0.
     999903    2    3    3    0    0 -0.33506957440E-02  0.10127455731E+00  0.88866979280E-01  0.14210975780E+00  0.45056410594E-01 0.  0.
         14    1    1    2    0    0  0.81795693197E-02 -0.57669333856E-02 -0.82606445871E-02  0.12976945863E-01  0.00000000000E+00 0. -1.
     999901    1    3    3    0    0 -0.48288735757E-02 -0.95507623926E-01 -0.80606334693E-01  0.88884329634E+00  0.88000000000E+00 0.  1.
        -11    1    4    4    0    0 -0.96349619870E-02  0.68237162136E-02  0.25760452301E-01  0.28341799859E-01  0.51100000000E-03 0. -1.
         11    1    4    4    0    0  0.62842662430E-02  0.94450841098E-01  0.63106526978E-01  0.11376795794E+00  0.51100000000E-03 0.  1.
</event>
<event>
 8    1  0.2924722E+004  0.1043930E+01  0.7957747E-01            NaN
         13   -1    0    0    0    0  0.00000000000E+00  0.00000000000E+00  0.74505805969E-08  0.10566000000E+00  0.10566000000E+00 0. -1.
     999900   -1    0    0    0    0 -0.00000000000E+00 -0.00000000000E+00 -0.74505805969E-08  0.93827000000E+00  0.93827000000E+00 0. -1.
     999902    2    1    2    0    0 -0.70697376561E-02 -0.10094757203E-01  0.70388648267E-02  0.10297373635E+01  0.10296395519E+01 0.  0.
     999903    2    3    3    0    0  0.80145996630E-01  0.85322113502E-01  0.59745498009E-01  0.13873290069E+00  0.44430275407E-01 0.  0.
         14    1    1    2    0    0  0.70697376561E-02  0.10094757203E-01 -0.70388648267E-02  0.14192636526E-01  0.00000000000E+00 0. -1.
     999901    1    3    3    0    0 -0.87215734286E-01 -0.95416870705E-01 -0.52706633183E-01  0.89100446279E+00  0.88000000000E+00 0. -1.
        -11    1    4    4    0    0  0.42097621867E-01  0.17168914044E-01  0.33155176779E-01  0.56271735752E-01  0.51100000000E-03 0. -1.
         11    1    4    4    0    0  0.38048374763E-01  0.68153199458E-01  0.26590321231E-01  0.82461164936E-01  0.51100000000E-03 0.  1.
</event>
<event>
 8    1  0.2924722E+004  0.1043930E+01  0.7957747E-01            NaN
         13   -1    0    0    0    0  0.00000000000E+00  0.00000000000E+00  0.74505805969E-08  0.10566000000E+00  0.10566000000E+00 0.  1.
     999900   -1    0    0    0    0 -0.00000000000E+00 -0.00000000000E+00 -0.74505805969E-08  0.93827000000E+00  0.93827000000E+00 0.  1.
     999902    2    1    2    0    0 -0.71574143001E-02  0.65315174675E-02 -0.69269289058E-02  0.10320190116E+01  0.10319502743E+01 0.  0.
     999903    2    3    3    0    0 -0.51973104232E-01 -0.44461182027E-01  0.11482297904E+00  0.14104665429E+00  0.45075956981E-01 0.  0.
         14    1    1    2    0    0  0.71574143001E-02 -0.65315174675E-02  0.69269289058E-02  0.11910988370E-01  0.00000000000E+00 0.  1.
     999901    1    3    3    0    0  0.44815689932E-01  0.50992699495E-01 -0.12174990795E+00  0.89097235734E+00  0.88000000000E+00 0.  1.
        -11    1    4    4    0    0 -0.23088909080E-01 -0.40326052805E-01  0.42172881744E-01  0.62754293343E-01  0.51100000000E-03 0. -1.
         11    1    4    4    0    0 -0.28884195152E-01 -0.41351292220E-02  0.72650097300E-01  0.78292360942E-01  0.51100000000E-03 0.  1.
</event>
<event>
 8    1  0.2924722E+004  0.1043930E+01  0.7957747E-01            NaN
         13   -1    0    0    0    0  0.00000000000E+00  0.00000000000E+00  0.74505805969E-08  0.10566000000E+00  0.10566000000E+00 0. -1.
     999900   -1    0    0    0    0 -0.00000000000E+00 -0.00000000000E+00 -0.74505805969E-08  0.93827000000E+00  0.93827000000E+00 0.  1.
     999902    2    1    2    0    0  0.12894066537E-01 -0.44383433851E-02 -0.17485603319E-02  0.10301817889E+01  0.10300900470E+01 0.  0.
     999903    2    3    3    0    0 -0.68984520942E-01  0.11118929942E+00 -0.93760201192E-02  0.13881652543E+00  0.45389354969E-01 0.  0.
         14    1    1    2    0    0 -0.12894066537E-01  0.44383433851E-02  0.17485603319E-02  0.13748211051E-01  0.00000000000E+00 0. -1.
     999901    1    3    3    0    0  0.81878587479E-01 -0.11562764280E+00  0.76274597873E-02  0.89136526352E+00  0.88000000000E+00 0. -1.
        -11    1    4    4    0    0 -0.24689413799E-01  0.72823788917E-01  0.89490776509E-02  0.77415880139E-01  0.51100000000E-03 0.  1.
         11    1    4    4    0    0 -0.44295107142E-01  0.38365510499E-01 -0.18325097770E-01  0.61400645289E-01  0.51100000000E-03 0. -1.
</event>
<event>
 8    1  0.2924722E+004  0.1043930E+01  0.7957747E-01            NaN
         13   -1    0    0    0    0  0.00000000000E+00  0.00000000000E+00  0.74505805969E-08  0.10566000000E+00  0.10566000000E+00 0. -1.
     999900   -1    0    0    0    0 -0.00000000000E+00 -0.00000000000E+00 -0.74505805969E-08  0.93827000000E+00  0.93827000000E+00 0. -1.
     999902    2    1    2    0    0  0.14587826403E-01 -0.84137692549E-03 -0.37987429872E-02  0.10288322173E+01  0.10287214338E+01 0.  0.
     999903    2    3    3    0    0  0.69370961090E-02  0.24367722326E-01 -0.12929703731E+00  0.13953819717E+00  0.45948617139E-01 0.  0.
         14    1    1    2    0    0 -0.14587826403E-01  0.84137692549E-03  0.37987429872E-02  0.15097782704E-01  0.00000000000E+00 0. -1.
     999901    1    3    3    0    0  0.76507302941E-02 -0.25209099252E-01  0.12549829432E+00  0.88929402013E+00  0.88000000000E+00 0.  1.
        -11    1    4    4    0    0 -0.11575607411E-01  0.10249049406E-01 -0.10403954973E+00  0.10518330062E+00  0.51100000000E-03 0. -1.
         11    1    4    4    0    0  0.18512703520E-01  0.14118672920E-01 -0.25257487583E-01  0.34354896545E-01  0.51100000000E-03 0.  1.
</event>
<event>
 8    1  0.2924722E+004  0.1043930E+01  0.7957747E-01            NaN
         13   -1    0    0    0    0  0.00000000000E+00  0.00000000000E+00  0.74505805969E-08  0.10566000000E+00  0.10566000000E+00 0. -1.
     999900   -1    0    0    0    0 -0.00000000000E+00 -0.00000000000E+00 -0.74505805969E-08  0.93827000000E+00  0.93827000000E+00 0. -1.
     999902    2    1    2    0    0 -0.24776260494E-02 -0.80519821514E-02 -0.10916676497E-01  0.10301406246E+01  0.10300483288E+01 0.  0.
     999903    2    3    3    0    0  0.86580786669E-01  0.59547421885E-01 -0.82490505618E-01  0.14018338222E+00  0.42480219629E-01 0.  0.
         14    1    1    2    0    0  0.24776260494E-02  0.80519821514E-02  0.10916676497E-01  0.13789375372E-01  0.00000000000E+00 0. -1.
     999901    1    3    3    0    0 -0.89058412719E-01 -0.67599404036E-01  0.71573829121E-01  0.88995724241E+00  0.88000000000E+00 0.  1.
        -11    1    4    4    0    0  0.20508087323E-01  0.90196834301E-02 -0.42150780739E-01  0.47737676658E-01  0.51100000000E-03 0. -1.
         11    1    4    4    0    0  0.66072699346E-01  0.50527738455E-01 -0.40339724880E-01  0.92445705561E-01  0.51100000000E-03 0.  1.
</event>
<event>
 8    1  0.2924722E+004  0.1043930E+01  0.7957747E-01            NaN
         13   -1    0    0    0    0  0.00000000000E+00  0.00000000000E+00  0.74505805969E-08  0.10566000000E+00  0.10566000000E+00 0.  1.
     999900   -1    0    0    0    0 -0.00000000000E+00 -0.00000000000E+00 -0.74505805969E-08  0.93827000000E+00  0.93827000000E+00 0. -1.
     999902    2    1    2    0    0  0.12247912403E-01  0.10299992326E-03 -0.63468509200E-02  0.10301349109E+01  0.10300425380E+01 0.  0.
     999903    2    3    3    0    0  0.25408837362E-01  0.75245060896E-01 -0.10759932669E+00  0.14105021125E+00  0.44834348259E-01 0.  0.
         14    1    1    2    0    0 -0.12247912403E-01 -0.10299992326E-03  0.63468509200E-02  0.13795089119E-01  0.00000000000E+00 0.  1.
     999901    1    3    3    0    0 -0.13160924959E-01 -0.75142060972E-01  0.10125247577E+00  0.88908469963E+00  0.88000000000E+00 0.  1.
        -11    1    4    4    0    0 -0.23496077708E-02  0.82909069908E-02 -0.43319246531E-01  0.44171009004E-01  0.51100000000E-03 0.  1.
         11    1    4    4    0    0  0.27758445133E-01  0.66954153905E-01 -0.64280080158E-01  0.96879202244E-01  0.51100000000E-03 0. -1.
</event>
<event>
 8    1  0.2924722E+004  0.1043930E+01  0.7957747E-01            NaN
         13   -1    0    0    0    0  0.00000000000E+00  0.00000000000E+00  0.74505805969E-08  0.10566000000E+00  0.10566000000E+00 0.  1.
     999900   -1    0    0    0    0 -0.00000000000E+00 -0.00000000000E+00 -0.74505805969E-08  0.93827000000E+00  0.93827000000E+00 0. -1.
     999902    2    1    2    0    0  0.44322560889E-02 -0.86879543212E-02  0.69949404557E-02  0.10319277237E+01  0.10318579225E+01 0.  0.
     999903    2    3    3    0    0 -0.44784338607E-01 -0.10613453100E+00 -0.69785744663E-01  0.14186402817E+00  0.44555321501E-01 0.  0.
         14    1    1    2    0    0 -0.44322560889E-02  0.86879543212E-02 -0.69949404557E-02  0.12002276297E-01  0.00000000000E+00 0.  1.
     999901    1    3    3    0    0  0.49216594696E-01  0.97446576684E-01  0.76780685119E-01  0.89006369553E+00  0.88000000000E+00 0.  1.
        -11    1    4    4    0    0 -0.18002991871E-01 -0.56276419462E-01 -0.60394816008E-01  0.84492236480E-01  0.51100000000E-03 0.  1.
         11    1    4    4    0    0 -0.26781346736E-01 -0.49858111542E-01 -0.93909286553E-02  0.57371791689E-01  0.51100000000E-03 0. -1.
</event>
<event>
 8    1  0.2924722E+004  0.1043930E+01  0.7957747E-01            NaN
         13   -1    0    0    0    0  0.00000000000E+00  0.00000000000E+00  0.74505805969E-08  0.10566000000E+00  0.10566000000E+00 0. -1.
     999900   -1    0    0    0    0 -0.00000000000E+00 -0.00000000000E+00 -0.74505805969E-08  0.93827000000E+00  0.93827000000E+00 0.  1.
     999902    2    1    2    0    0 -0.10621301755E-01  0.36286785216E-02 -0.84019830232E-02  0.10299095621E+01  0.10298141257E+01 0.  0.
     999903    2    3    3    0    0  0.52248377778E-01  0.62185515792E-01  0.10318494637E+00  0.13871197317E+00  0.44687212802E-01 0.  0.
         14    1    1    2    0    0  0.10621301755E-01 -0.36286785216E-02  0.84019830232E-02  0.14020437850E-01  0.00000000000E+00 0. -1.
     999901    1    3    3    0    0 -0.62869679533E-01 -0.58556837270E-01 -0.11158692939E+00  0.89119758898E+00  0.88000000000E+00 0.  1.
        -11    1    4    4    0    0  0.36775536390E-02  0.23582727549E-01  0.55638697739E-01  0.60544159475E-01  0.51100000000E-03 0. -1.
         11    1    4    4    0    0  0.48570824139E-01  0.38602788243E-01  0.47546248631E-01  0.78167813693E-01  0.51100000000E-03 0.  1.
</event>
<event>
 8    1  0.2924722E+004  0.1043930E+01  0.7957747E-01            NaN
         13   -1    0    0    0    0  0.00000000000E+00  0.00000000000E+00  0.74505805969E-08  0.10566000000E+00  0.10566000000E+00 0. -1.
     999900   -1    0    0    0    0 -0.00000000000E+00 -0.00000000000E+00 -0.74505805969E-08  0.93827000000E+00  0.93827000000E+00 0. -1.
     999902    2    1    2    0    0  0.75369386371E-02  0.13497256892E-01  0.87738385827E-02  0.10261546904E+01  0.10260007247E+01 0.  0.
     999903    2    3    3    0    0  0.60743593769E-01 -0.54879828260E-01 -0.98492894460E-01  0.13541762149E+00  0.43994343016E-01 0.  0.
         14    1    1    2    0    0 -0.75369386371E-02 -0.13497256892E-01 -0.87738385827E-02  0.17775309592E-01  0.00000000000E+00 0. -1.
     999901    1    3    3    0    0 -0.53206655131E-01  0.68377085152E-01  0.10726673304E+00  0.89073706892E+00  0.88000000000E+00 0.  1.
        -11    1    4    4    0    0  0.55912256788E-01 -0.22627327656E-01 -0.64012707389E-01  0.87954898922E-01  0.51100000000E-03 0.  1.
         11    1    4    4    0    0  0.48313369801E-02 -0.32252500605E-01 -0.34480187071E-01  0.47462722569E-01  0.51100000000E-03 0. -1.
</event>
<event>
 8    1  0.2924722E+004  0.1043930E+01  0.7957747E-01            NaN
         13   -1    0    0    0    0  0.00000000000E+00  0.00000000000E+00  0.74505805969E-08  0.10566000000E+00  0.10566000000E+00 0.  1.
     999900   -1    0    0    0    0 -0.00000000000E+00 -0.00000000000E+00 -0.74505805969E-08  0.93827000000E+00  0.93827000000E+00 0. -1.
     999902    2    1    2    0    0 -0.10098159597E-01 -0.19152013853E-02  0.97321868943E-02  0.10297752734E+01  0.10296779872E+01 0.  0.
     999903    2    3    3    0    0 -0.61637481467E-02  0.93577834025E-01  0.94811861683E-01  0.14052111936E+00  0.44295519614E-01 0.  0.
         14    1    1    2    0    0  0.10098159597E-01  0.19152013853E-02 -0.97321868943E-02  0.14154726608E-01  0.00000000000E+00 0.  1.
     999901    1    3    3    0    0 -0.39344114505E-02 -0.95493035410E-01 -0.85079674789E-01  0.88925415403E+00  0.88000000000E+00 0.  1.
        -11    1    4    4    0    0  0.14233473309E-01  0.40646744594E-01  0.60362075359E-01  0.74152483918E-01  0.51100000000E-03 0.  1.
         11    1    4    4    0    0 -0.20397221455E-01  0.52931089430E-01  0.34449786324E-01  0.66368635440E-01  0.51100000000E-03 0. -1.
</event>
<event>
 8    1  0.2924722E+004  0.1043930E+01  0.7957747E-01            NaN
         13   -1    0    0    0    0  0.00000000000E+00  0.00000000000E+00  0.74505805969E-08  0.10566000000E+00  0.10566000000E+00 0.  1.
     999900   -1    0    0    0    0 -0.00000000000E+00 -0.00000000000E+00 -0.74505805969E-08  0.93827000000E+00  0.93827000000E+00 0.  1.
     999902    2    1    2    0    0  0.96386739959E-02  0.48076979411E-02  0.87886384605E-02  0.10300282677E+01  0.10299344513E+01 0.  0.
     999903    2    3    3    0    0 -0.10209283739E+00 -0.76323598579E-01 -0.28813859737E-01  0.13846774489E+00  0.45769408069E-01 0.  0.
         14    1    1    2    0    0 -0.96386739959E-02 -0.48076979411E-02 -0.87886384605E-02  0.13901732334E-01  0.00000000000E+00 0. -1.
     999901    1    3    3    0    0  0.11173151138E+00  0.81131296520E-01  0.37602498198E-01  0.89156052278E+00  0.88000000000E+00 0. -1.
        -11    1    4    4    0    0 -0.84272971775E-01 -0.41987812445E-01 -0.78924580378E-02  0.94485248481E-01  0.51100000000E-03 0. -1.
         11    1    4    4    0    0 -0.17819865612E-01 -0.34335786134E-01 -0.20921401699E-01  0.43982496404E-01  0.51100000000E-03 0.  1.
</event>
<event>
 8    1  0.2924722E+004  0.1043930E+01  0.7957747E-01            NaN
         13   -1    0    0    0    0  0.00000000000E+00  0.00000000000E+00  0.74505805969E-08  0.10566000000E+00  0.10566000000E+00 0.  1.
     999900   -1    0    0    0    0 -0.00000000000E+00 -0.00000000000E+00 -0.74505805969E-08  0.93827000000E+00  0.93827000000E+00 0. -1.
     999902    2    1    2    0    0 -0.75191805845E-02 -0.10818869839E-01  0.12642380681E-02  0.10306942787E+01  0.10306092915E+01 0.  0.
     999903    2    3    3    0    0 -0.28240273721E-02  0.99253191477E-01  0.88510309058E-01  0.13954346088E+00  0.42179752434E-01 0.  0.
         14    1    1    2    0    0  0.75191805845E-02  0.10818869839E-01 -0.12642380681E-02  0.13235721331E-01  0.00000000000E+00 0. -1.
     999901    1    3    3    0    0 -0.46951532124E-02 -0.11007206132E+00 -0.87246070990E-01  0.89115081779E+00  0.88000000000E+00 0. -1.
        -11    1    4    4    0    0 -0.13391478264E-01  0.78933888329E-01  0.48987199843E-01  0.93861053085E-01  0.51100000000E-03 0. -1.
         11    1    4    4    0    0  0.10567450892E-01  0.20319303148E-01  0.39523109215E-01  0.45682407793E-01  0.51100000000E-03 0.  1.
</event>
<event>
 8    1  0.2924722E+004  0.1043930E+01  0.7957747E-01            NaN
         13   -1    0    0    0    0  0.00000000000E+00  0.00000000000E+00  0.74505805969E-08  0.10566000000E+00  0.10566000000E+00 0.  1.
     999900   -1    0    0    0    0 -0.00000000000E+00 -0.00000000000E+00 -0.74505805969E-08  0.93827000000E+00  0.93827000000E+00 0.  1.
     999902    2    1    2    0    0  0.18611096662E-02 -0.13396970468E-01  0.29277199548E-02  0.10300911384E+01  0.10299981744E+01 0.  0.
     999903    2    3    3    0    0 -0.11340339349E+00 -0.64730817322E-01  0.26280646549E-01  0.14078442599E+00  0.45597958847E-01 0.  0.
         14    1    1    2    0    0 -0.18611096662E-02  0.13396970468E-01 -0.29277199548E-02  0.13838861623E-01  0.00000000000E+00 0. -1.
     999901    1    3    3    0    0  0.11526450316E+00  0.51333846855E-01 -0.23352926595E-01  0.88930671239E+00  0.88000000000E+00 0.  1.
        -11    1    4    4    0    0 -0.46362433633E-01 -0.49340069937E-01  0.16688135767E-02  0.67727127604E-01  0.51100000000E-03 0.  1.
         11    1    4    4    0    0 -0.67040959858E-01 -0.15390747386E-01  0.24611832973E-01  0.73057298383E-01  0.51100000000E-03 0. -1.
</event>
<event>
 8    1  0.2924722E+004  0.1043930E+01  0.7957747E-01            NaN
         13   -1    0    0    0    0  0.00000000000E+00  0.00000000000E+00  0.74505805969E-08  0.10566000000E+00  0.10566000000E+00 0.  1.
     999900   -1    0    0    0    0 -0.00000000000E+00 -0.00000000000E+00 -0.74505805969E-08  0.93827000000E+00  0.93827000000E+00 0.  1.
     999902    2    1    2    0    0  0.79738910302E-02 -0.16964580242E-01 -0.17072408534E-01  0.10185755713E+01  0.10182599606E+01 0.  0.
     999903    2    3    3    0    0 -0.91592877097E-01  0.42053953650E-01  0.64555419122E-01  0.12725080956E+00  0.43215463020E-01 0.  0.
         14    1    1    2    0    0 -0.79738910302E-02  0.16964580242E-01  0.17072408534E-01  0.25354428688E-01  0.00000000000E+00 0.  1.
     999901    1    3    3    0    0  0.99566768127E-01 -0.59018533892E-01 -0.81627827656E-01  0.89132476175E+00  0.88000000000E+00 0.  1.
        -11    1    4    4    0    0 -0.88496089946E-01  0.30792638397E-01  0.67146674766E-01  0.11527654388E+00  0.51100000000E-03 0. -1.
         11    1    4    4    0    0 -0.30967871505E-02  0.11261315254E-01 -0.25912556443E-02  0.11974265686E-01  0.51100000000E-03 0.  1.
</event>
<event>
 8    1  0.2924722E+004  0.1043930E+01  0.7957747E-01            NaN
         13   -1    0    0    0    0  0.00000000000E+00  0.00000000000E+00  0.74505805969E-08  0.10566000000E+00  0.10566000000E+00 0.  1.
     999900   -1    0    0    0    0 -0.00000000000E+00 -0.00000000000E+00 -0.74505805969E-08  0.93827000000E+00  0.93827000000E+00 0. -1.
     999902    2    1    2    0    0 -0.72096345439E-02  0.12098031144E-01  0.14258785445E-02  0.10297746364E+01  0.10296773415E+01 0.  0.
     999903    2    3    3    0    0 -0.10849453514E+00  0.58924163224E-01  0.51762503411E-01  0.14130117396E+00  0.45205573063E-01 0.  0.
         14    1    1    2    0    0  0.72096345439E-02 -0.12098031144E-01 -0.14258785445E-02  0.14155363557E-01  0.00000000000E+00 0.  1.
     999901    1    3    3    0    0  0.10128490060E+00 -0.46826132080E-01 -0.50336624867E-01  0.88847346248E+00  0.88000000000E+00 0. -1.
        -11    1    4    4    0    0 -0.10184145432E+00  0.41383520679E-01  0.33029110725E-01  0.11478441043E+00  0.51100000000E-03 0.  1.
         11    1    4    4    0    0 -0.66530808158E-02  0.17540642545E-01  0.18733392687E-01  0.26516763524E-01  0.51100000000E-03 0. -1.
</event>
<event>
 8    1  0.2924722E+004  0.1043930E+01  0.7957747E-01            NaN
         13   -1    0    0    0    0  0.00000000000E+00  0.00000000000E+00  0.74505805969E-08  0.10566000000E+00  0.10566000000E+00 0. -1.
     999900   -1    0    0    0    0 -0.00000000000E+00 -0.00000000000E+00 -0.74505805969E-08  0.93827000000E+00  0.93827000000E+00 0. -1.
     999902    2    1    2    0    0 -0.62964474772E-02 -0.86931807585E-02  0.85845522767E-02  0.10301855036E+01  0.10300938116E+01 0.  0.
     999903    2    3    3    0    0  0.84563525973E-01  0.98944001361E-01 -0.15947917280E-01  0.13864574579E+00  0.45026674657E-01 0.  0.
         14    1    1    2    0    0  0.62964474772E-02  0.86931807585E-02 -0.85845522767E-02  0.13744496365E-01  0.00000000000E+00 0.  1.
     999901    1    3    3    0    0 -0.90859973451E-01 -0.10763718212E+00  0.24532469556E-01  0.89153975784E+00  0.88000000000E+00 0.  1.
        -11    1    4    4    0    0  0.39713437432E-01  0.76112032260E-01 -0.20009322462E-01  0.88152326536E-01  0.51100000000E-03 0. -1.
         11    1    4    4    0    0  0.44850088541E-01  0.22831969101E-01  0.40614051823E-02  0.50493419257E-01  0.51100000000E-03 0.  1.
</event>
<event>
 8    1  0.2924722E+004  0.1043930E+01  0.7957747E-01            NaN
         13   -1    0    0    0    0  0.00000000000E+00  0.00000000000E+00  0.74505805969E-08  0.10566000000E+00  0.10566000000E+00 0. -1.
     999900   -1    0    0    0    0 -0.00000000000E+00 -0.00000000000E+00 -0.74505805969E-08  0.93827000000E+00  0.93827000000E+00 0. -1.
     999902    2    1    2    0    0 -0.91122217990E-02  0.32456098422E-02  0.18657978770E-01  0.10229136554E+01  0.10226977362E+01 0.  0.
     999903    2    3    3    0    0  0.66462889283E-01 -0.10366452247E+00 -0.18214724257E-01  0.13246378591E+00  0.45290501514E-01 0.  0.
         14    1    1    2    0    0  0.91122217990E-02 -0.32456098422E-02 -0.18657978770E-01  0.21016344619E-01  0.00000000000E+00 0.  1.
     999901    1    3    3    0    0 -0.75575111082E-01  0.10691013231E+00  0.36872703027E-01  0.89044986947E+00  0.88000000000E+00 0.  1.
        -11    1    4    4    0    0  0.59087758020E-01 -0.62686625483E-01 -0.26247815785E-01  0.90056566206E-01  0.51100000000E-03 0. -1.
         11    1    4    4    0    0  0.73751312625E-02 -0.40977896989E-01  0.80330915278E-02  0.42407219707E-01  0.51100000000E-03 0.  1.
</event>
<event>
 8    1  0.2924722E+004  0.1043930E+01  0.7957747E-01            NaN
         13   -1    0    0    0    0  0.00000000000E+00  0.00000000000E+00  0.74505805969E-08  0.10566000000E+00  0.10566000000E+00 0.  1.
     999900   -1    0    0    0    0 -0.00000000000E+00 -0.00000000000E+00 -0.74505805969E-08  0.93827000000E+00  0.93827000000E+00 0. -1.
     999902    2    1    2    0    0 -0.19022691804E-03  0.85723263055E-02  0.11361287505E-01  0.10296962437E+01  0.10295978606E+01 0.  0.
     999903    2    3    3    0    0 -0.42470725819E-02 -0.30364724498E-01  0.13022772261E+00  0.14084204794E+00  0.44013277684E-01 0.  0.
         14    1    1    2    0    0  0.19022691804E-03 -0.85723263055E-02 -0.11361287505E-01  0.14233756298E-01  0.00000000000E+00 0. -1.
     999901    1    3    3    0    0  0.40568456639E-02  0.38937050803E-01 -0.11886643511E+00  0.88885419576E+00  0.88000000000E+00 0. -1.
        -11    1    4    4    0    0 -0.17475793712E-01 -0.34545543428E-01  0.82451016842E-01  0.91089127978E-01  0.51100000000E-03 0. -1.
         11    1    4    4    0    0  0.13228721130E-01  0.41808189307E-02  0.47776705772E-01  0.49752919965E-01  0.51100000000E-03 0.  1.
</event>
<event>
 8    1  0.2924722E+004  0.1043930E+01  0.7957747E-01            NaN
         13   -1    0    0    0    0  0.00000000000E+00  0.00000000000E+00  0.74505805969E-08  0.10566000000E+00  0.10566000000E+00 0. -1.
     999900   -1    0    0    0    0 -0.00000000000E+00 -0.00000000000E+00 -0.74505805969E-08  0.93827000000E+00  0.93827000000E+00 0.  1.
     999902    2    1    2    0    0  0.25130962537E-03 -0.60672511347E-02 -0.10404325173E-01  0.10318832297E+01  0.10318129070E+01 0.  0.
     999903    2    3    3    0    0 -0.92966829637E-01  0.77070710119E-01  0.61901418477E-01  0.14012672555E+00  0.34942636326E-01 0.  0.
         14    1    1    2    0    0 -0.25130962537E-03  0.60672511347E-02  0.10404325173E-01  0.12046770321E-01  0.00000000000E+00 0. -1.
     999901    1    3    3    0    0  0.93218139262E-01 -0.83137961254E-01 -0.72305743650E-01  0.89175650413E+00  0.88000000000E+00 0.  1.
        -11    1    4    4    0    0 -0.70776508507E-01  0.38815763960E-01  0.47250557984E-01  0.93535309050E-01  0.51100000000E-03 0. -1.
         11    1    4    4    0    0 -0.22190321129E-01  0.38254946159E-01  0.14650860493E-01  0.46591416501E-01  0.51100000000E-03 0.  1.
</event>
<event>
 8    1  0.2924722E+004  0.1043930E+01  0.7957747E-01            NaN
         13   -1    0    0    0    0  0.00000000000E+00  0.00000000000E+00  0.74505805969E-08  0.10566000000E+00  0.10566000000E+00 0. -1.
     999900   -1    0    0    0    0 -0.00000000000E+00 -0.00000000000E+00 -0.74505805969E-08  0.93827000000E+00  0.93827000000E+00 0.  1.
     999902    2    1    2    0    0 -0.12131658280E-01  0.39072804105E-02 -0.45133318782E-02  0.10304091222E+01  0.10303204089E+01 0.  0.
     999903    2    3    3    0    0  0.49157940361E-01 -0.55009058615E-01 -0.11005045896E+00  0.14003524839E+00  0.45346087410E-01 0.  0.
         14    1    1    2    0    0  0.12131658280E-01 -0.39072804105E-02  0.45133318782E-02  0.13520877836E-01  0.00000000000E+00 0.  1.
     999901    1    3    3    0    0 -0.61289598641E-01  0.58916339026E-01  0.10553712708E+00  0.89037387377E+00  0.88000000000E+00 0. -1.
        -11    1    4    4    0    0  0.87774822938E-03 -0.31132750481E-01 -0.53712448291E-01  0.62091117053E-01  0.51100000000E-03 0.  1.
         11    1    4    4    0    0  0.48280192132E-01 -0.23876308134E-01 -0.56338010672E-01  0.77944131337E-01  0.51100000000E-03 0. -1.
</event>
<event>
 8    1  0.2924722E+004  0.1043930E+01  0.7957747E-01            NaN
         13   -1    0    0    0    0  0.00000000000E+00  0.00000000000E+00  0.74505805969E-08  0.10566000000E+00  0.10566000000E+00 0. -1.
     999900   -1    0    0    0    0 -0.00000000000E+00 -0.00000000000E+00 -0.74505805969E-08  0.93827000000E+00  0.93827000000E+00 0. -1.
     999902    2    1    2    0    0  0.23687170466E-02 -0.63541692150E-02 -0.13092780002E-01  0.10291852662E+01  0.10290796398E+01 0.  0.
     999903    2    3    3    0    0  0.78782725243E-01  0.84316928885E-02 -0.10724335062E+00  0.14074728169E+00  0.45064951000E-01 0.  0.
         14    1    1    2    0    0 -0.23687170466E-02  0.63541692150E-02  0.13092780002E-01  0.14744733807E-01  0.00000000000E+00 0. -1.
     999901    1    3    3    0    0 -0.76414008197E-01 -0.14785862103E-01  0.94150570617E-01  0.88843798451E+00  0.88000000000E+00 0.  1.
        -11    1    4    4    0    0  0.11564722189E-01  0.59144330230E-02 -0.52305597299E-01  0.53896752658E-01  0.51100000000E-03 0.  1.
         11    1    4    4    0    0  0.67218003054E-01  0.25172598654E-02 -0.54937753320E-01  0.86850529029E-01  0.51100000000E-03 0. -1.
</event>
<event>
 8    1  0.2924722E+004  0.1043930E+01  0.7957747E-01            NaN
         13   -1    0    0    0    0  0.00000000000E+00  0.00000000000E+00  0.74505805969E-08  0.10566000000E+00  0.10566000000E+00 0. -1.
     999900   -1    0    0    0    0 -0.00000000000E+00 -0.00000000000E+00 -0.74505805969E-08  0.93827000000E+00  0.93827000000E+00 0. -1.
     999902    2    1    2    0    0 -0.48865396242E-02  0.40560394437E-02 -0.11622166442E-01  0.10306859644E+01  0.10306008698E+01 0.  0.
     999903    2    3    3    0    0  0.12181812301E-01 -0.46309629403E-02 -0.13416381088E+00  0.14198846400E+00  0.44620100727E-01 0.  0.
         14    1    1    2    0    0  0.48865396242E-02 -0.40560394437E-02  0.11622166442E-01  0.13244035574E-01  0.00000000000E+00 0. -1.
     999901    1    3    3    0    0 -0.17068351925E-01  0.86870023840E-02  0.12254164444E+00  0.88869750043E+00  0.88000000000E+00 0.  1.
        -11    1    4    4    0    0 -0.11046562823E-01  0.10342155474E-01 -0.23736700761E-01  0.28154552280E-01  0.51100000000E-03 0. -1.
         11    1    4    4    0    0  0.23228375125E-01 -0.14973118414E-01 -0.11042711012E+00  0.11383391172E+00  0.51100000000E-03 0.  1.
</event>
<event>
 8    1  0.2924722E+004  0.1043930E+01  0.7957747E-01            NaN
         13   -1    0    0    0    0  0.00000000000E+00  0.00000000000E+00  0.74505805969E-08  0.10566000000E+00  0.10566000000E+00 0.  1.
     999900   -1    0    0    0    0 -0.00000000000E+00 -0.00000000000E+00 -0.74505805969E-08  0.93827000000E+00  0.93827000000E+00 0.  1.
     999902    2    1    2    0    0 -0.16499657910E-02  0.51713497895E-02  0.11922356375E-01  0.10308300829E+01  0.10307468419E+01 0.  0.
     999903    2    3    3    0    0  0.12075772115E+00  0.13275330706E-01 -0.53216935160E-01  0.13993590087E+00  0.44624573276E-01 0.  0.
         14    1    1    2    0    0  0.16499657910E-02 -0.51713497895E-02 -0.11922356375E-01  0.13099917072E-01  0.00000000000E+00 0. -1.
     999901    1    3    3    0    0 -0.12240768694E+00 -0.81039809167E-02  0.65139291535E-01  0.89089418206E+00  0.88000000000E+00 0. -1.
        -11    1    4    4    0    0  0.52324538798E-01 -0.16215596071E-01 -0.25542791305E-01  0.60444174451E-01  0.51100000000E-03 0. -1.
         11    1    4    4    0    0  0.68433182355E-01  0.29490926778E-01 -0.27674143855E-01  0.79491726415E-01  0.51100000000E-03 0.  1.
</event>
<event>
 8    1  0.2924722E+004  0.1043930E+01  0.7957747E-01            NaN
         13   -1    0    0    0    0  0.00000000000E+00  0.00000000000E+00  0.74505805969E-08  0.10566000000E+00  0.10566000000E+00 0. -1.
     999900   -1    0    0    0    0 -0.00000000000E+00 -0.00000000000E+00 -0.74505805969E-08  0.93827000000E+00  0.93827000000E+00 0. -1.
     999902    2    1    2    0    0 -0.49362568101E-02 -0.13217814630E-01 -0.22803089427E-02  0.10296374473E+01  0.10295382439E+01 0.  0.
     999903    2    3    3    0    0 -0.78425665144E-02  0.96415950388E-01  0.87987807249E-01  0.13824732960E+00  0.44865672599E-01 0.  0.
         14    1    1    2    0    0  0.49362568101E-02  0.13217814630E-01  0.22803089427E-02  0.14292552738E-01  0.00000000000E+00 0.  1.
     999901    1    3    3    0    0  0.29063097043E-02 -0.10963376502E+00 -0.90268116192E-01  0.89139011766E+00  0.88000000000E+00 0. -1.
        -11    1    4    4    0    0 -0.13675106615E-01  0.33366449474E-01  0.57729855051E-01  0.68068537348E-01  0.51100000000E-03 0.  1.
         11    1    4    4    0    0  0.58325401010E-02  0.63049500914E-01  0.30257952199E-01  0.70178792251E-01  0.51100000000E-03 0. -1.
</event>
<event>
 8    1  0.2924722E+004  0.1043930E+01  0.7957747E-01            NaN
         13   -1    0    0    0    0  0.00000000000E+00  0.00000000000E+00  0.74505805969E-08  0.10566000000E+00  0.10566000000E+00 0.  1.
     999900   -1    0    0    0    0 -0.00000000000E+00 -0.00000000000E+00 -0.74505805969E-08  0.93827000000E+00  0.93827000000E+00 0.  1.
     999902    2    1    2    0    0 -0.49108957838E-02 -0.71801943022E-02  0.10847062344E-01  0.10300256536E+01  0.10299318017E+01 0.  0.
     999903    2    3    3    0    0 -0.77007308105E-01 -0.10640651522E+00 -0.23210489952E-01  0.14086668451E+00  0.45301478753E-01 0.  0.
         14    1    1    2    0    0  0.49108957838E-02  0.71801943022E-02 -0.10847062344E-01  0.13904346411E-01  0.00000000000E+00 0. -1.
     999901    1    3    3    0    0  0.72096412321E-01  0.99226320917E-01  0.34057552296E-01  0.88915896908E+00  0.88000000000E+00 0.  1.
        -11    1    4    4    0    0 -0.20584346824E-02 -0.11521219459E-01 -0.15872773862E-01  0.19727689227E-01  0.51100000000E-03 0. -1.
         11    1    4    4    0    0 -0.74948873423E-01 -0.94885295761E-01 -0.73377160905E-02  0.12113899528E+00  0.51100000000E-03 0.  1.
</event>
<event>
 8    1  0.2924722E+004  0.1043930E+01  0.7957747E-01            NaN
         13   -1    0    0    0    0  0.00000000000E+00  0.00000000000E+00  0.74505805969E-08  0.10566000000E+00  0.10566000000E+00 0. -1.
     999900   -1    0    0    0    0 -0.00000000000E+00 -0.00000000000E+00 -0.74505805969E-08  0.93827000000E+00  0.93827000000E+00 0. -1.
     999902    2    1    2    0    0  0.71270362878E-02  0.62112675667E-02  0.80867795591E-02  0.10314893210E+01  0.10314142954E+01 0.  0.
     999903    2    3    3    0    0 -0.76418188758E-01 -0.78350368083E-01  0.76441342655E-01  0.14086997403E+00  0.44972780264E-01 0.  0.
         14    1    1    2    0    0 -0.71270362878E-02 -0.62112675667E-02 -0.80867795591E-02  0.12440679028E-01  0.00000000000E+00 0.  1.
     999901    1    3    3    0    0  0.83545225045E-01  0.84561635650E-01 -0.68354563095E-01  0.89061934694E+00  0.88000000000E+00 0. -1.
        -11    1    4    4    0    0 -0.43548739141E-01 -0.14228625705E-01  0.35772427774E-01  0.58128084263E-01  0.51100000000E-03 0. -1.
         11    1    4    4    0    0 -0.32869449616E-01 -0.64121742378E-01  0.40668914880E-01  0.82741889767E-01  0.51100000000E-03 0.  1.
</event>
<event>
 8    1  0.2924722E+004  0.1043930E+01  0.7957747E-01            NaN
         13   -1    0    0    0    0  0.00000000000E+00  0.00000000000E+00  0.74505805969E-08  0.10566000000E+00  0.10566000000E+00 0. -1.
     999900   -1    0    0    0    0 -0.00000000000E+00 -0.00000000000E+00 -0.74505805969E-08  0.93827000000E+00  0.93827000000E+00 0. -1.
     999902    2    1    2    0    0  0.98724911004E-02 -0.32155174193E-02  0.10370094922E-01  0.10292553790E+01  0.10291507619E+01 0.  0.
     999903    2    3    3    0    0 -0.87140881098E-01 -0.97039575494E-01 -0.12794159971E-01  0.13866505177E+00  0.45322110289E-01 0.  0.
         14    1    1    2    0    0 -0.98724911004E-02  0.32155174193E-02 -0.10370094922E-01  0.14674621000E-01  0.00000000000E+00 0.  1.
     999901    1    3    3    0    0  0.97013372199E-01  0.93824058075E-01  0.23164254893E-01  0.89059032723E+00  0.88000000000E+00 0.  1.
        -11    1    4    4    0    0 -0.41274966417E-01 -0.73355479326E-01  0.43116200177E-02  0.84282266154E-01  0.51100000000E-03 0. -1.
         11    1    4    4    0    0 -0.45865914681E-01 -0.23684096169E-01 -0.17105779989E-01  0.54382785612E-01  0.51100000000E-03 0.  1.
</event>
<event>
 8    1  0.2924722E+004  0.1043930E+01  0.7957747E-01            NaN
         13   -1    0    0    0    0  0.00000000000E+00  0.00000000000E+00  0.74505805969E-08  0.10566000000E+00  0.10566000000E+00 0. -1.
     999900   -1    0    0    0    0 -0.00000000000E+00 -0.00000000000E+00 -0.74505805969E-08  0.93827000000E+00  0.93827000000E+00 0.  1.
     999902    2    1    2    0    0 -0.11965137750E-01 -0.32175459487E-02 -0.41261758768E-02  0.10308708097E+01  0.10307880887E+01 0.  0.
     999903    2    3    3    0    0  0.12031253610E+00 -0.19230827349E-01 -0.50978905979E-01  0.13960822973E+00  0.45240224235E-01 0.  0.
         14    1    1    2    0    0  0.11965137750E-01  0.32175459487E-02  0.41261758768E-02  0.13059190277E-01  0.00000000000E+00 0. -1.
     999901    1    3    3    0    0 -0.13227767385E+00  0.16013281400E-01  0.46852730102E-01  0.89126258000E+00  0.88000000000E+00 0.  1.
        -11    1    4    4    0    0  0.76138666098E-01 -0.32798916276E-01 -0.40284074017E-01  0.92173386205E-01  0.51100000000E-03 0.  1.
         11    1    4    4    0    0  0.44173870006E-01  0.13568088927E-01 -0.10694831961E-01  0.47434843523E-01  0.51100000000E-03 0. -1.
</event>
<event>
 8    1  0.2924722E+004  0.1043930E+01  0.7957747E-01            NaN
         13   -1    0    0    0    0  0.00000000000E+00  0.00000000000E+00  0.74505805969E-08  0.10566000000E+00  0.10566000000E+00 0.  1.
     999900   -1    0    0    0    0 -0.00000000000E+00 -0.00000000000E+00 -0.74505805969E-08  0.93827000000E+00  0.93827000000E+00 0.  1.
     999902    2    1    2    0    0  0.13526627474E-01  0.18500156452E-02  0.17088157548E-03  0.10302763774E+01  0.10301859019E+01 0.  0.
     999903    2    3    3    0    0 -0.95197774704E-01  0.81364544626E-01  0.40802722648E-01  0.13910046749E+00  0.44735583716E-01 0.  0.
         14    1    1    2    0    0 -0.13526627474E-01 -0.18500156452E-02 -0.17088157548E-03  0.13653622568E-01  0.00000000000E+00 0.  1.
     999901    1    3    3    0    0  0.10872440218E+00 -0.79514528981E-01 -0.40631841072E-01  0.89117590994E+00  0.88000000000E+00 0. -1.
        -11    1    4    4    0    0 -0.27013965205E-01  0.29319742496E-01  0.35122151624E-01  0.53134059433E-01  0.51100000000E-03 0. -1.
         11    1    4    4    0    0 -0.68183809499E-01  0.52044802130E-01  0.56805710241E-02  0.85966408060E-01  0.51100000000E-03 0.  1.
</event>
<event>
 8    1  0.2924722E+004  0.1043930E+01  0.7957747E-01            NaN
         13   -1    0    0    0    0  0.00000000000E+00  0.00000000000E+00  0.74505805969E-08  0.10566000000E+00  0.10566000000E+00 0. -1.
     999900   -1    0    0    0    0 -0.00000000000E+00 -0.00000000000E+00 -0.74505805969E-08  0.93827000000E+00  0.93827000000E+00 0. -1.
     999902    2    1    2    0    0  0.10890108360E-01 -0.16723468940E-01 -0.19573187239E-01  0.10159768511E+01  0.10155922329E+01 0.  0.
     999903    2    3    3    0    0 -0.57747932891E-01 -0.29677424286E-01  0.97492660733E-01  0.12548069817E+00  0.45000149448E-01 0.  0.
         14    1    1    2    0    0 -0.10890108360E-01  0.16723468940E-01  0.19573187239E-01  0.27953148878E-01  0.00000000000E+00 0. -1.
     999901    1    3    3    0    0  0.68638041251E-01  0.12953955345E-01 -0.11706584797E+00  0.89049615295E+00  0.88000000000E+00 0. -1.
        -11    1    4    4    0    0 -0.42965721696E-01 -0.40730995072E-01  0.63654317564E-01  0.86932160136E-01  0.51100000000E-03 0.  1.
         11    1    4    4    0    0 -0.14782211196E-01  0.11053570786E-01  0.33838343169E-01  0.38548538032E-01  0.51100000000E-03 0. -1.
</event>
<event>
 8    1  0.2924722E+004  0.1043930E+01  0.7957747E-01            NaN
         13   -1    0    0    0    0  0.00000000000E+00  0.00000000000E+00  0.74505805969E-08  0.10566000000E+00  0.10566000000E+00 0.  1.
     999900   -1    0    0    0    0 -0.00000000000E+00 -0.00000000000E+00 -0.74505805969E-08  0.93827000000E+00  0.93827000000E+00 0. -1.
     999902    2    1    2    0    0 -0.14496601131E-01  0.71354437776E-03 -0.37045506316E-02  0.10289505379E+01  0.10288414966E+01 0.  0.
     999903    2    3    3    0    0  0.42587551331E-01  0.79072179059E-01  0.94205916534E-01  0.13822884416E+00  0.46544061037E-01 0.  0.
         14    1    1    2    0    0  0.14496601131E-01 -0.71354437776E-03  0.37045506316E-02  0.14979462117E-01  0.00000000000E+00 0. -1.
     999901    1    3    3    0    0 -0.57084152462E-01 -0.78358634681E-01 -0.97910467165E-01  0.89072169372E+00  0.88000000000E+00 0. -1.
        -11    1    4    4    0    0 -0.18895103455E-03  0.34692267996E-01  0.14839882904E-01  0.37736883904E-01  0.51100000000E-03 0. -1.
         11    1    4    4    0    0  0.42776502366E-01  0.44379911063E-01  0.79366033629E-01  0.10049196025E+00  0.51100000000E-03 0.  1.
</event>
<event>
 8    1  0.2924722E+004  0.1043930E+01  0.7957747E-01            NaN
         13   -1    0    0    0    0  0.00000000000E+00  0.00000000000E+00  0.74505805969E-08  0.10566000000E+00  0.10566000000E+00 0. -1.
     999900   -1    0    0    0    0 -0.00000000000E+00 -0.00000000000E+00 -0.74505805969E-08  0.93827000000E+00  0.93827000000E+00 0. -1.
     999902    2    1    2    0    0 -0.56387170635E-02  0.19483172783E-04  0.12265710815E-01  0.10304302529E+01  0.10303418185E+01 0.  0.
     999903    2    3    3    0    0 -0.23197372634E-01  0.26023517921E-01 -0.12659653177E+00  0.13898915075E+00  0.45562710488E-01 0.  0.
         14    1    1    2    0    0  0.56387170635E-02 -0.19483172783E-04 -0.12265710815E-01  0.13499747090E-01  0.00000000000E+00 0.  1.
     999901    1    3    3    0    0  0.17558655571E-01 -0.26004034748E-01  0.13886224259E+00  0.89144110216E+00  0.88000000000E+00 0.  1.
        -11    1    4    4    0    0  0.11486008327E-01  0.17542166565E-01 -0.36874912346E-01  0.42422591583E-01  0.51100000000E-03 0.  1.
         11    1    4    4    0    0 -0.34683380961E-01  0.84813513553E-02 -0.89721619424E-01  0.96566559164E-01  0.51100000000E-03 0. -1.
</event>
<event>
 8    1  0.2924722E+004  0.1043930E+01  0.7957747E-01            NaN
         13   -1    0    0    0    0  0.00000000000E+00  0.00000000000E+00  0.74505805969E-08  0.10566000000E+00  0.10566000000E+00 0.  1.
     999900   -1    0    0    0    0 -0.00000000000E+00 -0.00000000000E+00 -0.74505805969E-08  0.93827000000E+00  0.93827000000E+00 0.  1.
     999902    2    1    2    0    0  0.10233877033E-01  0.96249678384E-02 -0.13610882050E-02  0.10298152982E+01  0.10297185653E+01 0.  0.
     999903    2    3    3    0    0  0.16019091013E-01  0.12226301521E+00 -0.52577949898E-01  0.14113989892E+00  0.44172096247E-01 0.  0.
         14    1    1    2    0    0 -0.10233877033E-01 -0.96249678384E-02  0.13610882050E-02  0.14114701772E-01  0.00000000000E+00 0. -1.
     999901    1    3    3    0    0 -0.57852139799E-02 -0.11263804737E+00  0.51216861693E-01  0.88867539931E+00  0.88000000000E+00 0. -1.
        -11    1    4    4    0    0 -0.59492464196E-02  0.25610198392E-01 -0.29209672258E-01  0.39303204311E-01  0.51100000000E-03 0.  1.
         11    1    4    4    0    0  0.21968337432E-01  0.96652816815E-01 -0.23368277640E-01  0.10183669461E+00  0.51100000000E-03 0. -1.
</event>
<event>
 8    1  0.2924722E+004  0.1043930E+01  0.7957747E-01            NaN
         13   -1    0    0    0    0  0.00000000000E+00  0.00000000000E+00  0.74505805969E-08  0.10566000000E+00  0.10566000000E+00 0.  1.
     999900   -1    0    0    0    0 -0.00000000000E+00 -0.00000000000E+00 -0.74505805969E-08  0.93827000000E+00  0.93827000000E+00 0. -1.
     999902    2    1    2    0    0 -0.46369010527E-02  0.30912713852E-02  0.12393856325E-01  0.10303408689E+01  0.10302512517E+01 0.  0.
     999903    2    3    3    0    0 -0.19559895010E-01 -0.12448893065E+00 -0.38822414344E-01  0.13954206438E+00  0.45658783697E-01 0.  0.
         14    1    1    2    0    0  0.46369010527E-02 -0.30912713852E-02 -0.12393856325E-01  0.13589131126E-01  0.00000000000E+00 0. -1.
     999901    1    3    3    0    0  0.14922993957E-01  0.12758020204E+00  0.51216270669E-01  0.89079880449E+00  0.88000000000E+00 0. -1.
        -11    1    4    4    0    0 -0.10254647960E-01 -0.85033133887E-01 -0.47703651863E-01  0.98039232889E-01  0.51100000000E-03 0.  1.
         11    1    4    4    0    0 -0.93052470501E-02 -0.39455796768E-01  0.88812375186E-02  0.41502831495E-01  0.51100000000E-03 0. -1.
</event>
<event>
 8    1  0.2924722E+004  0.1043930E+01  0.7957747E-01            NaN
         13   -1    0    0    0    0  0.00000000000E+00  0.00000000000E+00  0.74505805969E-08  0.10566000000E+00  0.10566000000E+00 0.  1.
     999900   -1    0    0    0    0 -0.00000000000E+00 -0.00000000000E+00 -0.74505805969E-08  0.93827000000E+00  0.93827000000E+00 0.  1.
     999902    2    1    2    0    0 -0.13510159115E-01  0.38850871926E-02  0.21563171285E-02  0.10297079043E+01  0.10296096834E+01 0.  0.
     999903    2    3    3    0    0  0.84363241727E-01 -0.15714510142E-01 -0.99622463447E-01  0.13823593787E+00  0.42666578380E-01 0.  0.
         14    1    1    2    0    0  0.13510159115E-01 -0.38850871926E-02 -0.21563171285E-02  0.14222095675E-01  0.00000000000E+00 0. -1.
     999901    1    3    3    0    0 -0.97873400843E-01  0.19599597335E-01  0.10177878058E+00  0.89147196646E+00  0.88000000000E+00 0. -1.
        -11    1    4    4    0    0  0.50214496057E-01  0.93499885060E-03 -0.28882704176E-01  0.57938256435E-01  0.51100000000E-03 0.  1.
         11    1    4    4    0    0  0.34148745670E-01 -0.16649508993E-01 -0.70739759271E-01  0.80297681431E-01  0.51100000000E-03 0. -1.
</event>
<event>
 8    1  0.2924722E+004  0.1043930E+01  0.7957747E-01            NaN
         13   -1    0    0    0    0  0.00000000000E+00  0.00000000000E+00  0.74505805969E-08  0.10566000000E+00  0.10566000000E+00 0.  1.
     999900   -1    0    0    0    0 -0.00000000000E+00 -0.00000000000E+00 -0.74505805969E-08  0.93827000000E+00  0.93827000000E+00 0. -1.
     999902    2    1    2    0    0 -0.42626979303E-02 -0.89732638902E-02  0.91788333853E-02  0.10304044301E+01  0.10303156548E+01 0.  0.
     999903    2    3    3    0    0  0.42746432304E-01 -0.85152835695E-01  0.94454955915E-01  0.14176209342E+00  0.45787438588E-01 0.  0.
         14    1    1    2    0    0  0.42626979303E-02  0.89732638902E-02 -0.91788333853E-02  0.13525569888E-01  0.00000000000E+00 0. -1.
     999901    1    3    3    0    0 -0.47009130234E-01  0.76179571805E-01 -0.85276122530E-01  0.88864233669E+00  0.88000000000E+00 0.  1.
        -11    1    4    4    0    0  0.10310059135E-01 -0.47410639553E-01  0.20621926147E-01  0.52721826800E-01  0.51100000000E-03 0. -1.
         11    1    4    4    0    0  0.32436373169E-01 -0.37742196142E-01  0.73833029769E-01  0.89040266620E-01  0.51100000000E-03 0.  1.
</event>
<event>
 8    1  0.2924722E+004  0.1043930E+01  0.7957747E-01            NaN
         13   -1    0    0    0    0  0.00000000000E+00  0.00000000000E+00  0.74505805969E-08  0.10566000000E+00  0.10566000000E+00 0. -1.
     999900   -1    0    0    0    0 -0.00000000000E+00 -0.00000000000E+00 -0.74505805969E-08  0.93827000000E+00  0.93827000000E+00 0. -1.
     999902    2    1    2    0    0 -0.11432157333E-01 -0.80250274927E-03  0.80661642924E-02  0.10299156774E+01  0.10298203248E+01 0.  0.
     999903    2    3    3    0    0  0.57428280140E-01  0.10398344433E+00  0.58822533786E-01  0.13957975000E+00  0.43724730700E-01 0.  0.
         14    1    1    2    0    0  0.11432157333E-01  0.80250274927E-03 -0.80661642924E-02  0.14014322614E-01  0.00000000000E+00 0. -1.
     999901    1    3    3    0    0 -0.68860437472E-01 -0.10478594708E+00 -0.50756369494E-01  0.89033592739E+00  0.88000000000E+00 0. -1.
        -11    1    4    4    0    0  0.36203054267E-01  0.51878034170E-01  0.80136646816E-02  0.63768891399E-01  0.51100000000E-03 0. -1.
         11    1    4    4    0    0  0.21225225873E-01  0.52105410156E-01  0.50808869104E-01  0.75810858599E-01  0.51100000000E-03 0.  1.
</event>
<event>
 8    1  0.2924722E+004  0.1043930E+01  0.7957747E-01            NaN
         13   -1    0    0    0    0  0.00000000000E+00  0.00000000000E+00  0.74505805969E-08  0.10566000000E+00  0.10566000000E+00 0. -1.
     999900   -1    0    0    0    0 -0.00000000000E+00 -0.00000000000E+00 -0.74505805969E-08  0.93827000000E+00  0.93827000000E+00 0. -1.
     999902    2    1    2    0    0 -0.12167471691E-01  0.16903639888E-01  0.49525033387E-02  0.10225218778E+01  0.10222977466E+01 0.  0.
     999903    2    3    3    0    0  0.30416855865E-01 -0.80966776640E-01  0.89102007625E-01  0.13208761153E+00  0.45024052659E-01 0.  0.
         14    1    1    2    0    0  0.12167471691E-01 -0.16903639888E-01 -0.49525033387E-02  0.21408122247E-01  0.00000000000E+00 0.  1.
     999901    1    3    3    0    0 -0.42584327556E-01  0.97870416528E-01 -0.84149504287E-01  0.89043426622E+00  0.88000000000E+00 0. -1.
        -11    1    4    4    0    0  0.28480901245E-01 -0.33163240694E-01  0.65469146052E-01  0.78723773250E-01  0.51100000000E-03 0.  1.
         11    1    4    4    0    0  0.19359546202E-02 -0.47803535946E-01  0.23632861574E-01  0.53363838284E-01  0.51100000000E-03 0. -1.
</event>
<event>
 8    1  0.2924722E+004  0.1043930E+01  0.7957747E-01            NaN
         13   -1    0    0    0    0  0.00000000000E+00  0.00000000000E+00  0.74505805969E-08  0.10566000000E+00  0.10566000000E+00 0. -1.
     999900   -1    0    0    0    0 -0.00000000000E+00 -0.00000000000E+00 -0.74505805969E-08  0.93827000000E+00  0.93827000000E+00 0. -1.
     999902    2    1    2    0    0 -0.73455249429E-02  0.51022491113E-02  0.96799309553E-02  0.10307508215E+01  0.10306665636E+01 0.  0.
     999903    2    3    3    0    0 -0.59971483158E-01  0.85672186956E-01  0.85470472932E-01  0.14226603681E+00  0.44700347622E-01 0.  0.
         14    1    1    2    0    0  0.73455249429E-02 -0.51022491113E-02 -0.96799309553E-02  0.13179178502E-01  0.00000000000E+00 0.  1.
     999901    1    3    3    0    0  0.52625958215E-01 -0.80569937844E-01 -0.75790541977E-01  0.88848478468E+00  0.88000000000E+00 0.  1.
        -11    1    4    4    0    0  0.39495441798E-02  0.93043026212E-02  0.21874429378E-01  0.24102297154E-01  0.51100000000E-03 0. -1.
         11    1    4    4    0    0 -0.63921027338E-01  0.76367884334E-01  0.63596043554E-01  0.11816373966E+00  0.51100000000E-03 0.  1.
</event>
<event>
 8    1  0.2924722E+004  0.1043930E+01  0.7957747E-01            NaN
         13   -1    0    0    0    0  0.00000000000E+00  0.00000000000E+00  0.74505805969E-08  0.10566000000E+00  0.10566000000E+00 0. -1.
     999900   -1    0    0    0    0 -0.00000000000E+00 -0.00000000000E+00 -0.74505805969E-08  0.93827000000E+00  0.93827000000E+00 0.  1.
     999902    2    1    2    0    0 -0.41534333688E-02 -0.71909396590E-02 -0.14960998549E-01  0.10268188311E+01  0.10266762488E+01 0.  0.
     999903    2    3    3    0    0  0.31324190458E-03 -0.13036115319E+00 -0.15304883482E-01  0.13822951603E+00  0.43347794183E-01 0.  0.
         14    1    1    2    0    0  0.41534333688E-02  0.71909396590E-02  0.14960998549E-01  0.17111168853E-01  0.00000000000E+00 0. -1.
     999901    1    3    3    0    0 -0.44666752733E-02  0.12317021353E+00  0.34388493295E-03  0.88858931512E+00  0.88000000000E+00 0.  1.
        -11    1    4    4    0    0 -0.17817631430E-01 -0.99342994967E-01 -0.59764542429E-02  0.10110626966E+00  0.51100000000E-03 0. -1.
         11    1    4    4    0    0  0.18130873334E-01 -0.31018158225E-01 -0.93284292390E-02  0.37123246364E-01  0.51100000000E-03 0.  1.
</event>
<event>
 8    1  0.2924722E+004  0.1043930E+01  0.7957747E-01            NaN
         13   -1    0    0    0    0  0.00000000000E+00  0.00000000000E+00  0.74505805969E-08  0.10566000000E+00  0.10566000000E+00 0. -1.
     999900   -1    0    0    0    0 -0.00000000000E+00 -0.00000000000E+00 -0.74505805969E-08  0.93827000000E+00  0.93827000000E+00 0.  1.
     999902    2    1    2    0    0  0.10413212478E-01 -0.37173745684E-02  0.79092265769E-02  0.10303355257E+01  0.10302458375E+01 0.  0.
     999903    2    3    3    0    0 -0.24619465445E-01 -0.12992889595E+00 -0.14261438529E-01  0.14036464127E+00  0.44846491600E-01 0.  0.
         14    1    1    2    0    0 -0.10413212478E-01  0.37173745684E-02 -0.79092265769E-02  0.13594474350E-01  0.00000000000E+00 0.  1.
     999901    1    3    3    0    0  0.35032677923E-01  0.12621152138E+00  0.22170665106E-01  0.88997088438E+00  0.88000000000E+00 0. -1.
        -11    1    4    4    0    0  0.10316120162E-01 -0.47417739454E-01  0.47651272680E-02  0.48763017842E-01  0.51100000000E-03 0. -1.
         11    1    4    4    0    0 -0.34935585607E-01 -0.82511156495E-01 -0.19026565797E-01  0.91601623430E-01  0.51100000000E-03 0.  1.
</event>
<event>
 8    1  0.2924722E+004  0.1043930E+01  0.7957747E-01            NaN
         13   -1    0    0    0    0  0.00000000000E+00  0.00000000000E+00  0.74505805969E-08  0.10566000000E+00  0.10566000000E+00 0. -1.
     999900   -1    0    0    0    0 -0.00000000000E+00 -0.00000000000E+00 -0.74505805969E-08  0.93827000000E+00  0.93827000000E+00 0. -1.
     999902    2    1    2    0    0 -0.71739335785E-02 -0.12913945643E-01  0.19780264542E-02  0.10290253731E+01  0.10289174265E+01 0.  0.
     999903    2    3    3    0    0 -0.71556554005E-02  0.95703342953E-01  0.88802057811E-01  0.13810667413E+00  0.44467006989E-01 0.  0.
         14    1    1    2    0    0  0.71739335785E-02  0.12913945643E-01 -0.19780264542E-02  0.14904626923E-01  0.00000000000E+00 0.  1.
     999901    1    3    3    0    0 -0.18278178050E-04 -0.10861728860E+00 -0.86824031357E-01  0.89091869895E+00  0.88000000000E+00 0. -1.
        -11    1    4    4    0    0 -0.67317064273E-02  0.17837892461E-01  0.44741493874E-01  0.48637112105E-01  0.51100000000E-03 0.  1.
         11    1    4    4    0    0 -0.42394897315E-03  0.77865450492E-01  0.44060563937E-01  0.89469562023E-01  0.51100000000E-03 0. -1.
</event>
<event>
 8    1  0.2924722E+004  0.1043930E+01  0.7957747E-01            NaN
         13   -1    0    0    0    0  0.00000000000E+00  0.00000000000E+00  0.74505805969E-08  0.10566000000E+00  0.10566000000E+00 0. -1.
     999900   -1    0    0    0    0 -0.00000000000E+00 -0.00000000000E+00 -0.74505805969E-08  0.93827000000E+00  0.93827000000E+00 0. -1.
     999902    2    1    2    0    0  0.86946609055E-02 -0.71554881989E-02 -0.83739647284E-02  0.10298971306E+01  0.10298015236E+01 0.  0.
     999903    2    3    3    0    0  0.94119136775E-01  0.85154561166E-01  0.37244003567E-01  0.13978506720E+00  0.45199978059E-01 0.  0.
         14    1    1    2    0    0 -0.86946609055E-02  0.71554881989E-02  0.83739647284E-02  0.14032869446E-01  0.00000000000E+00 0. -1.
     999901    1    3    3    0    0 -0.85424475869E-01 -0.92310049365E-01 -0.45617968296E-01  0.89011206335E+00  0.88000000000E+00 0.  1.
        -11    1    4    4    0    0  0.50708181500E-01  0.25100371141E-01 -0.58252224116E-03  0.56585764602E-01  0.51100000000E-03 0.  1.
         11    1    4    4    0    0  0.43410955275E-01  0.60054190025E-01  0.37826525809E-01  0.83199302600E-01  0.51100000000E-03 0. -1.
</event>
<event>
 8    1  0.2924722E+004  0.1043930E+01  0.7957747E-01            NaN
         13   -1    0    0    0    0  0.00000000000E+00  0.00000000000E+00  0.74505805969E-08  0.10566000000E+00  0.10566000000E+00 0. -1.
     999900   -1    0    0    0    0 -0.00000000000E+00 -0.00000000000E+00 -0.74505805969E-08  0.93827000000E+00  0.93827000000E+00 0.  1.
     999902    2    1    2    0    0 -0.11674682748E-01 -0.33670159767E-02  0.62218535838E-02  0.10302791218E+01  0.10301886829E+01 0.  0.
     999903    2    3    3    0    0  0.65715603173E-01  0.76665045408E-03 -0.11348709155E+00  0.13879913037E+00  0.45461526497E-01 0.  0.
         14    1    1    2    0    0  0.11674682748E-01  0.33670159767E-02 -0.62218535838E-02  0.13650878209E-01  0.00000000000E+00 0. -1.
     999901    1    3    3    0    0 -0.77390285921E-01 -0.41336664308E-02  0.11970894513E+00  0.89147999142E+00  0.88000000000E+00 0. -1.
        -11    1    4    4    0    0  0.34557743884E-01 -0.14210132795E-02 -0.19395383305E-01  0.39657268636E-01  0.51100000000E-03 0.  1.
         11    1    4    4    0    0  0.31157859289E-01  0.21876637336E-02 -0.94091708241E-01  0.99141861738E-01  0.51100000000E-03 0. -1.
</event>
<event>
 8    1  0.2924722E+004  0.1043930E+01  0.7957747E-01            NaN
         13   -1    0    0    0    0  0.00000000000E+00  0.00000000000E+00  0.74505805969E-08  0.10566000000E+00  0.10566000000E+00 0. -1.
     999900   -1    0    0    0    0 -0.00000000000E+00 -0.00000000000E+00 -0.74505805969E-08  0.93827000000E+00  0.93827000000E+00 0.  1.
     999902    2    1    2    0    0 -0.89051715750E-02 -0.80767555512E-02  0.79953743593E-02  0.10294917843E+01  0.10293905342E+01 0.  0.
     999903    2    3    3    0    0 -0.33159106519E-01  0.10471042410E+00 -0.71467465922E-01  0.13841179675E+00  0.44569356431E-01 0.  0.
         14    1    1    2    0    0  0.89051715750E-02  0.80767555512E-02 -0.79953743593E-02  0.14438215685E-01  0.00000000000E+00 0.  1.
     999901    1    3    3    0    0  0.24253934944E-01 -0.11278717966E+00  0.79462840281E-01  0.89107998757E+00  0.88000000000E+00 0. -1.
        -11    1    4    4    0    0 -0.43092280123E-01  0.94456089920E-01 -0.58791139880E-01  0.11931285253E+00  0.51100000000E-03 0. -1.
         11    1    4    4    0    0  0.99331736038E-02  0.10254334185E-01 -0.12676326042E-01  0.19098944221E-01  0.51100000000E-03 0.  1.
</event>
<event>
 8    1  0.2924722E+004  0.1043930E+01  0.7957747E-01            NaN
         13   -1    0    0    0    0  0.00000000000E+00  0.00000000000E+00  0.74505805969E-08  0.10566000000E+00  0.10566000000E+00 0.  1.
     999900   -1    0    0    0    0 -0.00000000000E+00 -0.00000000000E+00 -0.74505805969E-08  0.93827000000E+00  0.93827000000E+00 0. -1.
     999902    2    1    2    0    0 -0.45435880090E-02 -0.53658095484E-02 -0.11418130461E-01  0.10305206821E+01  0.10304334362E+01 0.  0.
     999903    2    3    3    0    0 -0.98037075393E-01 -0.13698672639E-01  0.88260334768E-01  0.13993308659E+00  0.44636982942E-01 0.  0.
         14    1    1    2    0    0  0.45435880090E-02  0.53658095484E-02  0.11418130461E-01  0.13409317929E-01  0.00000000000E+00 0.  1.
     999901    1    3    3    0    0  0.93493487384E-01  0.83328630909E-02 -0.99678465228E-01  0.89058759548E+00  0.88000000000E+00 0. -1.
        -11    1    4    4    0    0 -0.42029694095E-01 -0.27486945597E-01  0.33296533761E-01  0.60257345158E-01  0.51100000000E-03 0. -1.
         11    1    4    4    0    0 -0.56007381298E-01  0.13788272957E-01  0.54963801007E-01  0.79675741434E-01  0.51100000000E-03 0.  1.
</event>
<event>
 8    1  0.2924722E+004  0.1043930E+01  0.7957747E-01            NaN
         13   -1    0    0    0    0  0.00000000000E+00  0.00000000000E+00  0.74505805969E-08  0.10566000000E+00  0.10566000000E+00 0. -1.
     999900   -1    0    0    0    0 -0.00000000000E+00 -0.00000000000E+00 -0.74505805969E-08  0.93827000000E+00  0.93827000000E+00 0.  1.
     999902    2    1    2    0    0 -0.11618188618E-01 -0.13976964920E-02 -0.81557632106E-02  0.10296663281E+01  0.10295675281E+01 0.  0.
     999903    2    3    3    0    0 -0.91700329022E-01 -0.95034750089E-01  0.18277816105E-01  0.14068951113E+00  0.44932236894E-01 0.  0.
         14    1    1    2    0    0  0.11618188618E-01  0.13976964920E-02  0.81557632106E-02  0.14263671891E-01  0.00000000000E+00 0.  1.
     999901    1    3    3    0    0  0.80082140404E-01  0.93637053597E-01 -0.26433579316E-01  0.88897681698E+00  0.88000000000E+00 0.  1.
        -11    1    4    4    0    0 -0.62000533149E-01 -0.44396601613E-01  0.27893246247E-01  0.81199868551E-01  0.51100000000E-03 0. -1.
         11    1    4    4    0    0 -0.29699795873E-01 -0.50638148475E-01 -0.96154301411E-02  0.59489642575E-01  0.51100000000E-03 0.  1.
</event>
<event>
 8    1  0.2924722E+004  0.1043930E+01  0.7957747E-01            NaN
         13   -1    0    0    0    0  0.00000000000E+00  0.00000000000E+00  0.74505805969E-08  0.10566000000E+00  0.10566000000E+00 0.  1.
     999900   -1    0    0    0    0 -0.00000000000E+00 -0.00000000000E+00 -0.74505805969E-08  0.93827000000E+00  0.93827000000E+00 0.  1.
     999902    2    1    2    0    0 -0.40811033757E-02  0.11498175355E-01  0.26330973009E-02  0.10314481475E+01  0.10313726214E+01 0.  0.
     999903    2    3    3    0    0  0.46939733032E-01 -0.11651553739E+00  0.41564669172E-01  0.13987296629E+00  0.45360952215E-01 0.  0.
         14    1    1    2    0    0  0.40811033757E-02 -0.11498175355E-01 -0.26330973009E-02  0.12481852533E-01  0.00000000000E+00 0. -1.
     999901    1    3    3    0    0 -0.51020836408E-01  0.12801371274E+00 -0.38931571871E-01  0.89157518117E+00  0.88000000000E+00 0. -1.
        -11    1    4    4    0    0  0.49888465066E-01 -0.10592486631E+00  0.24586407526E-01  0.11963982951E+00  0.51100000000E-03 0. -1.
         11    1    4    4    0    0 -0.29487320341E-02 -0.10590671082E-01  0.16978261647E-01  0.20233136784E-01  0.51100000000E-03 0.  1.
</event>
<event>
 8    1  0.2924722E+004  0.1043930E+01  0.7957747E-01            NaN
         13   -1    0    0    0    0  0.00000000000E+00  0.00000000000E+00  0.74505805969E-08  0.10566000000E+00  0.10566000000E+00 0. -1.
     999900   -1    0    0    0    0 -0.00000000000E+00 -0.00000000000E+00 -0.74505805969E-08  0.93827000000E+00  0.93827000000E+00 0.  1.
     999902    2    1    2    0    0  0.77995847063E-02 -0.19514380864E-02  0.11677533748E-01  0.10297523265E+01  0.10296547224E+01 0.  0.
     999903    2    3    3    0    0  0.48868935459E-01  0.12227580510E+00 -0.38974807370E-02  0.13994241385E+00  0.47213805971E-01 0.  0.
         14    1    1    2    0    0 -0.77995847063E-02  0.19514380864E-02 -0.11677533748E-01  0.14177673527E-01  0.00000000000E+00 0.  1.
     999901    1    3    3    0    0 -0.41069350753E-01 -0.12422724318E+00  0.15575014485E-01  0.88980991262E+00  0.88000000000E+00 0. -1.
        -11    1    4    4    0    0  0.47800943212E-01  0.11543097991E+00  0.90330672754E-02  0.12526411586E+00  0.51100000000E-03 0. -1.
         11    1    4    4    0    0  0.10679922474E-02  0.68448251829E-02 -0.12930548012E-01  0.14678297998E-01  0.51100000000E-03 0.  1.
</event>
<event>
 8    1  0.2924722E+004  0.1043930E+01  0.7957747E-01            NaN
         13   -1    0    0    0    0  0.00000000000E+00  0.00000000000E+00  0.74505805969E-08  0.10566000000E+00  0.10566000000E+00 0. -1.
     999900   -1    0    0    0    0 -0.00000000000E+00 -0.00000000000E+00 -0.74505805969E-08  0.93827000000E+00  0.93827000000E+00 0. -1.
     999902    2    1    2    0    0  0.97535230141E-02  0.56861640953E-02 -0.69861032043E-02  0.10306533547E+01  0.10305678377E+01 0.  0.
     999903    2    3    3    0    0  0.73849442537E-01 -0.36090078676E-02  0.11168528379E+00  0.14032892772E+00  0.41854990627E-01 0.  0.
         14    1    1    2    0    0 -0.97535230141E-02 -0.56861640953E-02  0.69861032043E-02  0.13276645333E-01  0.00000000000E+00 0. -1.
     999901    1    3    3    0    0 -0.64095919523E-01  0.92951719629E-02 -0.11867138699E+00  0.89032442694E+00  0.88000000000E+00 0. -1.
        -11    1    4    4    0    0  0.49112247351E-01  0.12499723358E-01  0.46548702287E-01  0.68813506883E-01  0.51100000000E-03 0.  1.
         11    1    4    4    0    0  0.24737195186E-01 -0.16108731225E-01  0.65136581502E-01  0.71515420841E-01  0.51100000000E-03 0. -1.
</event>
<event>
 8    1  0.2924722E+004  0.1043930E+01  0.7957747E-01            NaN
         13   -1    0    0    0    0  0.00000000000E+00  0.00000000000E+00  0.74505805969E-08  0.10566000000E+00  0.10566000000E+00 0.  1.
     999900   -1    0    0    0    0 -0.00000000000E+00 -0.00000000000E+00 -0.74505805969E-08  0.93827000000E+00  0.93827000000E+00 0. -1.
     999902    2    1    2    0    0 -0.52349617416E-02 -0.11262403268E-01  0.60356971946E-02  0.10301214450E+01  0.10300288905E+01 0.  0.
     999903    2    3    3    0    0  0.91151800624E-01  0.61447002793E-01  0.73716932464E-01  0.13930282408E+00  0.43436226305E-01 0.  0.
         14    1    1    2    0    0  0.52349617416E-02  0.11262403268E-01 -0.60356971946E-02  0.13808555045E-01  0.00000000000E+00 0.  1.
     999901    1    3    3    0    0 -0.96386762366E-01 -0.72709406062E-01 -0.67681235269E-01  0.89081862087E+00  0.88000000000E+00 0.  1.
        -11    1    4    4    0    0  0.43867172438E-01  0.76551411678E-02  0.16001557260E-01  0.47320618759E-01  0.51100000000E-03 0.  1.
         11    1    4    4    0    0  0.47284628186E-01  0.53791861626E-01  0.57715375204E-01  0.91982205322E-01  0.51100000000E-03 0. -1.
</event>
<event>
 8    1  0.2924722E+004  0.1043930E+01  0.7957747E-01            NaN
         13   -1    0    0    0    0  0.00000000000E+00  0.00000000000E+00  0.74505805969E-08  0.10566000000E+00  0.10566000000E+00 0. -1.
     999900   -1    0    0    0    0 -0.00000000000E+00 -0.00000000000E+00 -0.74505805969E-08  0.93827000000E+00  0.93827000000E+00 0.  1.
     999902    2    1    2    0    0 -0.18894830170E-01 -0.56599491169E-02  0.15256402247E-01  0.10189939329E+01  0.10186887787E+01 0.  0.
     999903    2    3    3    0    0  0.51409250972E-03 -0.97189848771E-01 -0.72166523470E-01  0.12972614607E+00  0.46634052686E-01 0.  0.
         14    1    1    2    0    0  0.18894830170E-01  0.56599491169E-02 -0.15256402247E-01  0.24936067065E-01  0.00000000000E+00 0.  1.
     999901    1    3    3    0    0 -0.19408922679E-01  0.91529899654E-01  0.87422925717E-01  0.88926778686E+00  0.88000000000E+00 0. -1.
        -11    1    4    4    0    0  0.13932349185E-01 -0.70279937038E-01 -0.69023667653E-01  0.99488229058E-01  0.51100000000E-03 0. -1.
         11    1    4    4    0    0 -0.13418256675E-01 -0.26909911733E-01 -0.31428558167E-02  0.30237917014E-01  0.51100000000E-03 0.  1.
</event>
<event>
 8    1  0.2924722E+004  0.1043930E+01  0.7957747E-01            NaN
         13   -1    0    0    0    0  0.00000000000E+00  0.00000000000E+00  0.74505805969E-08  0.10566000000E+00  0.10566000000E+00 0.  1.
     999900   -1    0    0    0    0 -0.00000000000E+00 -0.00000000000E+00 -0.74505805969E-08  0.93827000000E+00  0.93827000000E+00 0. -1.
     999902    2    1    2    0    0 -0.39117496631E-02 -0.44521234528E-02  0.12384899005E-01  0.10302001452E+01  0.10301086498E+01 0.  0.
     999903    2    3    3    0    0 -0.11408233178E+00  0.65946259330E-01  0.20455329169E-01  0.14050434255E+00  0.44264683885E-01 0.  0.
         14    1    1    2    0    0  0.39117496631E-02  0.44521234528E-02 -0.12384899005E-01  0.13729854771E-01  0.00000000000E+00 0. -1.
     999901    1    3    3    0    0  0.11017058212E+00 -0.70398382783E-01 -0.80704301642E-02  0.88969580268E+00  0.88000000000E+00 0. -1.
        -11    1    4    4    0    0 -0.81304668783E-01  0.52219238964E-01 -0.50450201442E-02  0.96762655158E-01  0.51100000000E-03 0. -1.
         11    1    4    4    0    0 -0.32777662998E-01  0.13727020367E-01  0.25500349313E-01  0.43741687392E-01  0.51100000000E-03 0.  1.
</event>
<event>
 7    1  0.2924722E+004  0.1043930E+01  0.7957747E-01            NaN
         13   -1    0    0    0    0  0.00000000000E+00  0.00000000000E+00  0.74505805969E-08  0.10566000000E+00  0.10566000000E+00 0.  1.
     999900   -1    0    0    0    0 -0.00000000000E+00 -0.00000000000E+00 -0.74505805969E-08  0.93827000000E+00  0.93827000000E+00 0. -1.
     999903    2    1    2    0    0 -0.89013329938E-01 -0.76755701556E-01  0.26815597630E-01  0.12868569673E+00  0.45012460931E-01 0.  0.
         14    1    1    2    0    0  0.24585081062E-01 -0.60611514652E-02 -0.13966881310E-01  0.28917772069E-01  0.00000000000E+00 0. -1.
     999901    1    1    2    0    0  0.64428248877E-01  0.82816853021E-01 -0.12848716320E-01  0.88632653120E+00  0.88000000000E+00 0. -1.
        -11    1    3    3    0    0 -0.23998182328E-01 -0.20130453444E-01 -0.12749417161E-01  0.33822428504E-01  0.51100000000E-03 0. -1.
         11    1    3    3    0    0 -0.65015147610E-01 -0.56625248112E-01  0.39565014791E-01  0.94863268228E-01  0.51100000000E-03 0.  1.
</event>
<event>
 8    1  0.2924722E+004  0.1043930E+01  0.7957747E-01            NaN
         13   -1    0    0    0    0  0.00000000000E+00  0.00000000000E+00  0.74505805969E-08  0.10566000000E+00  0.10566000000E+00 0. -1.
     999900   -1    0    0    0    0 -0.00000000000E+00 -0.00000000000E+00 -0.74505805969E-08  0.93827000000E+00  0.93827000000E+00 0. -1.
     999902    2    1    2    0    0  0.84579344638E-02 -0.14901418524E-01  0.72472185878E-02  0.10253259384E+01  0.10251571435E+01 0.  0.
     999903    2    3    3    0    0 -0.92394563557E-01  0.85305595143E-01 -0.86026137945E-02  0.13377454388E+00  0.44808745675E-01 0.  0.
         14    1    1    2    0    0 -0.84579344638E-02  0.14901418524E-01 -0.72472185878E-02  0.18604061564E-01  0.00000000000E+00 0.  1.
     999901    1    3    3    0    0  0.10085249802E+00 -0.10020701367E+00  0.15849832382E-01  0.89155139455E+00  0.88000000000E+00 0.  1.
        -11    1    4    4    0    0 -0.62111535864E-01  0.47736064770E-01 -0.25903284250E-01  0.82509490503E-01  0.51100000000E-03 0.  1.
         11    1    4    4    0    0 -0.30283027693E-01  0.37569530373E-01  0.17300670455E-01  0.51265053379E-01  0.51100000000E-03 0. -1.
</event>
<event>
 8    1  0.2924722E+004  0.1043930E+01  0.7957747E-01            NaN
         13   -1    0    0    0    0  0.00000000000E+00  0.00000000000E+00  0.74505805969E-08  0.10566000000E+00  0.10566000000E+00 0.  1.
     999900   -1    0    0    0    0 -0.00000000000E+00 -0.00000000000E+00 -0.74505805969E-08  0.93827000000E+00  0.93827000000E+00 0. -1.
     999902    2    1    2    0    0  0.25753261175E-02 -0.17636453409E-02 -0.15294052354E-01  0.10283206827E+01  0.10282022056E+01 0.  0.
     999903    2    3    3    0    0  0.68503781833E-01  0.39940715701E-01  0.10240689488E+00  0.13706352116E+00  0.44846491702E-01 0.  0.
         14    1    1    2    0    0 -0.25753261175E-02  0.17636453409E-02  0.15294052354E-01  0.15609317311E-01  0.00000000000E+00 0.  1.
     999901    1    3    3    0    0 -0.65928455715E-01 -0.41704361041E-01 -0.11770094723E+00  0.89125716153E+00  0.88000000000E+00 0. -1.
        -11    1    4    4    0    0  0.48312515779E-01  0.10093050290E-01  0.34611169446E-01  0.60284019578E-01  0.51100000000E-03 0.  1.
         11    1    4    4    0    0  0.20191266054E-01  0.29847665411E-01  0.67795725429E-01  0.76779501579E-01  0.51100000000E-03 0. -1.
</event>
<event>
 8    1  0.2924722E+004  0.1043930E+01  0.7957747E-01            NaN
         13   -1    0    0    0    0  0.00000000000E+00  0.00000000000E+00  0.74505805969E-08  0.10566000000E+00  0.10566000000E+00 0.  1.
     999900   -1    0    0    0    0 -0.00000000000E+00 -0.00000000000E+00 -0.74505805969E-08  0.93827000000E+00  0.93827000000E+00 0. -1.
     999902    2    1    2    0    0  0.29736421217E-02 -0.93596931494E-02 -0.79381759787E-02  0.10313022115E+01  0.10312248981E+01 0.  0.
     999903    2    3    3    0    0  0.51626638153E-01  0.12039091015E+00 -0.24852626324E-01  0.14029804113E+00  0.43664703068E-01 0.  0.
         14    1    1    2    0    0 -0.29736421217E-02  0.93596931494E-02  0.79381759787E-02  0.12627788452E-01  0.00000000000E+00 0. -1.
     999901    1    3    3    0    0 -0.48652996031E-01 -0.12975060330E+00  0.16914450346E-01  0.89100417042E+00  0.88000000000E+00 0. -1.
        -11    1    4    4    0    0  0.67272311531E-02  0.49396018888E-01  0.72317714587E-02  0.50376402813E-01  0.51100000000E-03 0. -1.
         11    1    4    4    0    0  0.44899407000E-01  0.70994891265E-01 -0.32084397783E-01  0.89921638312E-01  0.51100000000E-03 0.  1.
</event>
<event>
 8    1  0.2924722E+004  0.1043930E+01  0.7957747E-01            NaN
         13   -1    0    0    0    0  0.00000000000E+00  0.00000000000E+00  0.74505805969E-08  0.10566000000E+00  0.10566000000E+00 0.  1.
     999900   -1    0    0    0    0 -0.00000000000E+00 -0.00000000000E+00 -0.74505805969E-08  0.93827000000E+00  0.93827000000E+00 0.  1.
     999902    2    1    2    0    0 -0.46388548520E-02 -0.13577083598E-02 -0.14257186074E-01  0.10288757746E+01  0.10287656341E+01 0.  0.
     999903    2    3    3    0    0  0.58613858993E-01 -0.59275115179E-01  0.99460716683E-01  0.13742353631E+00  0.45206973173E-01 0.  0.
         14    1    1    2    0    0  0.46388548520E-02  0.13577083598E-02  0.14257186074E-01  0.15054225357E-01  0.00000000000E+00 0.  1.
     999901    1    3    3    0    0 -0.63252713845E-01  0.57917406820E-01 -0.11371790276E+00  0.89145223833E+00  0.88000000000E+00 0. -1.
        -11    1    4    4    0    0  0.37468528448E-01 -0.36019676885E-01  0.27293571682E-01  0.58706966564E-01  0.51100000000E-03 0. -1.
         11    1    4    4    0    0  0.21145330544E-01 -0.23255438294E-01  0.72167145001E-01  0.78716569746E-01  0.51100000000E-03 0.  1.
</event>
<event>
 8    1  0.2924722E+004  0.1043930E+01  0.7957747E-01            NaN
         13   -1    0    0    0    0  0.00000000000E+00  0.00000000000E+00  0.74505805969E-08  0.10566000000E+00  0.10566000000E+00 0.  1.
     999900   -1    0    0    0    0 -0.00000000000E+00 -0.00000000000E+00 -0.74505805969E-08  0.93827000000E+00  0.93827000000E+00 0. -1.
     999902    2    1    2    0    0  0.95772973028E-02 -0.79394412888E-02  0.33125081377E-02  0.10310563035E+01  0.10309759303E+01 0.  0.
     999903    2    3    3    0    0 -0.42773267976E-01 -0.38663489037E-01 -0.11995501139E+00  0.14039394875E+00  0.44685996126E-01 0.  0.
         14    1    1    2    0    0 -0.95772973028E-02  0.79394412888E-02 -0.33125081377E-02  0.12873696507E-01  0.00000000000E+00 0.  1.
     999901    1    3    3    0    0  0.52350565279E-01  0.30724047749E-01  0.12326751952E+00  0.89066235475E+00  0.88000000000E+00 0.  1.
        -11    1    4    4    0    0 -0.50069880409E-01 -0.34273475445E-01 -0.11616717459E+00  0.13106005347E+00  0.51100000000E-03 0.  1.
         11    1    4    4    0    0  0.72966124331E-02 -0.43900135921E-02 -0.37878367946E-02  0.93338952705E-02  0.51100000000E-03 0. -1.
</event>
<event>
 8    1  0.2924722E+004  0.1043930E+01  0.7957747E-01            NaN
         13   -1    0    0    0    0  0.00000000000E+00  0.00000000000E+00  0.74505805969E-08  0.10566000000E+00  0.10566000000E+00 0.  1.
     999900   -1    0    0    0    0 -0.00000000000E+00 -0.00000000000E+00 -0.74505805969E-08  0.93827000000E+00  0.93827000000E+00 0.  1.
     999902    2    1    2    0    0 -0.45033537545E-02  0.64543654522E-02 -0.11159443197E-01  0.10302745176E+01  0.10301840172E+01 0.  0.
     999903    2    3    3    0    0  0.13364244497E-01 -0.69559216424E-01 -0.11309925549E+00  0.14095509180E+00  0.45385115297E-01 0.  0.
         14    1    1    2    0    0  0.45033537545E-02 -0.64543654522E-02  0.11159443197E-01  0.13655482449E-01  0.00000000000E+00 0.  1.
     999901    1    3    3    0    0 -0.17867598252E-01  0.76013581876E-01  0.10193981229E+00  0.88931942576E+00  0.88000000000E+00 0. -1.
        -11    1    4    4    0    0  0.89077253231E-02 -0.91512759038E-02 -0.56927148213E-01  0.58344277747E-01  0.51100000000E-03 0.  1.
         11    1    4    4    0    0  0.44565191741E-02 -0.60407940520E-01 -0.56172107275E-01  0.82610814049E-01  0.51100000000E-03 0. -1.
</event>
<event>
 8    1  0.2924722E+004  0.1043930E+01  0.7957747E-01            NaN
         13   -1    0    0    0    0  0.00000000000E+00  0.00000000000E+00  0.74505805969E-08  0.10566000000E+00  0.10566000000E+00 0.  1.
     999900   -1    0    0    0    0 -0.00000000000E+00 -0.00000000000E+00 -0.74505805969E-08  0.93827000000E+00  0.93827000000E+00 0. -1.
     999902    2    1    2    0    0 -0.46888875643E-02  0.83974665546E-02 -0.99175524705E-02  0.10301147563E+01  0.10300221115E+01 0.  0.
     999903    2    3    3    0    0  0.35520761563E-01 -0.12633724279E+00  0.77663749864E-02  0.13877700940E+00  0.44451303022E-01 0.  0.
         14    1    1    2    0    0  0.46888875643E-02 -0.83974665546E-02  0.99175524705E-02  0.13815243687E-01  0.00000000000E+00 0.  1.
     999901    1    3    3    0    0 -0.40209649127E-01  0.13473470934E+00 -0.17683927457E-01  0.89133774691E+00  0.88000000000E+00 0. -1.
        -11    1    4    4    0    0 -0.21729573034E-02 -0.28942871522E-01 -0.13793767395E-01  0.32139394757E-01  0.51100000000E-03 0. -1.
         11    1    4    4    0    0  0.37693718867E-01 -0.97394371265E-01  0.21560142382E-01  0.10663761464E+00  0.51100000000E-03 0.  1.
</event>
<event>
 8    1  0.2924722E+004  0.1043930E+01  0.7957747E-01            NaN
         13   -1    0    0    0    0  0.00000000000E+00  0.00000000000E+00  0.74505805969E-08  0.10566000000E+00  0.10566000000E+00 0.  1.
     999900   -1    0    0    0    0 -0.00000000000E+00 -0.00000000000E+00 -0.74505805969E-08  0.93827000000E+00  0.93827000000E+00 0.  1.
     999902    2    1    2    0    0 -0.56631478236E-02  0.11875904828E-01 -0.44935139721E-02  0.10300267620E+01  0.10299329252E+01 0.  0.
     999903    2    3    3    0    0  0.49474611658E-01  0.77059388106E-01 -0.96982241179E-01  0.14107050680E+00  0.45928708798E-01 0.  0.
         14    1    1    2    0    0  0.56631478236E-02 -0.11875904828E-01  0.44935139721E-02  0.13903237989E-01  0.00000000000E+00 0.  1.
     999901    1    3    3    0    0 -0.55137759481E-01 -0.65183483278E-01  0.92488727207E-01  0.88895625521E+00  0.88000000000E+00 0. -1.
        -11    1    4    4    0    0  0.36859557817E-01  0.59017624780E-01 -0.40651304328E-01  0.80588440249E-01  0.51100000000E-03 0. -1.
         11    1    4    4    0    0  0.12615053841E-01  0.18041763326E-01 -0.56330936850E-01  0.60482066555E-01  0.51100000000E-03 0.  1.
</event>
<event>
 8    1  0.2924722E+004  0.1043930E+01  0.7957747E-01            NaN
         13   -1    0    0    0    0  0.00000000000E+00  0.00000000000E+00  0.74505805969E-08  0.10566000000E+00  0.10566000000E+00 0. -1.
     999900   -1    0    0    0    0 -0.00000000000E+00 -0.00000000000E+00 -0.74505805969E-08  0.93827000000E+00  0.93827000000E+00 0.  1.
     999902    2    1    2    0    0  0.27760207767E-02 -0.13082814731E-01 -0.43567139557E-02  0.10298641801E+01  0.10297681206E+01 0.  0.
     999903    2    3    3    0    0 -0.13767491732E-01  0.50009902448E-01  0.11972912069E+00  0.13876840909E+00  0.47234255041E-01 0.  0.
         14    1    1    2    0    0 -0.27760207767E-02  0.13082814731E-01  0.43567139557E-02  0.14065819888E-01  0.00000000000E+00 0. -1.
     999901    1    3    3    0    0  0.16543512509E-01 -0.63092717179E-01 -0.12408583465E+00  0.89109577102E+00  0.88000000000E+00 0.  1.
        -11    1    4    4    0    0 -0.10565873528E-02  0.54023670748E-01  0.77469519477E-01  0.94453485626E-01  0.51100000000E-03 0. -1.
         11    1    4    4    0    0 -0.12710904379E-01 -0.40137683000E-02  0.42259601214E-01  0.44314923467E-01  0.51100000000E-03 0.  1.
</event>
<event>
 8    1  0.2924722E+004  0.1043930E+01  0.7957747E-01            NaN
         13   -1    0    0    0    0  0.00000000000E+00  0.00000000000E+00  0.74505805969E-08  0.10566000000E+00  0.10566000000E+00 0. -1.
     999900   -1    0    0    0    0 -0.00000000000E+00 -0.00000000000E+00 -0.74505805969E-08  0.93827000000E+00  0.93827000000E+00 0.  1.
     999902    2    1    2    0    0  0.92518059386E-02 -0.79997950266E-02 -0.58640577316E-02  0.10303660844E+01  0.10302768017E+01 0.  0.
     999903    2    3    3    0    0 -0.34241083214E-01  0.12603184380E+00  0.14167363289E-01  0.13893051777E+00  0.45216116062E-01 0.  0.
         14    1    1    2    0    0 -0.92518059386E-02  0.79997950266E-02  0.58640577316E-02  0.13563915610E-01  0.00000000000E+00 0.  1.
     999901    1    3    3    0    0  0.43492889153E-01 -0.13403163883E+00 -0.20031421021E-01  0.89143556662E+00  0.88000000000E+00 0. -1.
        -11    1    4    4    0    0  0.81172216151E-03  0.48309883326E-01  0.22424419990E-01  0.53269310609E-01  0.51100000000E-03 0. -1.
         11    1    4    4    0    0 -0.35052805376E-01  0.77721960478E-01 -0.82570567006E-02  0.85661207157E-01  0.51100000000E-03 0.  1.
</event>
<event>
 8    1  0.2924722E+004  0.1043930E+01  0.7957747E-01            NaN
         13   -1    0    0    0    0  0.00000000000E+00  0.00000000000E+00  0.74505805969E-08  0.10566000000E+00  0.10566000000E+00 0.  1.
     999900   -1    0    0    0    0 -0.00000000000E+00 -0.00000000000E+00 -0.74505805969E-08  0.93827000000E+00  0.93827000000E+00 0. -1.
     999902    2    1    2    0    0  0.38548419507E-02  0.13402703881E-01 -0.36070496288E-02  0.10295250326E+01  0.10294242516E+01 0.  0.
     999903    2    3    3    0    0  0.65839189883E-01  0.47096469106E-01  0.10460406721E+00  0.14009432987E+00  0.46168539704E-01 0.  0.
         14    1    1    2    0    0 -0.38548419507E-02 -0.13402703881E-01  0.36070496288E-02  0.14404967366E-01  0.00000000000E+00 0.  1.
     999901    1    3    3    0    0 -0.61984347933E-01 -0.33693765225E-01 -0.10821111684E+00  0.88943070276E+00  0.88000000000E+00 0. -1.
        -11    1    4    4    0    0  0.51405309251E-01  0.15832545503E-01  0.84642741679E-01  0.10028873394E+00  0.51100000000E-03 0. -1.
         11    1    4    4    0    0  0.14433880633E-01  0.31263923603E-01  0.19961325534E-01  0.39805595929E-01  0.51100000000E-03 0.  1.
</event>
<event>
 8    1  0.2924722E+004  0.1043930E+01  0.7957747E-01            NaN
         13   -1    0    0    0    0  0.00000000000E+00  0.00000000000E+00  0.74505805969E-08  0.10566000000E+00  0.10566000000E+00 0.  1.
     999900   -1    0    0    0    0 -0.00000000000E+00 -0.00000000000E+00 -0.74505805969E-08  0.93827000000E+00  0.93827000000E+00 0. -1.
     999902    2    1    2    0    0  0.14166894338E-01  0.29510692271E-02  0.43916598870E-02  0.10288072892E+01  0.10286961369E+01 0.  0.
     999903    2    3    3    0    0 -0.79409497133E-02 -0.32793691921E-01  0.12744868938E+00  0.13925151400E+00  0.44825559843E-01 0.  0.
         14    1    1    2    0    0 -0.14166894338E-01 -0.29510692271E-02 -0.43916598870E-02  0.15122710780E-01  0.00000000000E+00 0. -1.
     999901    1    3    3    0    0  0.22107844051E-01  0.35744761148E-01 -0.12305702949E+00  0.88955577522E+00  0.88000000000E+00 0. -1.
        -11    1    4    4    0    0 -0.24368507345E-01 -0.99587618901E-02  0.45027588099E-01  0.52160769737E-01  0.51100000000E-03 0.  1.
         11    1    4    4    0    0  0.16427557632E-01 -0.22834930031E-01  0.82421101280E-01  0.87090744264E-01  0.51100000000E-03 0. -1.
</event>
<event>
 8    1  0.2924722E+004  0.1043930E+01  0.7957747E-01            NaN
         13   -1    0    0    0    0  0.00000000000E+00  0.00000000000E+00  0.74505805969E-08  0.10566000000E+00  0.10566000000E+00 0.  1.
     999900   -1    0    0    0    0 -0.00000000000E+00 -0.00000000000E+00 -0.74505805969E-08  0.93827000000E+00  0.93827000000E+00 0. -1.
     999902    2    1    2    0    0 -0.32317304233E-02  0.12702439322E-01  0.55045700741E-02  0.10297139408E+01  0.10296158039E+01 0.  0.
     999903    2    3    3    0    0  0.16088088937E-01  0.13457809578E-01  0.13154700677E+00  0.14052300417E+00  0.44745507795E-01 0.  0.
         14    1    1    2    0    0  0.32317304233E-02 -0.12702439322E-01 -0.55045700741E-02  0.14216059157E-01  0.00000000000E+00 0. -1.
     999901    1    3    3    0    0 -0.19319819361E-01 -0.75537025623E-03 -0.12604243670E+00  0.88919093667E+00  0.88000000000E+00 0. -1.
        -11    1    4    4    0    0  0.24987735298E-01  0.15256438139E-01  0.46232781131E-01  0.54725469319E-01  0.51100000000E-03 0. -1.
         11    1    4    4    0    0 -0.88996463608E-02 -0.17986285607E-02  0.85314225639E-01  0.85797534856E-01  0.51100000000E-03 0.  1.
</event>
<event>
 8    1  0.2924722E+004  0.1043930E+01  0.7957747E-01            NaN
         13   -1    0    0    0    0  0.00000000000E+00  0.00000000000E+00  0.74505805969E-08  0.10566000000E+00  0.10566000000E+00 0. -1.
     999900   -1    0    0    0    0 -0.00000000000E+00 -0.00000000000E+00 -0.74505805969E-08  0.93827000000E+00  0.93827000000E+00 0.  1.
     999902    2    1    2    0    0 -0.11478340915E-01 -0.63110062423E-02  0.53249855106E-02  0.10297901068E+01  0.10296930258E+01 0.  0.
     999903    2    3    3    0    0  0.51579206830E-01  0.11852181552E+00  0.22304303555E-01  0.13858430284E+00  0.44724620777E-01 0.  0.
         14    1    1    2    0    0  0.11478340915E-01  0.63110062423E-02 -0.53249855106E-02  0.14139893233E-01  0.00000000000E+00 0. -1.
     999901    1    3    3    0    0 -0.63057547745E-01 -0.12483282177E+00 -0.16979318044E-01  0.89120580393E+00  0.88000000000E+00 0. -1.
        -11    1    4    4    0    0  0.29704600880E-01  0.48876777911E-01  0.31014724090E-01  0.65065174739E-01  0.51100000000E-03 0.  1.
         11    1    4    4    0    0  0.21874605950E-01  0.69645037612E-01 -0.87104205351E-02  0.73519128098E-01  0.51100000000E-03 0. -1.
</event>
<event>
 8    1  0.2924722E+004  0.1043930E+01  0.7957747E-01            NaN
         13   -1    0    0    0    0  0.00000000000E+00  0.00000000000E+00  0.74505805969E-08  0.10566000000E+00  0.10566000000E+00 0.  1.
     999900   -1    0    0    0    0 -0.00000000000E+00 -0.00000000000E+00 -0.74505805969E-08  0.93827000000E+00  0.93827000000E+00 0.  1.
     999902    2    1    2    0    0 -0.12847063125E-02 -0.13989612738E-01 -0.13993925416E-02  0.10298119961E+01  0.10297152176E+01 0.  0.
     999903    2    3    3    0    0  0.73505085114E-01 -0.78409140091E-01  0.78877516826E-01  0.14066196905E+00  0.44867985130E-01 0.  0.
         14    1    1    2    0    0  0.12847063125E-02  0.13989612738E-01  0.13993925416E-02  0.14118003908E-01  0.00000000000E+00 0. -1.
     999901    1    3    3    0    0 -0.74789791427E-01  0.64419527353E-01 -0.80276909368E-01  0.88915002704E+00  0.88000000000E+00 0.  1.
        -11    1    4    4    0    0  0.51646042467E-01 -0.60914088470E-01  0.79452268759E-01  0.11265329116E+00  0.51100000000E-03 0. -1.
         11    1    4    4    0    0  0.21859042647E-01 -0.17495051621E-01 -0.57475193254E-03  0.28008677895E-01  0.51100000000E-03 0.  1.
</event>
<event>
 8    1  0.2924722E+004  0.1043930E+01  0.7957747E-01            NaN
         13   -1    0    0    0    0  0.00000000000E+00  0.00000000000E+00  0.74505805969E-08  0.10566000000E+00  0.10566000000E+00 0.  1.
     999900   -1    0    0    0    0 -0.00000000000E+00 -0.00000000000E+00 -0.74505805969E-08  0.93827000000E+00  0.93827000000E+00 0.  1.
     999902    2    1    2    0    0  0.11481186909E-01 -0.65829339323E-02  0.39814309620E-02  0.10301095635E+01  0.10300168486E+01 0.  0.
     999903    2    3    3    0    0  0.37302191213E-01  0.71208804544E-01  0.10600652640E+00  0.14043130767E+00  0.44960218179E-01 0.  0.
         14    1    1    2    0    0 -0.11481186909E-01  0.65829339323E-02 -0.39814309620E-02  0.13820436480E-01  0.00000000000E+00 0. -1.
     999901    1    3    3    0    0 -0.25821004305E-01 -0.77791738477E-01 -0.10202509544E+00  0.88967825585E+00  0.88000000000E+00 0.  1.
        -11    1    4    4    0    0  0.44918858509E-01  0.56322592118E-01  0.68713262864E-01  0.99557580560E-01  0.51100000000E-03 0. -1.
         11    1    4    4    0    0 -0.76166672953E-02  0.14886212427E-01  0.37293263540E-01  0.40873727107E-01  0.51100000000E-03 0.  1.
</event>
<event>
 8    1  0.2924722E+004  0.1043930E+01  0.7957747E-01            NaN
         13   -1    0    0    0    0  0.00000000000E+00  0.00000000000E+00  0.74505805969E-08  0.10566000000E+00  0.10566000000E+00 0. -1.
     999900   -1    0    0    0    0 -0.00000000000E+00 -0.00000000000E+00 -0.74505805969E-08  0.93827000000E+00  0.93827000000E+00 0. -1.
     999902    2    1    2    0    0 -0.62400848728E-02 -0.10737848536E-01 -0.41044804200E-02  0.10308499843E+01  0.10307669976E+01 0.  0.
     999903    2    3    3    0    0  0.72376149308E-01  0.10934448984E+00 -0.10253010377E-01  0.13920090275E+00  0.45576777604E-01 0.  0.
         14    1    1    2    0    0  0.62400848728E-02  0.10737848536E-01  0.41044804200E-02  0.13080015670E-01  0.00000000000E+00 0. -1.
     999901    1    3    3    0    0 -0.78616234181E-01 -0.12008233838E+00  0.61485299573E-02  0.89164908158E+00  0.88000000000E+00 0.  1.
        -11    1    4    4    0    0  0.66286428590E-01  0.72299871691E-01  0.60359394091E-02  0.98274390089E-01  0.51100000000E-03 0. -1.
         11    1    4    4    0    0  0.60897207179E-02  0.37044618149E-01 -0.16288949786E-01  0.40926512659E-01  0.51100000000E-03 0.  1.
</event>
<event>
 8    1  0.2924722E+004  0.1043930E+01  0.7957747E-01            NaN
         13   -1    0    0    0    0  0.00000000000E+00  0.00000000000E+00  0.74505805969E-08  0.10566000000E+00  0.10566000000E+00 0.  1.
     999900   -1    0    0    0    0 -0.00000000000E+00 -0.00000000000E+00 -0.74505805969E-08  0.93827000000E+00  0.93827000000E+00 0. -1.
     999902    2    1    2    0    0 -0.74947946992E-02  0.86004622742E-02 -0.82244555311E-02  0.10298665165E+01  0.10297704891E+01 0.  0.
     999903    2    3    3    0    0  0.30474719496E-01  0.12754508062E+00 -0.26246722109E-01  0.14087028012E+00  0.44261600512E-01 0.  0.
         14    1    1    2    0    0  0.74947946992E-02 -0.86004622742E-02  0.82244555311E-02  0.14063483484E-01  0.00000000000E+00 0.  1.
     999901    1    3    3    0    0 -0.37969514195E-01 -0.11894461835E+00  0.18022266578E-01  0.88899623640E+00  0.88000000000E+00 0.  1.
        -11    1    4    4    0    0 -0.81600246176E-02  0.49286976731E-01 -0.82818963269E-03  0.49967380321E-01  0.51100000000E-03 0. -1.
         11    1    4    4    0    0  0.38634744113E-01  0.78258103888E-01 -0.25418532476E-01  0.90902899795E-01  0.51100000000E-03 0.  1.
</event>
<event>
 8    1  0.2924722E+004  0.1043930E+01  0.7957747E-01            NaN
         13   -1    0    0    0    0  0.00000000000E+00  0.00000000000E+00  0.74505805969E-08  0.10566000000E+00  0.10566000000E+00 0. -1.
     999900   -1    0    0    0    0 -0.00000000000E+00 -0.00000000000E+00 -0.74505805969E-08  0.93827000000E+00  0.93827000000E+00 0.  1.
     999902    2    1    2    0    0 -0.90127756089E-02 -0.15069824153E-02  0.97447916672E-02  0.10305710298E+01  0.10304844421E+01 0.  0.
     999903    2    3    3    0    0  0.12063979584E+00 -0.54584367993E-01  0.54402690591E-02  0.13947870739E+00  0.43489075834E-01 0.  0.
         14    1    1    2    0    0  0.90127756089E-02  0.15069824153E-02 -0.97447916672E-02  0.13358970200E-01  0.00000000000E+00 0.  1.
     999901    1    3    3    0    0 -0.12965257145E+00  0.53077385578E-01  0.43045226081E-02  0.89109232241E+00  0.88000000000E+00 0. -1.
        -11    1    4    4    0    0  0.50095689138E-01 -0.39632602515E-01  0.17802517268E-01  0.66313739107E-01  0.51100000000E-03 0.  1.
         11    1    4    4    0    0  0.70544106706E-01 -0.14951765479E-01 -0.12362248209E-01  0.73164968282E-01  0.51100000000E-03 0. -1.
</event>
<event>
 8    1  0.2924722E+004  0.1043930E+01  0.7957747E-01            NaN
         13   -1    0    0    0    0  0.00000000000E+00  0.00000000000E+00  0.74505805969E-08  0.10566000000E+00  0.10566000000E+00 0.  1.
     999900   -1    0    0    0    0 -0.00000000000E+00 -0.00000000000E+00 -0.74505805969E-08  0.93827000000E+00  0.93827000000E+00 0.  1.
     999902    2    1    2    0    0  0.67662965861E-02 -0.77774479362E-02 -0.12473870149E-01  0.10277476361E+01  0.10276202288E+01 0.  0.
     999903    2    3    3    0    0  0.82012252898E-01  0.83939662849E-01  0.55987065177E-01  0.13715183436E+00  0.43637112385E-01 0.  0.
         14    1    1    2    0    0 -0.67662965861E-02  0.77774479362E-02  0.12473870149E-01  0.16182363931E-01  0.00000000000E+00 0.  1.
     999901    1    3    3    0    0 -0.75245956311E-01 -0.91717110785E-01 -0.68460935326E-01  0.89059580171E+00  0.88000000000E+00 0.  1.
        -11    1    4    4    0    0  0.61127098178E-01  0.44407381184E-01  0.16142867437E-01  0.77261833562E-01  0.51100000000E-03 0. -1.
         11    1    4    4    0    0  0.20885154719E-01  0.39532281665E-01  0.39844197740E-01  0.59890000800E-01  0.51100000000E-03 0.  1.
</event>
<event>
 8    1  0.2924722E+004  0.1043930E+01  0.7957747E-01            NaN
         13   -1    0    0    0    0  0.00000000000E+00  0.00000000000E+00  0.74505805969E-08  0.10566000000E+00  0.10566000000E+00 0. -1.
     999900   -1    0    0    0    0 -0.00000000000E+00 -0.00000000000E+00 -0.74505805969E-08  0.93827000000E+00  0.93827000000E+00 0. -1.
     999902    2    1    2    0    0  0.77456350729E-02  0.78011789585E-02  0.88974443251E-02  0.10297872361E+01  0.10296901154E+01 0.  0.
     999903    2    3    3    0    0  0.93840188634E-01 -0.18146471199E-01  0.93269627489E-01  0.14119046701E+00  0.45828475248E-01 0.  0.
         14    1    1    2    0    0 -0.77456350729E-02 -0.78011789585E-02 -0.88974443251E-02  0.14142763922E-01  0.00000000000E+00 0.  1.
     999901    1    3    3    0    0 -0.86094553561E-01  0.25947650157E-01 -0.84372183164E-01  0.88859676907E+00  0.88000000000E+00 0. -1.
        -11    1    4    4    0    0  0.31560450016E-01  0.10245997321E-01  0.50664675968E-01  0.60565773984E-01  0.51100000000E-03 0.  1.
         11    1    4    4    0    0  0.62279738618E-01 -0.28392468519E-01  0.42604951521E-01  0.80624693029E-01  0.51100000000E-03 0. -1.
</event>
<event>
 8    1  0.2924722E+004  0.1043930E+01  0.7957747E-01            NaN
         13   -1    0    0    0    0  0.00000000000E+00  0.00000000000E+00  0.74505805969E-08  0.10566000000E+00  0.10566000000E+00 0.  1.
     999900   -1    0    0    0    0 -0.00000000000E+00 -0.00000000000E+00 -0.74505805969E-08  0.93827000000E+00  0.93827000000E+00 0.  1.
     999902    2    1    2    0    0  0.13534310288E-01 -0.54328821148E-03 -0.26616808577E-02  0.10301257520E+01  0.10300332556E+01 0.  0.
     999903    2    3    3    0    0  0.65462769431E-01 -0.92524758178E-01  0.69489457579E-01  0.14087722520E+00  0.46598313367E-01 0.  0.
         14    1    1    2    0    0 -0.13534310288E-01  0.54328821148E-03  0.26616808577E-02  0.13804247971E-01  0.00000000000E+00 0. -1.
     999901    1    3    3    0    0 -0.51928459143E-01  0.91981469966E-01 -0.72151138436E-01  0.88924852683E+00  0.88000000000E+00 0.  1.
        -11    1    4    4    0    0  0.80164172424E-02 -0.49415721376E-01  0.21436278642E-01  0.54460551113E-01  0.51100000000E-03 0.  1.
         11    1    4    4    0    0  0.57446352188E-01 -0.43109036802E-01  0.48053178936E-01  0.86416674089E-01  0.51100000000E-03 0. -1.
</event>
<event>
 8    1  0.2924722E+004  0.1043930E+01  0.7957747E-01            NaN
         13   -1    0    0    0    0  0.00000000000E+00  0.00000000000E+00  0.74505805969E-08  0.10566000000E+00  0.10566000000E+00 0.  1.
     999900   -1    0    0    0    0 -0.00000000000E+00 -0.00000000000E+00 -0.74505805969E-08  0.93827000000E+00  0.93827000000E+00 0. -1.
     999902    2    1    2    0    0  0.39040097559E-02 -0.12547677990E-01 -0.13462101399E-02  0.10307202386E+01  0.10306355866E+01 0.  0.
     999903    2    3    3    0    0  0.11316891585E+00  0.48489301340E-01 -0.50372951081E-01  0.14051354692E+00  0.45257118865E-01 0.  0.
         14    1    1    2    0    0 -0.39040097559E-02  0.12547677990E-01  0.13462101399E-02  0.13209761424E-01  0.00000000000E+00 0. -1.
     999901    1    3    3    0    0 -0.10926490609E+00 -0.61036979330E-01  0.49026740942E-01  0.89020669166E+00  0.88000000000E+00 0. -1.
        -11    1    4    4    0    0  0.70833914982E-01  0.31859676799E-01 -0.54433264913E-01  0.94845790457E-01  0.51100000000E-03 0.  1.
         11    1    4    4    0    0  0.42335000865E-01  0.16629624541E-01  0.40603138311E-02  0.45667756459E-01  0.51100000000E-03 0. -1.
</event>
<event>
 8    1  0.2924722E+004  0.1043930E+01  0.7957747E-01            NaN
         13   -1    0    0    0    0  0.00000000000E+00  0.00000000000E+00  0.74505805969E-08  0.10566000000E+00  0.10566000000E+00 0. -1.
     999900   -1    0    0    0    0 -0.00000000000E+00 -0.00000000000E+00 -0.74505805969E-08  0.93827000000E+00  0.93827000000E+00 0. -1.
     999902    2    1    2    0    0  0.83670266469E-03 -0.15019900130E-01  0.15260653281E-02  0.10288096049E+01  0.10286984869E+01 0.  0.
     999903    2    3    3    0    0 -0.35051742395E-01  0.39819252449E-01  0.11978456373E+00  0.13848360533E+00  0.44890641853E-01 0.  0.
         14    1    1    2    0    0 -0.83670266469E-03  0.15019900130E-01 -0.15260653281E-02  0.15120395056E-01  0.00000000000E+00 0. -1.
     999901    1    3    3    0    0  0.35888445060E-01 -0.54839152579E-01 -0.11825849840E+00  0.89032599961E+00  0.88000000000E+00 0. -1.
        -11    1    4    4    0    0 -0.10803837682E-01 -0.37893691556E-02  0.57722566991E-01  0.58849282819E-01  0.51100000000E-03 0.  1.
         11    1    4    4    0    0 -0.24247904713E-01  0.43608621605E-01  0.62061996741E-01  0.79634322511E-01  0.51100000000E-03 0. -1.
</event>
<event>
 8    1  0.2924722E+004  0.1043930E+01  0.7957747E-01            NaN
         13   -1    0    0    0    0  0.00000000000E+00  0.00000000000E+00  0.74505805969E-08  0.10566000000E+00  0.10566000000E+00 0.  1.
     999900   -1    0    0    0    0 -0.00000000000E+00 -0.00000000000E+00 -0.74505805969E-08  0.93827000000E+00  0.93827000000E+00 0. -1.
     999902    2    1    2    0    0  0.11258496502E-01  0.77839829643E-02 -0.38524286492E-02  0.10297108108E+01  0.10296126304E+01 0.  0.
     999903    2    3    3    0    0  0.54689924982E-01 -0.81672982182E-01  0.87908215282E-01  0.13936882408E+00  0.45103779193E-01 0.  0.
         14    1    1    2    0    0 -0.11258496502E-01 -0.77839829643E-02  0.38524286492E-02  0.14219189174E-01  0.00000000000E+00 0. -1.
     999901    1    3    3    0    0 -0.43431428480E-01  0.89456965146E-01 -0.91760643931E-01  0.89034198675E+00  0.88000000000E+00 0. -1.
        -11    1    4    4    0    0 -0.46632608266E-03 -0.48789655686E-02  0.25748322863E-01  0.26215625423E-01  0.51100000000E-03 0.  1.
         11    1    4    4    0    0  0.55156251065E-01 -0.76794016613E-01  0.62159892418E-01  0.11315319865E+00  0.51100000000E-03 0. -1.
</event>
<event>
 8    1  0.2924722E+004  0.1043930E+01  0.7957747E-01            NaN
         13   -1    0    0    0    0  0.00000000000E+00  0.00000000000E+00  0.74505805969E-08  0.10566000000E+00  0.10566000000E+00 0. -1.
     999900   -1    0    0    0    0 -0.00000000000E+00 -0.00000000000E+00 -0.74505805969E-08  0.93827000000E+00  0.93827000000E+00 0. -1.
     999902    2    1    2    0    0  0.68290793883E-04  0.13320350700E-01  0.65821278408E-03  0.10305932219E+01  0.10305069235E+01 0.  0.
     999903    2    3    3    0    0 -0.94769684093E-01  0.95193201135E-01 -0.45804795226E-02  0.14170354987E+00  0.44898515426E-01 0.  0.
         14    1    1    2    0    0 -0.68290793883E-04 -0.13320350700E-01 -0.65821278408E-03  0.13336778115E-01  0.00000000000E+00 0. -1.
     999901    1    3    3    0    0  0.94837974887E-01 -0.81872850435E-01  0.52386923067E-02  0.88888967202E+00  0.88000000000E+00 0. -1.
        -11    1    4    4    0    0 -0.86855373636E-01  0.62860182020E-01  0.41119933164E-02  0.10729598326E+00  0.51100000000E-03 0.  1.
         11    1    4    4    0    0 -0.79143104566E-02  0.32333019116E-01 -0.86924728389E-02  0.34407566613E-01  0.51100000000E-03 0. -1.
</event>
<event>
 8    1  0.2924722E+004  0.1043930E+01  0.7957747E-01            NaN
         13   -1    0    0    0    0  0.00000000000E+00  0.00000000000E+00  0.74505805969E-08  0.10566000000E+00  0.10566000000E+00 0. -1.
     999900   -1    0    0    0    0 -0.00000000000E+00 -0.00000000000E+00 -0.74505805969E-08  0.93827000000E+00  0.93827000000E+00 0.  1.
     999902    2    1    2    0    0  0.40777380382E-02  0.11915403059E-01  0.68157857084E-02  0.10296100938E+01  0.10295105078E+01 0.  0.
     999903    2    3    3    0    0 -0.11058566307E+00  0.24134674451E-01 -0.66575078437E-01  0.13905789150E+00  0.45751335861E-01 0.  0.
         14    1    1    2    0    0 -0.40777380382E-02 -0.11915403059E-01 -0.68157857084E-02  0.14319906158E-01  0.00000000000E+00 0.  1.
     999901    1    3    3    0    0  0.11466340111E+00 -0.12219271392E-01  0.73390864145E-01  0.89055220234E+00  0.88000000000E+00 0.  1.
        -11    1    4    4    0    0  0.21110372351E-02 -0.18885518709E-03 -0.10735084077E-01  0.10954236424E-01  0.51100000000E-03 0.  1.
         11    1    4    4    0    0 -0.11269670031E+00  0.24323529638E-01 -0.55839994360E-01  0.12810365508E+00  0.51100000000E-03 0. -1.
</event>
<event>
 8    1  0.2924722E+004  0.1043930E+01  0.7957747E-01            NaN
         13   -1    0    0    0    0  0.00000000000E+00  0.00000000000E+00  0.74505805969E-08  0.10566000000E+00  0.10566000000E+00 0. -1.
     999900   -1    0    0    0    0 -0.00000000000E+00 -0.00000000000E+00 -0.74505805969E-08  0.93827000000E+00  0.93827000000E+00 0.  1.
     999902    2    1    2    0    0 -0.39459328866E-02 -0.71238464150E-02 -0.11376312562E-01  0.10299392866E+01  0.10298442572E+01 0.  0.
     999903    2    3    3    0    0 -0.82603042102E-01 -0.17430037989E-01  0.10084968980E+00  0.13927221410E+00  0.45815072850E-01 0.  0.
         14    1    1    2    0    0  0.39459328866E-02  0.71238464150E-02  0.11376312562E-01  0.13990713406E-01  0.00000000000E+00 0. -1.
     999901    1    3    3    0    0  0.78657109215E-01  0.10306191574E-01 -0.11222600236E+00  0.89066707249E+00  0.88000000000E+00 0.  1.
        -11    1    4    4    0    0 -0.66445602872E-01 -0.20957036817E-01  0.49891153379E-01  0.85694829713E-01  0.51100000000E-03 0.  1.
         11    1    4    4    0    0 -0.16157439230E-01  0.35269988274E-02  0.50958536417E-01  0.53577384389E-01  0.51100000000E-03 0. -1.
</event>
<event>
 8    1  0.2924722E+004  0.1043930E+01  0.7957747E-01            NaN
         13   -1    0    0    0    0  0.00000000000E+00  0.00000000000E+00  0.74505805969E-08  0.10566000000E+00  0.10566000000E+00 0.  1.
     999900   -1    0    0    0    0 -0.00000000000E+00 -0.00000000000E+00 -0.74505805969E-08  0.93827000000E+00  0.93827000000E+00 0.  1.
     999902    2    1    2    0    0 -0.67105848747E-03  0.90213689415E-02  0.91705655852E-02  0.10310484360E+01  0.10309679640E+01 0.  0.
     999903    2    3    3    0    0 -0.77027488891E-01 -0.50267191791E-01 -0.94763558648E-01  0.13967436188E+00  0.45483741081E-01 0.  0.
         14    1    1    2    0    0  0.67105848747E-03 -0.90213689415E-02 -0.91705655852E-02  0.12881563967E-01  0.00000000000E+00 0.  1.
     999901    1    3    3    0    0  0.76356430404E-01  0.59288560733E-01  0.10393412423E+00  0.89137407416E+00  0.88000000000E+00 0. -1.
        -11    1    4    4    0    0 -0.53458521180E-01 -0.81261917171E-02 -0.45203105040E-01  0.70479999325E-01  0.51100000000E-03 0. -1.
         11    1    4    4    0    0 -0.23568967711E-01 -0.42141000074E-01 -0.49560453608E-01  0.69194362553E-01  0.51100000000E-03 0.  1.
</event>
<event>
 8    1  0.2924722E+004  0.1043930E+01  0.7957747E-01            NaN
         13   -1    0    0    0    0  0.00000000000E+00  0.00000000000E+00  0.74505805969E-08  0.10566000000E+00  0.10566000000E+00 0.  1.
     999900   -1    0    0    0    0 -0.00000000000E+00 -0.00000000000E+00 -0.74505805969E-08  0.93827000000E+00  0.93827000000E+00 0. -1.
     999902    2    1    2    0    0  0.11869715252E-01  0.70539917578E-02 -0.16056602264E-02  0.10300293855E+01  0.10299355843E+01 0.  0.
     999903    2    3    3    0    0 -0.85150175671E-01 -0.72487915340E-01  0.68435328787E-01  0.13837613763E+00  0.44266363667E-01 0.  0.
         14    1    1    2    0    0 -0.11869715252E-01 -0.70539917578E-02  0.16056602264E-02  0.13900614542E-01  0.00000000000E+00 0. -1.
     999901    1    3    3    0    0  0.97019890923E-01  0.79541907097E-01 -0.70040989013E-01  0.89165324783E+00  0.88000000000E+00 0. -1.
        -11    1    4    4    0    0 -0.46131997450E-01 -0.18773149071E-01  0.47331176577E-01  0.68710215485E-01  0.51100000000E-03 0. -1.
         11    1    4    4    0    0 -0.39018178221E-01 -0.53714766268E-01  0.21104152210E-01  0.69665922146E-01  0.51100000000E-03 0.  1.
</event>
<event>
 8    1  0.2924722E+004  0.1043930E+01  0.7957747E-01            NaN
         13   -1    0    0    0    0  0.00000000000E+00  0.00000000000E+00  0.74505805969E-08  0.10566000000E+00  0.10566000000E+00 0.  1.
     999900   -1    0    0    0    0 -0.00000000000E+00 -0.00000000000E+00 -0.74505805969E-08  0.93827000000E+00  0.93827000000E+00 0. -1.
     999902    2    1    2    0    0  0.11221566024E-01  0.85638184109E-02 -0.10936457717E-02  0.10297716600E+01  0.10296743239E+01 0.  0.
     999903    2    3    3    0    0 -0.97527441804E-01 -0.86577531984E-01  0.39522079899E-03  0.13798668595E+00  0.45087674047E-01 0.  0.
         14    1    1    2    0    0 -0.11221566024E-01 -0.85638184109E-02  0.10936457717E-02  0.14158339977E-01  0.00000000000E+00 0. -1.
     999901    1    3    3    0    0  0.10874900783E+00  0.95141350395E-01 -0.14888665707E-02  0.89178497407E+00  0.88000000000E+00 0. -1.
        -11    1    4    4    0    0 -0.17850812299E-02 -0.15934042488E-01 -0.94109113338E-02  0.18598564411E-01  0.51100000000E-03 0. -1.
         11    1    4    4    0    0 -0.95742360574E-01 -0.70643489496E-01  0.98061321328E-02  0.11938812154E+00  0.51100000000E-03 0.  1.
</event>
<event>
 8    1  0.2924722E+004  0.1043930E+01  0.7957747E-01            NaN
         13   -1    0    0    0    0  0.00000000000E+00  0.00000000000E+00  0.74505805969E-08  0.10566000000E+00  0.10566000000E+00 0. -1.
     999900   -1    0    0    0    0 -0.00000000000E+00 -0.00000000000E+00 -0.74505805969E-08  0.93827000000E+00  0.93827000000E+00 0.  1.
     999902    2    1    2    0    0  0.83537258186E-02 -0.10258893238E-01  0.36369268578E-02  0.10302093272E+01  0.10301179549E+01 0.  0.
     999903    2    3    3    0    0  0.39820956681E-01  0.10964012632E+00 -0.61130572247E-01  0.13916455253E+00  0.44979550086E-01 0.  0.
         14    1    1    2    0    0 -0.83537258186E-02  0.10258893238E-01 -0.36369268578E-02  0.13720672815E-01  0.00000000000E+00 0. -1.
     999901    1    3    3    0    0 -0.31467230862E-01 -0.11989901956E+00  0.64767499104E-01  0.89104477466E+00  0.88000000000E+00 0. -1.
        -11    1    4    4    0    0  0.14521946386E-01  0.75817036569E-01 -0.58468502223E-01  0.96839748214E-01  0.51100000000E-03 0.  1.
         11    1    4    4    0    0  0.25299010295E-01  0.33823089751E-01 -0.26620700240E-02  0.42324804311E-01  0.51100000000E-03 0. -1.
</event>
<event>
 8    1  0.2924722E+004  0.1043930E+01  0.7957747E-01            NaN
         13   -1    0    0    0    0  0.00000000000E+00  0.00000000000E+00  0.74505805969E-08  0.10566000000E+00  0.10566000000E+00 0. -1.
     999900   -1    0    0    0    0 -0.00000000000E+00 -0.00000000000E+00 -0.74505805969E-08  0.93827000000E+00  0.93827000000E+00 0. -1.
     999902    2    1    2    0    0 -0.14501343352E-01 -0.56610680133E-02  0.98487180521E-02  0.10255089822E+01  0.10253435223E+01 0.  0.
     999903    2    3    3    0    0 -0.13084923226E+00  0.92543966910E-03  0.33456756849E-02  0.13780266651E+00  0.43081357076E-01 0.  0.
         14    1    1    2    0    0  0.14501343352E-01  0.56610680133E-02 -0.98487180521E-02  0.18421017815E-01  0.00000000000E+00 0.  1.
     999901    1    3    3    0    0  0.11634788891E+00 -0.65865076824E-02  0.65030423672E-02  0.88770631568E+00  0.88000000000E+00 0.  1.
        -11    1    4    4    0    0 -0.15581044836E-02 -0.76952735917E-03  0.82105055849E-02  0.84079358286E-02  0.51100000000E-03 0.  1.
         11    1    4    4    0    0 -0.12929112778E+00  0.16949670283E-02 -0.48648299000E-02  0.12939473068E+00  0.51100000000E-03 0. -1.
</event>
<event>
 8    1  0.2924722E+004  0.1043930E+01  0.7957747E-01            NaN
         13   -1    0    0    0    0  0.00000000000E+00  0.00000000000E+00  0.74505805969E-08  0.10566000000E+00  0.10566000000E+00 0. -1.
     999900   -1    0    0    0    0 -0.00000000000E+00 -0.00000000000E+00 -0.74505805969E-08  0.93827000000E+00  0.93827000000E+00 0. -1.
     999902    2    1    2    0    0  0.76440853062E-03  0.12324210582E-01 -0.76162547200E-02  0.10294221462E+01  0.10293199100E+01 0.  0.
     999903    2    3    3    0    0 -0.67970370714E-01  0.10362560133E+00  0.47868965291E-01  0.14029953175E+00  0.45103040088E-01 0.  0.
         14    1    1    2    0    0 -0.76440853062E-03 -0.12324210582E-01  0.76162547200E-02  0.14507853833E-01  0.00000000000E+00 0. -1.
     999901    1    3    3    0    0  0.68734779244E-01 -0.91301390747E-01 -0.55485220011E-01  0.88912261442E+00  0.88000000000E+00 0. -1.
        -11    1    4    4    0    0 -0.17270290313E-01  0.27448579649E-01  0.35290992730E-01  0.47931229288E-01  0.51100000000E-03 0.  1.
         11    1    4    4    0    0 -0.50700080400E-01  0.76177021680E-01  0.12577972561E-01  0.92368302461E-01  0.51100000000E-03 0. -1.
</event>
<event>
 8    1  0.2924722E+004  0.1043930E+01  0.7957747E-01            NaN
         13   -1    0    0    0    0  0.00000000000E+00  0.00000000000E+00  0.74505805969E-08  0.10566000000E+00  0.10566000000E+00 0. -1.
     999900   -1    0    0    0    0 -0.00000000000E+00 -0.00000000000E+00 -0.74505805969E-08  0.93827000000E+00  0.93827000000E+00 0. -1.
     999902    2    1    2    0    0 -0.30056063683E-03  0.10173593088E-01 -0.10449750238E-01  0.10293426900E+01  0.10292393229E+01 0.  0.
     999903    2    3    3    0    0  0.21328527261E-01 -0.12073041299E+00  0.44846460076E-01  0.13768056390E+00  0.43749217109E-01 0.  0.
         14    1    1    2    0    0  0.30056063683E-03 -0.10173593088E-01  0.10449750238E-01  0.14587310001E-01  0.00000000000E+00 0. -1.
     999901    1    3    3    0    0 -0.21629087898E-01  0.13090400608E+00 -0.55296210314E-01  0.89166212610E+00  0.88000000000E+00 0. -1.
        -11    1    4    4    0    0 -0.14850719307E-02 -0.74653495122E-01  0.43136124266E-01  0.86234193394E-01  0.51100000000E-03 0. -1.
         11    1    4    4    0    0  0.22813599191E-01 -0.46076917868E-01  0.17103358094E-02  0.51446370503E-01  0.51100000000E-03 0.  1.
</event>
<event>
 8    1  0.2924722E+004  0.1043930E+01  0.7957747E-01            NaN
         13   -1    0    0    0    0  0.00000000000E+00  0.00000000000E+00  0.74505805969E-08  0.10566000000E+00  0.10566000000E+00 0. -1.
     999900   -1    0    0    0    0 -0.00000000000E+00 -0.00000000000E+00 -0.74505805969E-08  0.93827000000E+00  0.93827000000E+00 0. -1.
     999902    2    1    2    0    0  0.61620756137E-02 -0.75766145210E-02 -0.93052263606E-02  0.10304406152E+01  0.10303523174E+01 0.  0.
     999903    2    3    3    0    0  0.11105556136E+00 -0.42480942638E-01 -0.60556998354E-01  0.14204447635E+00  0.48698203404E-01 0.  0.
         14    1    1    2    0    0 -0.61620756137E-02  0.75766145210E-02  0.93052263606E-02  0.13489384756E-01  0.00000000000E+00 0. -1.
     999901    1    3    3    0    0 -0.10489348575E+00  0.34904328116E-01  0.51251771994E-01  0.88839613890E+00  0.88000000000E+00 0.  1.
        -11    1    4    4    0    0  0.65872158815E-01 -0.45584118446E-01 -0.53184548106E-01  0.96155657346E-01  0.51100000000E-03 0.  1.
         11    1    4    4    0    0  0.45183402546E-01  0.31031758089E-02 -0.73724502488E-02  0.45888819002E-01  0.51100000000E-03 0. -1.
</event>
<event>
 8    1  0.2924722E+004  0.1043930E+01  0.7957747E-01            NaN
         13   -1    0    0    0    0  0.00000000000E+00  0.00000000000E+00  0.74505805969E-08  0.10566000000E+00  0.10566000000E+00 0. -1.
     999900   -1    0    0    0    0 -0.00000000000E+00 -0.00000000000E+00 -0.74505805969E-08  0.93827000000E+00  0.93827000000E+00 0.  1.
     999902    2    1    2    0    0  0.76005384186E-02 -0.75070853263E-02 -0.33212403709E-02  0.10327427237E+01  0.10326821283E+01 0.  0.
     999903    2    3    3    0    0  0.78920189709E-01 -0.35366634991E-01 -0.10515457246E+00  0.14356744583E+00  0.45551423463E-01 0.  0.
         14    1    1    2    0    0 -0.76005384186E-02  0.75070853263E-02  0.33212403709E-02  0.11187276342E-01  0.00000000000E+00 0. -1.
     999901    1    3    3    0    0 -0.71319651290E-01  0.27859549664E-01  0.10183333209E+00  0.88917527782E+00  0.88000000000E+00 0. -1.
        -11    1    4    4    0    0  0.63439503519E-01 -0.16837878127E-01 -0.47389998671E-01  0.80957753437E-01  0.51100000000E-03 0. -1.
         11    1    4    4    0    0  0.15480686190E-01 -0.18528756864E-01 -0.57764573792E-01  0.62609692398E-01  0.51100000000E-03 0.  1.
</event>
<event>
 8    1  0.2924722E+004  0.1043930E+01  0.7957747E-01            NaN
         13   -1    0    0    0    0  0.00000000000E+00  0.00000000000E+00  0.74505805969E-08  0.10566000000E+00  0.10566000000E+00 0.  1.
     999900   -1    0    0    0    0 -0.00000000000E+00 -0.00000000000E+00 -0.74505805969E-08  0.93827000000E+00  0.93827000000E+00 0.  1.
     999902    2    1    2    0    0  0.21770069733E-01 -0.81434527764E-03  0.84132456446E-02  0.10205765892E+01  0.10203093612E+01 0.  0.
     999903    2    3    3    0    0  0.97977814552E-01 -0.34023047955E-01  0.72400619751E-01  0.13434590683E+00  0.45274198006E-01 0.  0.
         14    1    1    2    0    0 -0.21770069733E-01  0.81434527764E-03 -0.84132456446E-02  0.23353410815E-01  0.00000000000E+00 0. -1.
     999901    1    3    3    0    0 -0.76207744819E-01  0.33208702677E-01 -0.63987374106E-01  0.88623068236E+00  0.88000000000E+00 0.  1.
        -11    1    4    4    0    0  0.91548879567E-01 -0.16045919582E-01  0.52434829513E-01  0.10671617193E+00  0.51100000000E-03 0.  1.
         11    1    4    4    0    0  0.64289349844E-02 -0.17977128373E-01  0.19965790237E-01  0.27629734895E-01  0.51100000000E-03 0. -1.
</event>
<event>
 8    1  0.2924722E+004  0.1043930E+01  0.7957747E-01            NaN
         13   -1    0    0    0    0  0.00000000000E+00  0.00000000000E+00  0.74505805969E-08  0.10566000000E+00  0.10566000000E+00 0. -1.
     999900   -1    0    0    0    0 -0.00000000000E+00 -0.00000000000E+00 -0.74505805969E-08  0.93827000000E+00  0.93827000000E+00 0. -1.
     999902    2    1    2    0    0 -0.45663037236E-02  0.12842220593E-01  0.67294373660E-02  0.10287293722E+01  0.10286170629E+01 0.  0.
     999903    2    3    3    0    0  0.12432003220E+00  0.27358920537E-01 -0.31485569469E-01  0.13840201163E+00  0.44269569663E-01 0.  0.
         14    1    1    2    0    0  0.45663037236E-02 -0.12842220593E-01 -0.67294373660E-02  0.15200627840E-01  0.00000000000E+00 0.  1.
     999901    1    3    3    0    0 -0.12888633593E+00 -0.14516699944E-01  0.38215006835E-01  0.89032736053E+00  0.88000000000E+00 0.  1.
        -11    1    4    4    0    0  0.51333997137E-01 -0.43642236029E-02 -0.28236530713E-01  0.58751923351E-01  0.51100000000E-03 0. -1.
         11    1    4    4    0    0  0.72986035065E-01  0.31723144140E-01 -0.32490387557E-02  0.79650088277E-01  0.51100000000E-03 0.  1.
</event>
<event>
 8    1  0.2924722E+004  0.1043930E+01  0.7957747E-01            NaN
         13   -1    0    0    0    0  0.00000000000E+00  0.00000000000E+00  0.74505805969E-08  0.10566000000E+00  0.10566000000E+00 0. -1.
     999900   -1    0    0    0    0 -0.00000000000E+00 -0.00000000000E+00 -0.74505805969E-08  0.93827000000E+00  0.93827000000E+00 0.  1.
     999902    2    1    2    0    0 -0.11280840472E-01 -0.63479722149E-02  0.36709518078E-02  0.10304752611E+01  0.10303874192E+01 0.  0.
     999903    2    3    3    0    0 -0.23188021058E-01  0.12056321865E+00  0.49948257020E-01  0.14008780590E+00  0.45349652380E-01 0.  0.
         14    1    1    2    0    0  0.11280840472E-01  0.63479722149E-02 -0.36709518078E-02  0.13454738949E-01  0.00000000000E+00 0.  1.
     999901    1    3    3    0    0  0.11907180586E-01 -0.12691119086E+00 -0.46277305212E-01  0.89038745515E+00  0.88000000000E+00 0.  1.
        -11    1    4    4    0    0 -0.20830835070E-01  0.35169266256E-01  0.34030159263E-01  0.53189414729E-01  0.51100000000E-03 0.  1.
         11    1    4    4    0    0 -0.23571859885E-02  0.85393952391E-01  0.15918097757E-01  0.86898391170E-01  0.51100000000E-03 0. -1.
</event>
<event>
 8    1  0.2924722E+004  0.1043930E+01  0.7957747E-01            NaN
         13   -1    0    0    0    0  0.00000000000E+00  0.00000000000E+00  0.74505805969E-08  0.10566000000E+00  0.10566000000E+00 0. -1.
     999900   -1    0    0    0    0 -0.00000000000E+00 -0.00000000000E+00 -0.74505805969E-08  0.93827000000E+00  0.93827000000E+00 0. -1.
     999902    2    1    2    0    0  0.12956354955E-01  0.49635235164E-02  0.16409785317E-02  0.10299587255E+01  0.10298639618E+01 0.  0.
     999903    2    3    3    0    0 -0.11277938058E+00  0.61889252742E-01 -0.27149747470E-01  0.13873545400E+00  0.44282605166E-01 0.  0.
         14    1    1    2    0    0 -0.12956354955E-01 -0.49635235164E-02 -0.16409785317E-02  0.13971274457E-01  0.00000000000E+00 0.  1.
     999901    1    3    3    0    0  0.12573573553E+00 -0.56925729225E-01  0.28790726002E-01  0.89122327154E+00  0.88000000000E+00 0.  1.
        -11    1    4    4    0    0 -0.43530208331E-01  0.10584820615E-01 -0.27464730743E-01  0.52549881261E-01  0.51100000000E-03 0.  1.
         11    1    4    4    0    0 -0.69249172246E-01  0.51304432127E-01  0.31498327259E-03  0.86185572738E-01  0.51100000000E-03 0. -1.
</event>
<event>
 8    1  0.2924722E+004  0.1043930E+01  0.7957747E-01            NaN
         13   -1    0    0    0    0  0.00000000000E+00  0.00000000000E+00  0.74505805969E-08  0.10566000000E+00  0.10566000000E+00 0.  1.
     999900   -1    0    0    0    0 -0.00000000000E+00 -0.00000000000E+00 -0.74505805969E-08  0.93827000000E+00  0.93827000000E+00 0. -1.
     999902    2    1    2    0    0 -0.13039385122E-01  0.31387040015E-02 -0.16656540987E-02  0.10304151404E+01  0.10303265065E+01 0.  0.
     999903    2    3    3    0    0  0.39876223933E-01  0.12674545846E+00 -0.45225138275E-02  0.14019783371E+00  0.44502302979E-01 0.  0.
         14    1    1    2    0    0  0.13039385122E-01 -0.31387040015E-02  0.16656540987E-02  0.13514859627E-01  0.00000000000E+00 0.  1.
     999901    1    3    3    0    0 -0.52915609055E-01 -0.12360675446E+00  0.28568597288E-02  0.89021730666E+00  0.88000000000E+00 0. -1.
        -11    1    4    4    0    0  0.55098142350E-02  0.79893942914E-01  0.88484710072E-02  0.80572679783E-01  0.51100000000E-03 0.  1.
         11    1    4    4    0    0  0.34366409698E-01  0.46851515548E-01 -0.13370984835E-01  0.59625153930E-01  0.51100000000E-03 0. -1.
</event>
<event>
 8    1  0.2924722E+004  0.1043930E+01  0.7957747E-01            NaN
         13   -1    0    0    0    0  0.00000000000E+00  0.00000000000E+00  0.74505805969E-08  0.10566000000E+00  0.10566000000E+00 0. -1.
     999900   -1    0    0    0    0 -0.00000000000E+00 -0.00000000000E+00 -0.74505805969E-08  0.93827000000E+00  0.93827000000E+00 0. -1.
     999902    2    1    2    0    0 -0.97031007981E-02  0.31982584517E-02 -0.98294038250E-02  0.10297526871E+01  0.10296550880E+01 0.  0.
     999903    2    3    3    0    0  0.11788681910E+00  0.27876036743E-01 -0.51037052325E-01  0.13925493262E+00  0.45964986749E-01 0.  0.
         14    1    1    2    0    0  0.97031007981E-02 -0.31982584517E-02  0.98294038250E-02  0.14177312925E-01  0.00000000000E+00 0. -1.
     999901    1    3    3    0    0 -0.12758991989E+00 -0.24677778291E-01  0.41207648500E-01  0.89049775446E+00  0.88000000000E+00 0.  1.
        -11    1    4    4    0    0  0.69693058686E-01  0.20888741255E-01 -0.53781291779E-01  0.90477347478E-01  0.51100000000E-03 0.  1.
         11    1    4    4    0    0  0.48193760411E-01  0.69872954873E-02  0.27442394543E-02  0.48777585139E-01  0.51100000000E-03 0. -1.
</event>
<event>
 8    1  0.2924722E+004  0.1043930E+01  0.7957747E-01            NaN
         13   -1    0    0    0    0  0.00000000000E+00  0.00000000000E+00  0.74505805969E-08  0.10566000000E+00  0.10566000000E+00 0. -1.
     999900   -1    0    0    0    0 -0.00000000000E+00 -0.00000000000E+00 -0.74505805969E-08  0.93827000000E+00  0.93827000000E+00 0.  1.
     999902    2    1    2    0    0  0.12753332079E-01 -0.12642174634E-02 -0.48561518649E-02  0.10302249668E+01  0.10301338040E+01 0.  0.
     999903    2    3    3    0    0 -0.73261494976E-01  0.66035670236E-01  0.86681862155E-01  0.13876154443E+00  0.44867188418E-01 0.  0.
         14    1    1    2    0    0 -0.12753332079E-01  0.12642174634E-02  0.48561518649E-02  0.13705033230E-01  0.00000000000E+00 0.  1.
     999901    1    3    3    0    0  0.86014827055E-01 -0.67299887700E-01 -0.91538014019E-01  0.89146342234E+00  0.88000000000E+00 0.  1.
        -11    1    4    4    0    0 -0.39064577052E-01  0.48180074807E-01  0.26899483007E-01  0.67610680338E-01  0.51100000000E-03 0.  1.
         11    1    4    4    0    0 -0.34196917923E-01  0.17855595429E-01  0.59782379148E-01  0.71150864093E-01  0.51100000000E-03 0. -1.
</event>
<event>
 8    1  0.2924722E+004  0.1043930E+01  0.7957747E-01            NaN
         13   -1    0    0    0    0  0.00000000000E+00  0.00000000000E+00  0.74505805969E-08  0.10566000000E+00  0.10566000000E+00 0.  1.
     999900   -1    0    0    0    0 -0.00000000000E+00 -0.00000000000E+00 -0.74505805969E-08  0.93827000000E+00  0.93827000000E+00 0.  1.
     999902    2    1    2    0    0 -0.10192549335E-01 -0.10954429700E-01 -0.20268099095E-02  0.10288304785E+01  0.10287196692E+01 0.  0.
     999903    2    3    3    0    0 -0.89797430958E-01  0.95759522437E-01 -0.44716715541E-03  0.13881514151E+00  0.45121821874E-01 0.  0.
         14    1    1    2    0    0  0.10192549335E-01  0.10954429700E-01  0.20268099095E-02  0.15099521529E-01  0.00000000000E+00 0. -1.
     999901    1    3    3    0    0  0.79604881624E-01 -0.10671395214E+00 -0.15796427541E-02  0.89001533696E+00  0.88000000000E+00 0. -1.
        -11    1    4    4    0    0 -0.34965058570E-01  0.44998362457E-01  0.21541695024E-01  0.60923835155E-01  0.51100000000E-03 0.  1.
         11    1    4    4    0    0 -0.54832372389E-01  0.50761159981E-01 -0.21988862179E-01  0.77891306352E-01  0.51100000000E-03 0. -1.
</event>
<event>
 8    1  0.2924722E+004  0.1043930E+01  0.7957747E-01            NaN
         13   -1    0    0    0    0  0.00000000000E+00  0.00000000000E+00  0.74505805969E-08  0.10566000000E+00  0.10566000000E+00 0. -1.
     999900   -1    0    0    0    0 -0.00000000000E+00 -0.00000000000E+00 -0.74505805969E-08  0.93827000000E+00  0.93827000000E+00 0. -1.
     999902    2    1    2    0    0  0.52062344002E-02 -0.64538972072E-02  0.10529466818E-01  0.10305274877E+01  0.10304403309E+01 0.  0.
     999903    2    3    3    0    0 -0.11951242170E+00  0.13959699737E-02  0.58304473049E-01  0.14041580094E+00  0.45077909258E-01 0.  0.
         14    1    1    2    0    0 -0.52062344002E-02  0.64538972072E-02 -0.10529466818E-01  0.13402512349E-01  0.00000000000E+00 0.  1.
     999901    1    3    3    0    0  0.12471865610E+00 -0.78498671809E-02 -0.47775006231E-01  0.89011168671E+00  0.88000000000E+00 0. -1.
        -11    1    4    4    0    0 -0.88970712274E-01 -0.17676582822E-01  0.33549409073E-01  0.96716457715E-01  0.51100000000E-03 0. -1.
         11    1    4    4    0    0 -0.30541709429E-01  0.19072552795E-01  0.24755063977E-01  0.43699343227E-01  0.51100000000E-03 0.  1.
</event>
<event>
 8    1  0.2924722E+004  0.1043930E+01  0.7957747E-01            NaN
         13   -1    0    0    0    0  0.00000000000E+00  0.00000000000E+00  0.74505805969E-08  0.10566000000E+00  0.10566000000E+00 0. -1.
     999900   -1    0    0    0    0 -0.00000000000E+00 -0.00000000000E+00 -0.74505805969E-08  0.93827000000E+00  0.93827000000E+00 0. -1.
     999902    2    1    2    0    0 -0.30699000065E-03  0.12438876110E-01  0.12350445159E-02  0.10314261919E+01  0.10313503983E+01 0.  0.
     999903    2    3    3    0    0  0.39861685771E-01  0.11809646957E+00 -0.52339198548E-01  0.14258017089E+00  0.45320892624E-01 0.  0.
         14    1    1    2    0    0  0.30699000065E-03 -0.12438876110E-01 -0.12350445159E-02  0.12503808088E-01  0.00000000000E+00 0. -1.
     999901    1    3    3    0    0 -0.40168675771E-01 -0.10565759346E+00  0.53574243064E-01  0.88884602102E+00  0.88000000000E+00 0.  1.
        -11    1    4    4    0    0  0.42325916590E-01  0.87364597136E-01 -0.22459138806E-01  0.99643013227E-01  0.51100000000E-03 0.  1.
         11    1    4    4    0    0 -0.24642308193E-02  0.30731872436E-01 -0.29880059742E-01  0.42937157662E-01  0.51100000000E-03 0. -1.
</event>
<event>
 8    1  0.2924722E+004  0.1043930E+01  0.7957747E-01            NaN
         13   -1    0    0    0    0  0.00000000000E+00  0.00000000000E+00  0.74505805969E-08  0.10566000000E+00  0.10566000000E+00 0. -1.
     999900   -1    0    0    0    0 -0.00000000000E+00 -0.00000000000E+00 -0.74505805969E-08  0.93827000000E+00  0.93827000000E+00 0.  1.
     999902    2    1    2    0    0  0.57423718424E-02 -0.59777166135E-02 -0.10966140966E-01  0.10301835758E+01  0.10300918579E+01 0.  0.
     999903    2    3    3    0    0 -0.11761360398E+00  0.46086515390E-01  0.36672573115E-01  0.13878196705E+00  0.44256412162E-01 0.  0.
         14    1    1    2    0    0 -0.57423718424E-02  0.59777166135E-02  0.10966140966E-01  0.13746424189E-01  0.00000000000E+00 0. -1.
     999901    1    3    3    0    0  0.12335597582E+00 -0.52064232003E-01 -0.47638714081E-01  0.89140160876E+00  0.88000000000E+00 0.  1.
        -11    1    4    4    0    0 -0.21798422808E-01  0.14311236140E-01  0.26729097059E-01  0.37345528078E-01  0.51100000000E-03 0.  1.
         11    1    4    4    0    0 -0.95815181170E-01  0.31775279250E-01  0.99434760557E-02  0.10143643897E+00  0.51100000000E-03 0. -1.
</event>
<event>
 8    1  0.2924722E+004  0.1043930E+01  0.7957747E-01            NaN
         13   -1    0    0    0    0  0.00000000000E+00  0.00000000000E+00  0.74505805969E-08  0.10566000000E+00  0.10566000000E+00 0.  1.
     999900   -1    0    0    0    0 -0.00000000000E+00 -0.00000000000E+00 -0.74505805969E-08  0.93827000000E+00  0.93827000000E+00 0. -1.
     999902    2    1    2    0    0 -0.89123084678E-02 -0.76513384671E-02  0.36471489186E-02  0.10316306538E+01  0.10315573333E+01 0.  0.
     999903    2    3    3    0    0 -0.91578973384E-01 -0.98977854577E-01  0.16666190014E-01  0.14295534441E+00  0.44442598281E-01 0.  0.
         14    1    1    2    0    0  0.89123084678E-02  0.76513384671E-02 -0.36471489186E-02  0.12299346235E-01  0.00000000000E+00 0. -1.
     999901    1    3    3    0    0  0.82666664916E-01  0.91326516110E-01 -0.13019041096E-01  0.88867530936E+00  0.88000000000E+00 0.  1.
        -11    1    4    4    0    0 -0.75330651094E-01 -0.99732349305E-01  0.19307515384E-01  0.12646853270E+00  0.51100000000E-03 0. -1.
         11    1    4    4    0    0 -0.16248322290E-01  0.75449472724E-03 -0.26413253694E-02  0.16486811706E-01  0.51100000000E-03 0.  1.
</event>
<event>
 8    1  0.2924722E+004  0.1043930E+01  0.7957747E-01            NaN
         13   -1    0    0    0    0  0.00000000000E+00  0.00000000000E+00  0.74505805969E-08  0.10566000000E+00  0.10566000000E+00 0.  1.
     999900   -1    0    0    0    0 -0.00000000000E+00 -0.00000000000E+00 -0.74505805969E-08  0.93827000000E+00  0.93827000000E+00 0.  1.
     999902    2    1    2    0    0  0.11082966689E-01 -0.83203209537E-02 -0.12068955680E-02  0.10300189796E+01  0.10299250370E+01 0.  0.
     999903    2    3    3    0    0  0.66630871105E-02  0.29434620802E-01 -0.12998148036E+00  0.13983480504E+00  0.41806624263E-01 0.  0.
         14    1    1    2    0    0 -0.11082966689E-01  0.83203209537E-02  0.12068955680E-02  0.13911020391E-01  0.00000000000E+00 0.  1.
     999901    1    3    3    0    0  0.44198795783E-02 -0.37754941755E-01  0.12877458479E+00  0.89018417457E+00  0.88000000000E+00 0. -1.
        -11    1    4    4    0    0  0.21703233571E-01  0.45616288531E-02 -0.48810626509E-01  0.53615083572E-01  0.51100000000E-03 0.  1.
         11    1    4    4    0    0 -0.15040146460E-01  0.24872991949E-01 -0.81170853853E-01  0.86219721469E-01  0.51100000000E-03 0. -1.
</event>
<event>
 7    1  0.2924722E+004  0.1043930E+01  0.7957747E-01            NaN
         13   -1    0    0    0    0  0.00000000000E+00  0.00000000000E+00  0.74505805969E-08  0.10566000000E+00  0.10566000000E+00 0. -1.
     999900   -1    0    0    0    0 -0.00000000000E+00 -0.00000000000E+00 -0.74505805969E-08  0.93827000000E+00  0.93827000000E+00 0.  1.
     999903    2    1    2    0    0 -0.32728260472E-02  0.65067466481E-01 -0.18276865922E-01  0.81117521094E-01  0.44738370735E-01 0.  0.
         14    1    1    2    0    0 -0.39726873063E-01 -0.69758848706E-01  0.15420577046E-01  0.81745431754E-01  0.00000000000E+00 0. -1.
     999901    1    1    2    0    0  0.42999699111E-01  0.46913822254E-02  0.28562888767E-02  0.88106704715E+00  0.88000000000E+00 0. -1.
        -11    1    3    3    0    0  0.15665410495E-01  0.14667098459E-01  0.56500360673E-02  0.22197137017E-01  0.51100000000E-03 0. -1.
         11    1    3    3    0    0 -0.18938236542E-01  0.50400368021E-01 -0.23926901990E-01  0.58920384077E-01  0.51100000000E-03 0.  1.
</event>
<event>
 8    1  0.2924722E+004  0.1043930E+01  0.7957747E-01            NaN
         13   -1    0    0    0    0  0.00000000000E+00  0.00000000000E+00  0.74505805969E-08  0.10566000000E+00  0.10566000000E+00 0. -1.
     999900   -1    0    0    0    0 -0.00000000000E+00 -0.00000000000E+00 -0.74505805969E-08  0.93827000000E+00  0.93827000000E+00 0. -1.
     999902    2    1    2    0    0 -0.26847220790E-02  0.11747352987E-01 -0.60598454076E-02  0.10304418659E+01  0.10303535846E+01 0.  0.
     999903    2    3    3    0    0 -0.88139264077E-01  0.88453379145E-01  0.48686395349E-01  0.14129427182E+00  0.44734505735E-01 0.  0.
         14    1    1    2    0    0  0.26847220790E-02 -0.11747352987E-01  0.60598454076E-02  0.13488134089E-01  0.00000000000E+00 0.  1.
     999901    1    3    3    0    0  0.85454541998E-01 -0.76706026157E-01 -0.54746240757E-01  0.88914759409E+00  0.88000000000E+00 0.  1.
        -11    1    4    4    0    0 -0.39324966814E-01  0.56650794875E-01  0.46141657198E-01  0.82976377511E-01  0.51100000000E-03 0.  1.
         11    1    4    4    0    0 -0.48814297264E-01  0.31802584269E-01  0.25447381514E-02  0.58317894311E-01  0.51100000000E-03 0. -1.
</event>
<event>
 8    1  0.2924722E+004  0.1043930E+01  0.7957747E-01            NaN
         13   -1    0    0    0    0  0.00000000000E+00  0.00000000000E+00  0.74505805969E-08  0.10566000000E+00  0.10566000000E+00 0.  1.
     999900   -1    0    0    0    0 -0.00000000000E+00 -0.00000000000E+00 -0.74505805969E-08  0.93827000000E+00  0.93827000000E+00 0. -1.
     999902    2    1    2    0    0  0.33331722694E-02 -0.38041317930E-02 -0.76281118263E-02  0.10347774295E+01  0.10347369517E+01 0.  0.
     999903    2    3    3    0    0 -0.56756956789E-03  0.13648139669E+00 -0.60819296452E-02  0.14365586882E+00  0.44413117444E-01 0.  0.
         14    1    1    2    0    0 -0.33331722694E-02  0.38041317930E-02  0.76281118263E-02  0.91525704647E-02  0.00000000000E+00 0.  1.
     999901    1    3    3    0    0  0.39007418373E-02 -0.14028552848E+00 -0.15461821811E-02  0.89112156071E+00  0.88000000000E+00 0.  1.
        -11    1    4    4    0    0  0.19760567263E-01  0.37498557239E-01  0.48904871393E-03  0.42392476965E-01  0.51100000000E-03 0.  1.
         11    1    4    4    0    0 -0.20328136831E-01  0.98982839451E-01 -0.65709783591E-02  0.10126339186E+00  0.51100000000E-03 0. -1.
</event>
<event>
 8    1  0.2924722E+004  0.1043930E+01  0.7957747E-01            NaN
         13   -1    0    0    0    0  0.00000000000E+00  0.00000000000E+00  0.74505805969E-08  0.10566000000E+00  0.10566000000E+00 0.  1.
     999900   -1    0    0    0    0 -0.00000000000E+00 -0.00000000000E+00 -0.74505805969E-08  0.93827000000E+00  0.93827000000E+00 0.  1.
     999902    2    1    2    0    0  0.11793301993E-01  0.74880544582E-02 -0.48381970344E-03  0.10299519095E+01  0.10298570527E+01 0.  0.
     999903    2    3    3    0    0 -0.45055755869E-01  0.96953459486E-02  0.12382079843E+00  0.13939684352E+00  0.44450747923E-01 0.  0.
         14    1    1    2    0    0 -0.11793301993E-01 -0.74880544582E-02  0.48381970344E-03  0.13978090463E-01  0.00000000000E+00 0. -1.
     999901    1    3    3    0    0  0.56849057863E-01 -0.22072914905E-02 -0.12430461813E+00  0.89055506601E+00  0.88000000000E+00 0.  1.
        -11    1    4    4    0    0 -0.10809034602E-01  0.24143454651E-01  0.43949083925E-01  0.51298389159E-01  0.51100000000E-03 0.  1.
         11    1    4    4    0    0 -0.34246721267E-01 -0.14448108702E-01  0.79871714503E-01  0.88098454364E-01  0.51100000000E-03 0. -1.
</event>
<event>
 8    1  0.2924722E+004  0.1043930E+01  0.7957747E-01            NaN
         13   -1    0    0    0    0  0.00000000000E+00  0.00000000000E+00  0.74505805969E-08  0.10566000000E+00  0.10566000000E+00 0.  1.
     999900   -1    0    0    0    0 -0.00000000000E+00 -0.00000000000E+00 -0.74505805969E-08  0.93827000000E+00  0.93827000000E+00 0. -1.
     999902    2    1    2    0    0  0.81878797039E-03  0.76145046994E-02 -0.12162875108E-01  0.10295568783E+01  0.10294565455E+01 0.  0.
     999903    2    3    3    0    0  0.27465724928E-02 -0.12723759684E+00 -0.32856566137E-01  0.13904183944E+00  0.45344563807E-01 0.  0.
         14    1    1    2    0    0 -0.81878797039E-03 -0.76145046994E-02  0.12162875108E-01  0.14373121667E-01  0.00000000000E+00 0.  1.
     999901    1    3    3    0    0 -0.19277845224E-02  0.13485210154E+00  0.20693691029E-01  0.89051503889E+00  0.88000000000E+00 0. -1.
        -11    1    4    4    0    0  0.19751358912E-01 -0.30224974616E-01 -0.14176645492E-01  0.38793087887E-01  0.51100000000E-03 0.  1.
         11    1    4    4    0    0 -0.17004786419E-01 -0.97012622225E-01 -0.18679920645E-01  0.10024875155E+00  0.51100000000E-03 0. -1.
</event>
<event>
 8    1  0.2924722E+004  0.1043930E+01  0.7957747E-01            NaN
         13   -1    0    0    0    0  0.00000000000E+00  0.00000000000E+00  0.74505805969E-08  0.10566000000E+00  0.10566000000E+00 0.  1.
     999900   -1    0    0    0    0 -0.00000000000E+00 -0.00000000000E+00 -0.74505805969E-08  0.93827000000E+00  0.93827000000E+00 0.  1.
     999902    2    1    2    0    0  0.12812457267E-01 -0.14764681764E-02  0.87172536976E-02  0.10283630629E+01  0.10282452332E+01 0.  0.
     999903    2    3    3    0    0  0.12460647044E+00  0.29401237575E-01 -0.33431431332E-01  0.13975299893E+00  0.44967041958E-01 0.  0.
         14    1    1    2    0    0 -0.12812457267E-01  0.14764681764E-02 -0.87172536976E-02  0.15566937127E-01  0.00000000000E+00 0.  1.
     999901    1    3    3    0    0 -0.11179401317E+00 -0.30877705751E-01  0.42148685030E-01  0.88861006394E+00  0.88000000000E+00 0. -1.
        -11    1    4    4    0    0  0.37908317237E-01  0.15402381750E-01  0.94839669704E-02  0.42005721394E-01  0.51100000000E-03 0. -1.
         11    1    4    4    0    0  0.86698153202E-01  0.13998855825E-01 -0.42915398302E-01  0.97747277535E-01  0.51100000000E-03 0.  1.
</event>
<event>
 8    1  0.2924722E+004  0.1043930E+01  0.7957747E-01            NaN
         13   -1    0    0    0    0  0.00000000000E+00  0.00000000000E+00  0.74505805969E-08  0.10566000000E+00  0.10566000000E+00 0.  1.
     999900   -1    0    0    0    0 -0.00000000000E+00 -0.00000000000E+00 -0.74505805969E-08  0.93827000000E+00  0.93827000000E+00 0.  1.
     999902    2    1    2    0    0  0.78349451539E-02 -0.49198227934E-02 -0.81382212960E-02  0.10316084064E+01  0.10315348189E+01 0.  0.
     999903    2    3    3    0    0  0.12919859719E+00  0.72751653066E-02  0.37572410393E-01  0.14202012211E+00  0.44864501740E-01 0.  0.
         14    1    1    2    0    0 -0.78349451539E-02  0.49198227934E-02  0.81382212960E-02  0.12321593555E-01  0.00000000000E+00 0.  1.
     999901    1    3    3    0    0 -0.12136365204E+00 -0.12194988100E-01 -0.45710631689E-01  0.88958828433E+00  0.88000000000E+00 0. -1.
        -11    1    4    4    0    0  0.66119234471E-01  0.21873108605E-01  0.33118500707E-01  0.77118624581E-01  0.51100000000E-03 0. -1.
         11    1    4    4    0    0  0.63079362718E-01 -0.14597943298E-01  0.44539096853E-02  0.64901497533E-01  0.51100000000E-03 0.  1.
</event>
<event>
 8    1  0.2924722E+004  0.1043930E+01  0.7957747E-01            NaN
         13   -1    0    0    0    0  0.00000000000E+00  0.00000000000E+00  0.74505805969E-08  0.10566000000E+00  0.10566000000E+00 0. -1.
     999900   -1    0    0    0    0 -0.00000000000E+00 -0.00000000000E+00 -0.74505805969E-08  0.93827000000E+00  0.93827000000E+00 0.  1.
     999902    2    1    2    0    0  0.61997901988E-02  0.91771233135E-02  0.14360795142E-01  0.10257946911E+01  0.10256343690E+01 0.  0.
     999903    2    3    3    0    0  0.12526515276E+00 -0.31121534750E-01  0.25014368724E-02  0.13678333755E+00  0.45205263235E-01 0.  0.
         14    1    1    2    0    0 -0.61997901988E-02 -0.91771233135E-02 -0.14360795142E-01  0.18135308873E-01  0.00000000000E+00 0.  1.
     999901    1    3    3    0    0 -0.11906536256E+00  0.40298658064E-01  0.11859358269E-01  0.88901135357E+00  0.88000000000E+00 0.  1.
        -11    1    4    4    0    0  0.52780876931E-01 -0.33209408265E-01 -0.10119367208E-01  0.63177119914E-01  0.51100000000E-03 0.  1.
         11    1    4    4    0    0  0.72484275831E-01  0.20878735151E-02  0.12620804081E-01  0.73606217639E-01  0.51100000000E-03 0. -1.
</event>
<event>
 8    1  0.2924722E+004  0.1043930E+01  0.7957747E-01            NaN
         13   -1    0    0    0    0  0.00000000000E+00  0.00000000000E+00  0.74505805969E-08  0.10566000000E+00  0.10566000000E+00 0.  1.
     999900   -1    0    0    0    0 -0.00000000000E+00 -0.00000000000E+00 -0.74505805969E-08  0.93827000000E+00  0.93827000000E+00 0.  1.
     999902    2    1    2    0    0 -0.37972906608E-02  0.40597980131E-02 -0.13839947961E-01  0.10290153919E+01  0.10289072996E+01 0.  0.
     999903    2    3    3    0    0 -0.93351293552E-01 -0.15504704863E-01  0.90058041282E-01  0.13817450743E+00  0.45020926511E-01 0.  0.
         14    1    1    2    0    0  0.37972906608E-02 -0.40597980131E-02  0.13839947961E-01  0.14914608135E-01  0.00000000000E+00 0.  1.
     999901    1    3    3    0    0  0.89554002891E-01  0.19564502876E-01 -0.10389798924E+00  0.89084088443E+00  0.88000000000E+00 0.  1.
        -11    1    4    4    0    0 -0.10105886218E-01 -0.18931569138E-01  0.19233261496E-01  0.28822087278E-01  0.51100000000E-03 0.  1.
         11    1    4    4    0    0 -0.83245407334E-01  0.34268642751E-02  0.70824779786E-01  0.10935242015E+00  0.51100000000E-03 0. -1.
</event>
<event>
 8    1  0.2924722E+004  0.1043930E+01  0.7957747E-01            NaN
         13   -1    0    0    0    0  0.00000000000E+00  0.00000000000E+00  0.74505805969E-08  0.10566000000E+00  0.10566000000E+00 0.  1.
     999900   -1    0    0    0    0 -0.00000000000E+00 -0.00000000000E+00 -0.74505805969E-08  0.93827000000E+00  0.93827000000E+00 0.  1.
     999902    2    1    2    0    0 -0.99876876619E-02 -0.65959341221E-02 -0.44178019816E-02  0.10311715821E+01  0.10310926508E+01 0.  0.
     999903    2    3    3    0    0  0.10276197904E+00  0.58334995444E-01 -0.59893996540E-01  0.13987695010E+00  0.44891806785E-01 0.  0.
         14    1    1    2    0    0  0.99876876619E-02  0.65959341221E-02  0.44178019816E-02  0.12758417853E-01  0.00000000000E+00 0. -1.
     999901    1    3    3    0    0 -0.11274966671E+00 -0.64930929566E-01  0.55476194558E-01  0.89129463205E+00  0.88000000000E+00 0.  1.
        -11    1    4    4    0    0  0.48823589339E-01  0.57640241098E-02 -0.35720215854E-01  0.60771389581E-01  0.51100000000E-03 0. -1.
         11    1    4    4    0    0  0.53938389705E-01  0.52570971335E-01 -0.24173780686E-01  0.79105560517E-01  0.51100000000E-03 0.  1.
</event>
<event>
 8    1  0.2924722E+004  0.1043930E+01  0.7957747E-01            NaN
         13   -1    0    0    0    0  0.00000000000E+00  0.00000000000E+00  0.74505805969E-08  0.10566000000E+00  0.10566000000E+00 0. -1.
     999900   -1    0    0    0    0 -0.00000000000E+00 -0.00000000000E+00 -0.74505805969E-08  0.93827000000E+00  0.93827000000E+00 0. -1.
     999902    2    1    2    0    0 -0.92614105347E-02 -0.19009938858E-01 -0.14766912005E-02  0.10227325446E+01  0.10225128486E+01 0.  0.
     999903    2    3    3    0    0  0.77970874833E-01 -0.99493235242E-01 -0.10332696750E-01  0.13472046049E+00  0.45436512539E-01 0.  0.
         14    1    1    2    0    0  0.92614105347E-02  0.19009938858E-01  0.14766912005E-02  0.21197455446E-01  0.00000000000E+00 0. -1.
     999901    1    3    3    0    0 -0.87232285368E-01  0.80483296384E-01  0.88560055494E-02  0.88801208406E+00  0.88000000000E+00 0.  1.
        -11    1    4    4    0    0  0.36292533228E-01 -0.16732537483E-01  0.66383301360E-02  0.40514865503E-01  0.51100000000E-03 0.  1.
         11    1    4    4    0    0  0.41678341605E-01 -0.82760697760E-01 -0.16971026886E-01  0.94205594989E-01  0.51100000000E-03 0. -1.
</event>
<event>
 8    1  0.2924722E+004  0.1043930E+01  0.7957747E-01            NaN
         13   -1    0    0    0    0  0.00000000000E+00  0.00000000000E+00  0.74505805969E-08  0.10566000000E+00  0.10566000000E+00 0. -1.
     999900   -1    0    0    0    0 -0.00000000000E+00 -0.00000000000E+00 -0.74505805969E-08  0.93827000000E+00  0.93827000000E+00 0.  1.
     999902    2    1    2    0    0  0.41715287089E-02 -0.48348826686E-02 -0.12134218365E-01  0.10302180710E+01  0.10301268159E+01 0.  0.
     999903    2    3    3    0    0  0.48187040284E-01  0.54352834666E-01  0.10970602347E+00  0.13876667260E+00  0.44097124069E-01 0.  0.
         14    1    1    2    0    0 -0.41715287089E-02  0.48348826686E-02  0.12134218365E-01  0.13711929022E-01  0.00000000000E+00 0. -1.
     999901    1    3    3    0    0 -0.44015511575E-01 -0.59187717334E-01 -0.12184024183E+00  0.89145139838E+00  0.88000000000E+00 0.  1.
        -11    1    4    4    0    0  0.17445149169E-01  0.43084060355E-01  0.38374945040E-01  0.60278246607E-01  0.51100000000E-03 0. -1.
         11    1    4    4    0    0  0.30741891115E-01  0.11268774311E-01  0.71331078429E-01  0.78488425991E-01  0.51100000000E-03 0.  1.
</event>
<event>
 8    1  0.2924722E+004  0.1043930E+01  0.7957747E-01            NaN
         13   -1    0    0    0    0  0.00000000000E+00  0.00000000000E+00  0.74505805969E-08  0.10566000000E+00  0.10566000000E+00 0.  1.
     999900   -1    0    0    0    0 -0.00000000000E+00 -0.00000000000E+00 -0.74505805969E-08  0.93827000000E+00  0.93827000000E+00 0.  1.
     999902    2    1    2    0    0  0.53246351056E-02  0.99423735041E-02  0.77377235466E-02  0.10302524675E+01  0.10301616727E+01 0.  0.
     999903    2    3    3    0    0  0.15206315709E-01 -0.61503796453E-01  0.11754066674E+00  0.14050031709E+00  0.43710201862E-01 0.  0.
         14    1    1    2    0    0 -0.53246351056E-02 -0.99423735041E-02 -0.77377235466E-02  0.13677532511E-01  0.00000000000E+00 0. -1.
     999901    1    3    3    0    0 -0.98816806032E-02  0.71446169957E-01 -0.10980294320E+00  0.88975215040E+00  0.88000000000E+00 0.  1.
        -11    1    4    4    0    0  0.69079621301E-02  0.13460454174E-02  0.38669178252E-01  0.39307737747E-01  0.51100000000E-03 0.  1.
         11    1    4    4    0    0  0.82983535787E-02 -0.62849841870E-01  0.78871488493E-01  0.10119257934E+00  0.51100000000E-03 0. -1.
</event>
<event>
 8    1  0.2924722E+004  0.1043930E+01  0.7957747E-01            NaN
         13   -1    0    0    0    0  0.00000000000E+00  0.00000000000E+00  0.74505805969E-08  0.10566000000E+00  0.10566000000E+00 0.  1.
     999900   -1    0    0    0    0 -0.00000000000E+00 -0.00000000000E+00 -0.74505805969E-08  0.93827000000E+00  0.93827000000E+00 0. -1.
     999902    2    1    2    0    0 -0.39269846121E-02  0.33224916708E-02 -0.13623303522E-01  0.10293679068E+01  0.10292648993E+01 0.  0.
     999903    2    3    3    0    0  0.66145795622E-01 -0.78968939821E-01 -0.83284571385E-01  0.14002277332E+00  0.45372871669E-01 0.  0.
         14    1    1    2    0    0  0.39269846121E-02 -0.33224916708E-02  0.13623303522E-01  0.14562093184E-01  0.00000000000E+00 0.  1.
     999901    1    3    3    0    0 -0.70072780234E-01  0.82291431492E-01  0.69661267862E-01  0.88934513349E+00  0.88000000000E+00 0. -1.
        -11    1    4    4    0    0  0.54914687771E-01 -0.83307691239E-01 -0.68898140064E-01  0.12125596553E+00  0.51100000000E-03 0. -1.
         11    1    4    4    0    0  0.11231107851E-01  0.43387514177E-02 -0.14386431321E-01  0.18766807788E-01  0.51100000000E-03 0.  1.
</event>
<event>
 8    1  0.2924722E+004  0.1043930E+01  0.7957747E-01            NaN
         13   -1    0    0    0    0  0.00000000000E+00  0.00000000000E+00  0.74505805969E-08  0.10566000000E+00  0.10566000000E+00 0.  1.
     999900   -1    0    0    0    0 -0.00000000000E+00 -0.00000000000E+00 -0.74505805969E-08  0.93827000000E+00  0.93827000000E+00 0. -1.
     999902    2    1    2    0    0  0.77047756890E-03 -0.18158365950E-02  0.14857333700E-01  0.10289422963E+01  0.10288331341E+01 0.  0.
     999903    2    3    3    0    0  0.76843886168E-01  0.91535322210E-01  0.56284283782E-01  0.13977538588E+00  0.45667711179E-01 0.  0.
         14    1    1    2    0    0 -0.77047756890E-03  0.18158365950E-02 -0.14857333700E-01  0.14987703723E-01  0.00000000000E+00 0. -1.
     999901    1    3    3    0    0 -0.76073408600E-01 -0.93351158805E-01 -0.41426950082E-01  0.88916691039E+00  0.88000000000E+00 0. -1.
        -11    1    4    4    0    0  0.32904164420E-03  0.26151766068E-01  0.19460624266E-01  0.32603683146E-01  0.51100000000E-03 0.  1.
         11    1    4    4    0    0  0.76514844524E-01  0.65383556143E-01  0.36823659516E-01  0.10717170274E+00  0.51100000000E-03 0. -1.
</event>
<event>
 8    1  0.2924722E+004  0.1043930E+01  0.7957747E-01            NaN
         13   -1    0    0    0    0  0.00000000000E+00  0.00000000000E+00  0.74505805969E-08  0.10566000000E+00  0.10566000000E+00 0.  1.
     999900   -1    0    0    0    0 -0.00000000000E+00 -0.00000000000E+00 -0.74505805969E-08  0.93827000000E+00  0.93827000000E+00 0.  1.
     999902    2    1    2    0    0  0.85478233793E-02 -0.11161253849E-01  0.21433186209E-03  0.10298699570E+01  0.10297739769E+01 0.  0.
     999903    2    3    3    0    0 -0.99698033398E-01 -0.75723126826E-01 -0.43135304279E-01  0.13983367012E+00  0.44934519286E-01 0.  0.
         14    1    1    2    0    0 -0.85478233793E-02  0.11161253849E-01 -0.21433186209E-03  0.14060043035E-01  0.00000000000E+00 0. -1.
     999901    1    3    3    0    0  0.10824585678E+00  0.64561872976E-01  0.43349636141E-01  0.89003628685E+00  0.88000000000E+00 0.  1.
        -11    1    4    4    0    0 -0.45391138240E-01 -0.13512649323E-01 -0.15857851120E-02  0.47389059475E-01  0.51100000000E-03 0.  1.
         11    1    4    4    0    0 -0.54306895158E-01 -0.62210477502E-01 -0.41549519167E-01  0.92444610642E-01  0.51100000000E-03 0. -1.
</event>
<event>
 8    1  0.2924722E+004  0.1043930E+01  0.7957747E-01            NaN
         13   -1    0    0    0    0  0.00000000000E+00  0.00000000000E+00  0.74505805969E-08  0.10566000000E+00  0.10566000000E+00 0. -1.
     999900   -1    0    0    0    0 -0.00000000000E+00 -0.00000000000E+00 -0.74505805969E-08  0.93827000000E+00  0.93827000000E+00 0. -1.
     999902    2    1    2    0    0  0.69381550169E-02 -0.11609301977E-01 -0.68749280309E-02  0.10287583645E+01  0.10286464864E+01 0.  0.
     999903    2    3    3    0    0 -0.87688446696E-01 -0.65345166740E-01  0.72176302347E-01  0.13853882198E+00  0.44992577992E-01 0.  0.
         14    1    1    2    0    0 -0.69381550169E-02  0.11609301977E-01  0.68749280309E-02  0.15171635471E-01  0.00000000000E+00 0.  1.
     999901    1    3    3    0    0  0.94626601713E-01  0.53735864763E-01 -0.79051230378E-01  0.89021954255E+00  0.88000000000E+00 0. -1.
        -11    1    4    4    0    0 -0.63206464659E-01 -0.29998528920E-01  0.24010065149E-01  0.73971029880E-01  0.51100000000E-03 0.  1.
         11    1    4    4    0    0 -0.24481982038E-01 -0.35346637820E-01  0.48166237198E-01  0.64567792099E-01  0.51100000000E-03 0. -1.
</event>
<event>
 8    1  0.2924722E+004  0.1043930E+01  0.7957747E-01            NaN
         13   -1    0    0    0    0  0.00000000000E+00  0.00000000000E+00  0.74505805969E-08  0.10566000000E+00  0.10566000000E+00 0.  1.
     999900   -1    0    0    0    0 -0.00000000000E+00 -0.00000000000E+00 -0.74505805969E-08  0.93827000000E+00  0.93827000000E+00 0.  1.
     999902    2    1    2    0    0  0.70430982699E-02  0.27765896884E-03 -0.48604136261E-02  0.10353681107E+01  0.10353327092E+01 0.  0.
     999903    2    3    3    0    0  0.11795072294E-01  0.11982771053E+00  0.60011169177E-01  0.14490580474E+00  0.53838163789E-01 0.  0.
         14    1    1    2    0    0 -0.70430982699E-02 -0.27765896884E-03  0.48604136261E-02  0.85618892985E-02  0.00000000000E+00 0. -1.
     999901    1    3    3    0    0 -0.47519740245E-02 -0.11955005156E+00 -0.64871582803E-01  0.89046230596E+00  0.88000000000E+00 0. -1.
        -11    1    4    4    0    0  0.13639796105E-01  0.29887495587E-01  0.41719447766E-01  0.53104424233E-01  0.51100000000E-03 0. -1.
         11    1    4    4    0    0 -0.18447238102E-02  0.89940214941E-01  0.18291721411E-01  0.91801380506E-01  0.51100000000E-03 0.  1.
</event>
<event>
 8    1  0.2924722E+004  0.1043930E+01  0.7957747E-01            NaN
         13   -1    0    0    0    0  0.00000000000E+00  0.00000000000E+00  0.74505805969E-08  0.10566000000E+00  0.10566000000E+00 0. -1.
     999900   -1    0    0    0    0 -0.00000000000E+00 -0.00000000000E+00 -0.74505805969E-08  0.93827000000E+00  0.93827000000E+00 0.  1.
     999902    2    1    2    0    0 -0.11496471817E-02  0.11928807877E-01  0.68407868792E-02  0.10301309235E+01  0.10300384969E+01 0.  0.
     999903    2    3    3    0    0 -0.29428961263E-01 -0.12796477612E+00 -0.12455507878E-02  0.13859554942E+00  0.44341033309E-01 0.  0.
         14    1    1    2    0    0  0.11496471817E-02 -0.11928807877E-01 -0.68407868792E-02  0.13799076460E-01  0.00000000000E+00 0.  1.
     999901    1    3    3    0    0  0.28279314081E-01  0.13989358399E+00  0.80863376670E-02  0.89153537412E+00  0.88000000000E+00 0. -1.
        -11    1    4    4    0    0 -0.38193329119E-01 -0.81869210414E-01 -0.98924342352E-02  0.90881347807E-01  0.51100000000E-03 0. -1.
         11    1    4    4    0    0  0.87643678559E-02 -0.46095565703E-01  0.86468834474E-02  0.47714201615E-01  0.51100000000E-03 0.  1.
</event>
<event>
 8    1  0.2924722E+004  0.1043930E+01  0.7957747E-01            NaN
         13   -1    0    0    0    0  0.00000000000E+00  0.00000000000E+00  0.74505805969E-08  0.10566000000E+00  0.10566000000E+00 0.  1.
     999900   -1    0    0    0    0 -0.00000000000E+00 -0.00000000000E+00 -0.74505805969E-08  0.93827000000E+00  0.93827000000E+00 0.  1.
     999902    2    1    2    0    0  0.43468491633E-02  0.15572730096E-01  0.39346580322E-02  0.10272900915E+01  0.10271553172E+01 0.  0.
     999903    2    3    3    0    0 -0.75347782892E-02  0.12775228549E+00 -0.32236374599E-01  0.13935216052E+00  0.44748424110E-01 0.  0.
         14    1    1    2    0    0 -0.43468491633E-02 -0.15572730096E-01 -0.39346580322E-02  0.16639908477E-01  0.00000000000E+00 0. -1.
     999901    1    3    3    0    0  0.11881627453E-01 -0.11217955540E+00  0.36171032631E-01  0.88793793101E+00  0.88000000000E+00 0. -1.
        -11    1    4    4    0    0 -0.14457734300E-01  0.39556624695E-01  0.67817640029E-02  0.42661529301E-01  0.51100000000E-03 0. -1.
         11    1    4    4    0    0  0.69229560105E-02  0.88195660799E-01 -0.39018138601E-01  0.96690631214E-01  0.51100000000E-03 0.  1.
</event>
<event>
 8    1  0.2924722E+004  0.1043930E+01  0.7957747E-01            NaN
         13   -1    0    0    0    0  0.00000000000E+00  0.00000000000E+00  0.74505805969E-08  0.10566000000E+00  0.10566000000E+00 0. -1.
     999900   -1    0    0    0    0 -0.00000000000E+00 -0.00000000000E+00 -0.74505805969E-08  0.93827000000E+00  0.93827000000E+00 0. -1.
     999902    2    1    2    0    0 -0.11240200959E-01  0.81733176532E-02 -0.56183812746E-02  0.10289396215E+01  0.10288304201E+01 0.  0.
     999903    2    3    3    0    0 -0.11420559309E+00 -0.47676425114E-01  0.44788758221E-01  0.13974788434E+00  0.46983819654E-01 0.  0.
         14    1    1    2    0    0  0.11240200959E-01 -0.81733176532E-02  0.56183812746E-02  0.14990378488E-01  0.00000000000E+00 0. -1.
     999901    1    3    3    0    0  0.10296539213E+00  0.55849742767E-01 -0.50407139495E-01  0.88919173717E+00  0.88000000000E+00 0. -1.
        -11    1    4    4    0    0 -0.63609492992E-01 -0.51181714660E-01  0.26765232023E-01  0.85920744180E-01  0.51100000000E-03 0. -1.
         11    1    4    4    0    0 -0.50596100100E-01  0.35052895462E-02  0.18023526198E-01  0.53827140159E-01  0.51100000000E-03 0.  1.
</event>
<event>
 8    1  0.2924722E+004  0.1043930E+01  0.7957747E-01            NaN
         13   -1    0    0    0    0  0.00000000000E+00  0.00000000000E+00  0.74505805969E-08  0.10566000000E+00  0.10566000000E+00 0.  1.
     999900   -1    0    0    0    0 -0.00000000000E+00 -0.00000000000E+00 -0.74505805969E-08  0.93827000000E+00  0.93827000000E+00 0. -1.
     999902    2    1    2    0    0 -0.66500859824E-02 -0.65712666170E-02 -0.83812412626E-02  0.10313741092E+01  0.10312976790E+01 0.  0.
     999903    2    3    3    0    0  0.13079643864E+00  0.23107787871E-01  0.35067728580E-03  0.14016782567E+00  0.44779662340E-01 0.  0.
         14    1    1    2    0    0  0.66500859824E-02  0.65712666170E-02  0.83812412626E-02  0.12555890794E-01  0.00000000000E+00 0.  1.
     999901    1    3    3    0    0 -0.13744652462E+00 -0.29679054488E-01 -0.87319185484E-02  0.89120628353E+00  0.88000000000E+00 0.  1.
        -11    1    4    4    0    0  0.91407637850E-01  0.22236259979E-02 -0.15713386128E-01  0.92776464658E-01  0.51100000000E-03 0. -1.
         11    1    4    4    0    0  0.39388800787E-01  0.20884161873E-01  0.16064063414E-01  0.47391361016E-01  0.51100000000E-03 0.  1.
</event>
<event>
 8    1  0.2924722E+004  0.1043930E+01  0.7957747E-01            NaN
         13   -1    0    0    0    0  0.00000000000E+00  0.00000000000E+00  0.74505805969E-08  0.10566000000E+00  0.10566000000E+00 0. -1.
     999900   -1    0    0    0    0 -0.00000000000E+00 -0.00000000000E+00 -0.74505805969E-08  0.93827000000E+00  0.93827000000E+00 0. -1.
     999902    2    1    2    0    0  0.82476711470E-02  0.11812762548E-02  0.99045054440E-02  0.10309870977E+01  0.10309058525E+01 0.  0.
     999903    2    3    3    0    0  0.89428703677E-01 -0.66757497911E-01  0.75116162899E-01  0.14224720469E+00  0.46236054610E-01 0.  0.
         14    1    1    2    0    0 -0.82476711470E-02 -0.11812762548E-02 -0.99045054440E-02  0.12942902342E-01  0.00000000000E+00 0.  1.
     999901    1    3    3    0    0 -0.81181032530E-01  0.67938774166E-01 -0.65211657455E-01  0.88873989296E+00  0.88000000000E+00 0.  1.
        -11    1    4    4    0    0  0.31529527970E-01 -0.40855133713E-01  0.55647228688E-01  0.75895508868E-01  0.51100000000E-03 0. -1.
         11    1    4    4    0    0  0.57899175708E-01 -0.25902364198E-01  0.19468934211E-01  0.66351695826E-01  0.51100000000E-03 0.  1.
</event>
<event>
 8    1  0.2924722E+004  0.1043930E+01  0.7957747E-01            NaN
         13   -1    0    0    0    0  0.00000000000E+00  0.00000000000E+00  0.74505805969E-08  0.10566000000E+00  0.10566000000E+00 0.  1.
     999900   -1    0    0    0    0 -0.00000000000E+00 -0.00000000000E+00 -0.74505805969E-08  0.93827000000E+00  0.93827000000E+00 0. -1.
     999902    2    1    2    0    0  0.51521507845E-02  0.72954602913E-02 -0.72021377724E-02  0.10324565878E+01  0.10323928354E+01 0.  0.
     999903    2    3    3    0    0  0.92881806027E-02  0.20054472096E-01 -0.13416991243E+00  0.14324305051E+00  0.45039471230E-01 0.  0.
         14    1    1    2    0    0 -0.51521507845E-02 -0.72954602913E-02  0.72021377724E-02  0.11473412180E-01  0.00000000000E+00 0. -1.
     999901    1    3    3    0    0 -0.41360298182E-02 -0.12759011805E-01  0.12696777466E+00  0.88921353731E+00  0.88000000000E+00 0.  1.
        -11    1    4    4    0    0  0.21576498481E-01  0.16507978525E-01 -0.12386515867E+00  0.12681047786E+00  0.51100000000E-03 0. -1.
         11    1    4    4    0    0 -0.12288317878E-01  0.35464935709E-02 -0.10304753760E-01  0.16432572653E-01  0.51100000000E-03 0.  1.
</event>
<event>
 8    1  0.2924722E+004  0.1043930E+01  0.7957747E-01            NaN
         13   -1    0    0    0    0  0.00000000000E+00  0.00000000000E+00  0.74505805969E-08  0.10566000000E+00  0.10566000000E+00 0. -1.
     999900   -1    0    0    0    0 -0.00000000000E+00 -0.00000000000E+00 -0.74505805969E-08  0.93827000000E+00  0.93827000000E+00 0. -1.
     999902    2    1    2    0    0  0.93593041096E-02 -0.89871087378E-02  0.27779726150E-02  0.10306604172E+01  0.10305749918E+01 0.  0.
     999903    2    3    3    0    0  0.34111730169E-01  0.63010658634E-01  0.11225314445E+00  0.14061481476E+00  0.45142047539E-01 0.  0.
         14    1    1    2    0    0 -0.93593041096E-02  0.89871087378E-02 -0.27779726150E-02  0.13269582839E-01  0.00000000000E+00 0. -1.
     999901    1    3    3    0    0 -0.24752426060E-01 -0.71997767372E-01 -0.10947517183E+00  0.89004560240E+00  0.88000000000E+00 0. -1.
        -11    1    4    4    0    0 -0.71743418056E-02  0.32635721876E-01  0.45295043761E-01  0.56289107588E-01  0.51100000000E-03 0. -1.
         11    1    4    4    0    0  0.41286071975E-01  0.30374936758E-01  0.66958100684E-01  0.84325707174E-01  0.51100000000E-03 0.  1.
</event>
<event>
 8    1  0.2924722E+004  0.1043930E+01  0.7957747E-01            NaN
         13   -1    0    0    0    0  0.00000000000E+00  0.00000000000E+00  0.74505805969E-08  0.10566000000E+00  0.10566000000E+00 0.  1.
     999900   -1    0    0    0    0 -0.00000000000E+00 -0.00000000000E+00 -0.74505805969E-08  0.93827000000E+00  0.93827000000E+00 0.  1.
     999902    2    1    2    0    0  0.92505894621E-02  0.56006192614E-02 -0.89630974274E-02  0.10298844506E+01  0.10297886697E+01 0.  0.
     999903    2    3    3    0    0 -0.61191025298E-01 -0.36476588114E-01  0.10931223727E+00  0.13818855669E+00  0.45519544449E-01 0.  0.
         14    1    1    2    0    0 -0.92505894621E-02 -0.56006192614E-02  0.89630974274E-02  0.14045549366E-01  0.00000000000E+00 0. -1.
     999901    1    3    3    0    0  0.70441614760E-01  0.42077207375E-01 -0.11827533470E+00  0.89169589394E+00  0.88000000000E+00 0.  1.
        -11    1    4    4    0    0 -0.91982704210E-02 -0.28184510622E-01  0.24991338000E-01  0.38778897790E-01  0.51100000000E-03 0.  1.
         11    1    4    4    0    0 -0.51992754877E-01 -0.82920774916E-02  0.84320899270E-01  0.99409658904E-01  0.51100000000E-03 0. -1.
</event>
<event>
 8    1  0.2924722E+004  0.1043930E+01  0.7957747E-01            NaN
         13   -1    0    0    0    0  0.00000000000E+00  0.00000000000E+00  0.74505805969E-08  0.10566000000E+00  0.10566000000E+00 0. -1.
     999900   -1    0    0    0    0 -0.00000000000E+00 -0.00000000000E+00 -0.74505805969E-08  0.93827000000E+00  0.93827000000E+00 0.  1.
     999902    2    1    2    0    0 -0.66334791665E-02 -0.10375782087E-01  0.57450859252E-02  0.10303408164E+01  0.10302511985E+01 0.  0.
     999903    2    3    3    0    0  0.11842109774E+00  0.49992061793E-01 -0.26996485198E-01  0.13885052799E+00  0.45032169363E-01 0.  0.
         14    1    1    2    0    0  0.66334791665E-02  0.10375782087E-01 -0.57450859252E-02  0.13589183642E-01  0.00000000000E+00 0.  1.
     999901    1    3    3    0    0 -0.12505457690E+00 -0.60367843880E-01  0.32741571124E-01  0.89149028837E+00  0.88000000000E+00 0.  1.
        -11    1    4    4    0    0  0.18526355586E-01 -0.19264888771E-02  0.89467508059E-02  0.20669849580E-01  0.51100000000E-03 0.  1.
         11    1    4    4    0    0  0.99894742152E-01  0.51918550670E-01 -0.35943236004E-01  0.11818067841E+00  0.51100000000E-03 0. -1.
</event>
<event>
 8    1  0.2924722E+004  0.1043930E+01  0.7957747E-01            NaN
         13   -1    0    0    0    0  0.00000000000E+00  0.00000000000E+00  0.74505805969E-08  0.10566000000E+00  0.10566000000E+00 0.  1.
     999900   -1    0    0    0    0 -0.00000000000E+00 -0.00000000000E+00 -0.74505805969E-08  0.93827000000E+00  0.93827000000E+00 0.  1.
     999902    2    1    2    0    0  0.17166530631E-02  0.18797405656E-02 -0.13434088454E-01  0.10302568491E+01  0.10301661129E+01 0.  0.
     999903    2    3    3    0    0 -0.64061987570E-01 -0.99003515352E-01  0.58172741713E-01  0.13917222968E+00  0.45598325968E-01 0.  0.
         14    1    1    2    0    0 -0.17166530631E-02 -0.18797405656E-02  0.13434088454E-01  0.13673150877E-01  0.00000000000E+00 0.  1.
     999901    1    3    3    0    0  0.65778640633E-01  0.10088325592E+00 -0.71606830166E-01  0.89108461945E+00  0.88000000000E+00 0.  1.
        -11    1    4    4    0    0 -0.66490200474E-01 -0.75419822542E-01  0.36258767464E-01  0.10688337443E+00  0.51100000000E-03 0. -1.
         11    1    4    4    0    0  0.24282129040E-02 -0.23583692811E-01  0.21913974249E-01  0.32288855243E-01  0.51100000000E-03 0.  1.
</event>
<event>
 8    1  0.2924722E+004  0.1043930E+01  0.7957747E-01            NaN
         13   -1    0    0    0    0  0.00000000000E+00  0.00000000000E+00  0.74505805969E-08  0.10566000000E+00  0.10566000000E+00 0.  1.
     999900   -1    0    0    0    0 -0.00000000000E+00 -0.00000000000E+00 -0.74505805969E-08  0.93827000000E+00  0.93827000000E+00 0. -1.
     999902    2    1    2    0    0 -0.97454792929E-02  0.77633836837E-02 -0.61258964840E-02  0.10300457967E+01  0.10299522184E+01 0.  0.
     999903    2    3    3    0    0 -0.23632728912E-01 -0.12554622317E+00 -0.32895558850E-01  0.13949488756E+00  0.45346949581E-01 0.  0.
         14    1    1    2    0    0  0.97454792929E-02 -0.77633836837E-02  0.61258964840E-02  0.13884203276E-01  0.00000000000E+00 0. -1.
     999901    1    3    3    0    0  0.13887249619E-01  0.13330960685E+00  0.26769662366E-01  0.89055090916E+00  0.88000000000E+00 0.  1.
        -11    1    4    4    0    0 -0.30324842567E-01 -0.68480138579E-01 -0.33465937051E-01  0.82032649111E-01  0.51100000000E-03 0.  1.
         11    1    4    4    0    0  0.66921136545E-02 -0.57066084592E-01  0.57037820031E-03  0.57462238453E-01  0.51100000000E-03 0. -1.
</event>
<event>
 8    1  0.2924722E+004  0.1043930E+01  0.7957747E-01            NaN
         13   -1    0    0    0    0  0.00000000000E+00  0.00000000000E+00  0.74505805969E-08  0.10566000000E+00  0.10566000000E+00 0. -1.
     999900   -1    0    0    0    0 -0.00000000000E+00 -0.00000000000E+00 -0.74505805969E-08  0.93827000000E+00  0.93827000000E+00 0. -1.
     999902    2    1    2    0    0 -0.60267282440E-02 -0.10974404203E-01 -0.35365763832E-02  0.10309197589E+01  0.10308376608E+01 0.  0.
     999903    2    3    3    0    0  0.94185720624E-01  0.89293648464E-01  0.14553286340E-01  0.13939103787E+00  0.48721224010E-01 0.  0.
         14    1    1    2    0    0  0.60267282440E-02  0.10974404203E-01  0.35365763832E-02  0.13010241099E-01  0.00000000000E+00 0. -1.
     999901    1    3    3    0    0 -0.10021244887E+00 -0.10026805267E+00 -0.18089862723E-01  0.89152872103E+00  0.88000000000E+00 0. -1.
        -11    1    4    4    0    0  0.16385924981E-01  0.35561311329E-01  0.21338980742E-01  0.44595051531E-01  0.51100000000E-03 0.  1.
         11    1    4    4    0    0  0.77799795642E-01  0.53732337135E-01 -0.67856944028E-02  0.94795986337E-01  0.51100000000E-03 0. -1.
</event>
<event>
 8    1  0.2924722E+004  0.1043930E+01  0.7957747E-01            NaN
         13   -1    0    0    0    0  0.00000000000E+00  0.00000000000E+00  0.74505805969E-08  0.10566000000E+00  0.10566000000E+00 0. -1.
     999900   -1    0    0    0    0 -0.00000000000E+00 -0.00000000000E+00 -0.74505805969E-08  0.93827000000E+00  0.93827000000E+00 0. -1.
     999902    2    1    2    0    0 -0.11450243509E-01 -0.72829450218E-02  0.41383875881E-02  0.10297428362E+01  0.10296451006E+01 0.  0.
     999903    2    3    3    0    0 -0.10372152633E+00  0.72152533467E-01  0.42029569228E-01  0.14055234676E+00  0.44992603616E-01 0.  0.
         14    1    1    2    0    0  0.11450243509E-01  0.72829450218E-02 -0.41383875881E-02  0.14187163791E-01  0.00000000000E+00 0.  1.
     999901    1    3    3    0    0  0.92271282825E-01 -0.79435478488E-01 -0.37891181640E-01  0.88919048945E+00  0.88000000000E+00 0. -1.
        -11    1    4    4    0    0 -0.30953840414E-01  0.31152297530E-01 -0.58032517538E-02  0.44300617712E-01  0.51100000000E-03 0.  1.
         11    1    4    4    0    0 -0.72767685920E-01  0.41000235937E-01  0.47832820982E-01  0.96251729050E-01  0.51100000000E-03 0. -1.
</event>
<event>
 8    1  0.2924722E+004  0.1043930E+01  0.7957747E-01            NaN
         13   -1    0    0    0    0  0.00000000000E+00  0.00000000000E+00  0.74505805969E-08  0.10566000000E+00  0.10566000000E+00 0. -1.
     999900   -1    0    0    0    0 -0.00000000000E+00 -0.00000000000E+00 -0.74505805969E-08  0.93827000000E+00  0.93827000000E+00 0.  1.
     999902    2    1    2    0    0  0.91217626432E-02 -0.10928102029E-01  0.21525758909E-01  0.10181232516E+01  0.10177961324E+01 0.  0.
     999903    2    3    3    0    0  0.63144296648E-01 -0.10567054215E+00  0.15455324055E-02  0.13116565755E+00  0.45261190577E-01 0.  0.
         14    1    1    2    0    0 -0.91217626432E-02  0.10928102029E-01 -0.21525758909E-01  0.25806748425E-01  0.00000000000E+00 0.  1.
     999901    1    3    3    0    0 -0.54022534005E-01  0.94742440126E-01  0.19980226504E-01  0.88695759402E+00  0.88000000000E+00 0. -1.
        -11    1    4    4    0    0  0.17335532393E-01 -0.35744293079E-01  0.21565685148E-01  0.45205254872E-01  0.51100000000E-03 0.  1.
         11    1    4    4    0    0  0.45808764256E-01 -0.69926249075E-01 -0.20020152743E-01  0.85960402682E-01  0.51100000000E-03 0. -1.
</event>
<event>
 8    1  0.2924722E+004  0.1043930E+01  0.7957747E-01            NaN
         13   -1    0    0    0    0  0.00000000000E+00  0.00000000000E+00  0.74505805969E-08  0.10566000000E+00  0.10566000000E+00 0. -1.
     999900   -1    0    0    0    0 -0.00000000000E+00 -0.00000000000E+00 -0.74505805969E-08  0.93827000000E+00  0.93827000000E+00 0. -1.
     999902    2    1    2    0    0  0.29671388557E-02 -0.48465798619E-02 -0.11559333805E-01  0.10310493382E+01  0.10309688775E+01 0.  0.
     999903    2    3    3    0    0 -0.43611018198E-01 -0.35411295255E-01  0.11960005065E+00  0.13958620907E+00  0.44991742645E-01 0.  0.
         14    1    1    2    0    0 -0.29671388557E-02  0.48465798619E-02  0.11559333805E-01  0.12880661759E-01  0.00000000000E+00 0. -1.
     999901    1    3    3    0    0  0.46578157054E-01  0.30564715393E-01 -0.13115938446E+00  0.89146312917E+00  0.88000000000E+00 0. -1.
        -11    1    4    4    0    0 -0.44117878017E-01 -0.12688661266E-01  0.58298458932E-01  0.74204856447E-01  0.51100000000E-03 0.  1.
         11    1    4    4    0    0  0.50685981823E-03 -0.22722633989E-01  0.61301591720E-01  0.65381352622E-01  0.51100000000E-03 0. -1.
</event>
<event>
 8    1  0.2924722E+004  0.1043930E+01  0.7957747E-01            NaN
         13   -1    0    0    0    0  0.00000000000E+00  0.00000000000E+00  0.74505805969E-08  0.10566000000E+00  0.10566000000E+00 0.  1.
     999900   -1    0    0    0    0 -0.00000000000E+00 -0.00000000000E+00 -0.74505805969E-08  0.93827000000E+00  0.93827000000E+00 0. -1.
     999902    2    1    2    0    0 -0.73210880532E-02 -0.10641366997E-01 -0.37740966915E-02  0.10304733724E+01  0.10303855057E+01 0.  0.
     999903    2    3    3    0    0  0.31997853226E-01 -0.99784134032E-01  0.82875196769E-01  0.14086642987E+00  0.44657774333E-01 0.  0.
         14    1    1    2    0    0  0.73210880532E-02  0.10641366997E-01  0.37740966915E-02  0.13456627649E-01  0.00000000000E+00 0.  1.
     999901    1    3    3    0    0 -0.39318941279E-01  0.89142767035E-01 -0.86649293460E-01  0.88960694248E+00  0.88000000000E+00 0. -1.
        -11    1    4    4    0    0  0.62341331032E-02 -0.10056097718E-01  0.32921242689E-01  0.34986552532E-01  0.51100000000E-03 0.  1.
         11    1    4    4    0    0  0.25763720123E-01 -0.89728036314E-01  0.49953954080E-01  0.10587987734E+00  0.51100000000E-03 0. -1.
</event>
<event>
 8    1  0.2924722E+004  0.1043930E+01  0.7957747E-01            NaN
         13   -1    0    0    0    0  0.00000000000E+00  0.00000000000E+00  0.74505805969E-08  0.10566000000E+00  0.10566000000E+00 0.  1.
     999900   -1    0    0    0    0 -0.00000000000E+00 -0.00000000000E+00 -0.74505805969E-08  0.93827000000E+00  0.93827000000E+00 0. -1.
     999902    2    1    2    0    0 -0.10484949688E-01 -0.85337866360E-02 -0.32381190587E-02  0.10300287375E+01  0.10299349275E+01 0.  0.
     999903    2    3    3    0    0 -0.99906175773E-01  0.74424177190E-01  0.46113481924E-01  0.14024575274E+00  0.44969054225E-01 0.  0.
         14    1    1    2    0    0  0.10484949688E-01  0.85337866360E-02  0.32381190587E-02  0.13901262509E-01  0.00000000000E+00 0. -1.
     999901    1    3    3    0    0  0.89421226085E-01 -0.82957963826E-01 -0.49351600983E-01  0.88978298475E+00  0.88000000000E+00 0. -1.
        -11    1    4    4    0    0 -0.34595008591E-01  0.80022685581E-02  0.28287380785E-01  0.45401409165E-01  0.51100000000E-03 0.  1.
         11    1    4    4    0    0 -0.65311167182E-01  0.66421908632E-01  0.17826101139E-01  0.94844343573E-01  0.51100000000E-03 0. -1.
</event>
<event>
 8    1  0.2924722E+004  0.1043930E+01  0.7957747E-01            NaN
         13   -1    0    0    0    0  0.00000000000E+00  0.00000000000E+00  0.74505805969E-08  0.10566000000E+00  0.10566000000E+00 0. -1.
     999900   -1    0    0    0    0 -0.00000000000E+00 -0.00000000000E+00 -0.74505805969E-08  0.93827000000E+00  0.93827000000E+00 0. -1.
     999902    2    1    2    0    0  0.12253546238E-02 -0.76123489874E-02  0.12367739141E-01  0.10293556965E+01  0.10292525150E+01 0.  0.
     999903    2    3    3    0    0  0.99854025414E-01 -0.32979849192E-01  0.82229484879E-01  0.14073216075E+00  0.44557334324E-01 0.  0.
         14    1    1    2    0    0 -0.12253546238E-02  0.76123489874E-02 -0.12367739141E-01  0.14574303500E-01  0.00000000000E+00 0.  1.
     999901    1    3    3    0    0 -0.98628670791E-01  0.25367500204E-01 -0.69861745739E-01  0.88862353575E+00  0.88000000000E+00 0. -1.
        -11    1    4    4    0    0  0.55481700032E-01 -0.26905066056E-01  0.71987463847E-01  0.94786906744E-01  0.51100000000E-03 0. -1.
         11    1    4    4    0    0  0.44372325382E-01 -0.60747831354E-02  0.10242021032E-01  0.45945254007E-01  0.51100000000E-03 0.  1.
</event>
<event>
 8    1  0.2924722E+004  0.1043930E+01  0.7957747E-01            NaN
         13   -1    0    0    0    0  0.00000000000E+00  0.00000000000E+00  0.74505805969E-08  0.10566000000E+00  0.10566000000E+00 0. -1.
     999900   -1    0    0    0    0 -0.00000000000E+00 -0.00000000000E+00 -0.74505805969E-08  0.93827000000E+00  0.93827000000E+00 0.  1.
     999902    2    1    2    0    0  0.17683900623E-02  0.33697044789E-02 -0.13411076521E-01  0.10299894446E+01  0.10298950999E+01 0.  0.
     999903    2    3    3    0    0  0.46113686121E-01  0.43933634229E-01 -0.11834988017E+00  0.14171916467E+00  0.44955436094E-01 0.  0.
         14    1    1    2    0    0 -0.17683900623E-02 -0.33697044789E-02  0.13411076521E-01  0.13940555410E-01  0.00000000000E+00 0. -1.
     999901    1    3    3    0    0 -0.44345296059E-01 -0.40563929750E-01  0.10493880365E+00  0.88827027992E+00  0.88000000000E+00 0. -1.
        -11    1    4    4    0    0  0.20548577452E-01 -0.19739741963E-02 -0.58689872253E-01  0.62216580069E-01  0.51100000000E-03 0.  1.
         11    1    4    4    0    0  0.25565108669E-01  0.45907608426E-01 -0.59660007915E-01  0.79502584600E-01  0.51100000000E-03 0. -1.
</event>
<event>
 8    1  0.2924722E+004  0.1043930E+01  0.7957747E-01            NaN
         13   -1    0    0    0    0  0.00000000000E+00  0.00000000000E+00  0.74505805969E-08  0.10566000000E+00  0.10566000000E+00 0.  1.
     999900   -1    0    0    0    0 -0.00000000000E+00 -0.00000000000E+00 -0.74505805969E-08  0.93827000000E+00  0.93827000000E+00 0.  1.
     999902    2    1    2    0    0 -0.62186515113E-02 -0.53933648722E-02  0.11290340660E-01  0.10299574625E+01  0.10298626815E+01 0.  0.
     999903    2    3    3    0    0  0.36235847519E-01 -0.10612632826E+00  0.72707977736E-01  0.14106959527E+00  0.45148050783E-01 0.  0.
         14    1    1    2    0    0  0.62186515113E-02  0.53933648722E-02 -0.11290340660E-01  0.13972537475E-01  0.00000000000E+00 0. -1.
     999901    1    3    3    0    0 -0.42454499030E-01  0.10073296339E+00 -0.61417637076E-01  0.88888786725E+00  0.88000000000E+00 0.  1.
        -11    1    4    4    0    0  0.41317853121E-01 -0.79053122131E-01  0.38521753945E-01  0.97163510399E-01  0.51100000000E-03 0. -1.
         11    1    4    4    0    0 -0.50820056020E-02 -0.27073206128E-01  0.34186223792E-01  0.43906084876E-01  0.51100000000E-03 0.  1.
</event>
<event>
 8    1  0.2924722E+004  0.1043930E+01  0.7957747E-01            NaN
         13   -1    0    0    0    0  0.00000000000E+00  0.00000000000E+00  0.74505805969E-08  0.10566000000E+00  0.10566000000E+00 0. -1.
     999900   -1    0    0    0    0 -0.00000000000E+00 -0.00000000000E+00 -0.74505805969E-08  0.93827000000E+00  0.93827000000E+00 0. -1.
     999902    2    1    2    0    0 -0.77638398370E-02 -0.14762908237E-02  0.12132960736E-01  0.10294501733E+01  0.10293483346E+01 0.  0.
     999903    2    3    3    0    0  0.10191624861E+00 -0.38265390610E-01  0.75048493464E-01  0.13965158720E+00  0.44934703587E-01 0.  0.
         14    1    1    2    0    0  0.77638398370E-02  0.14762908237E-02 -0.12132960736E-01  0.14479826650E-01  0.00000000000E+00 0.  1.
     999901    1    3    3    0    0 -0.10968008844E+00  0.36789099786E-01 -0.62915532729E-01  0.88979858615E+00  0.88000000000E+00 0. -1.
        -11    1    4    4    0    0  0.14754388337E-01  0.92950591838E-02  0.50429148556E-02  0.18159906709E-01  0.51100000000E-03 0. -1.
         11    1    4    4    0    0  0.87161860269E-01 -0.47560449794E-01  0.70005578609E-01  0.12149168049E+00  0.51100000000E-03 0.  1.
</event>
<event>
 8    1  0.2924722E+004  0.1043930E+01  0.7957747E-01            NaN
         13   -1    0    0    0    0  0.00000000000E+00  0.00000000000E+00  0.74505805969E-08  0.10566000000E+00  0.10566000000E+00 0. -1.
     999900   -1    0    0    0    0 -0.00000000000E+00 -0.00000000000E+00 -0.74505805969E-08  0.93827000000E+00  0.93827000000E+00 0. -1.
     999902    2    1    2    0    0 -0.10474467243E-01 -0.42741455255E-02  0.13628229134E-01  0.10262180997E+01  0.10260652400E+01 0.  0.
     999903    2    3    3    0    0  0.10134413447E-01 -0.11520245990E-01  0.12957004719E+00  0.13834438280E+00  0.45992920334E-01 0.  0.
         14    1    1    2    0    0  0.10474467243E-01  0.42741455255E-02 -0.13628229134E-01  0.17711900331E-01  0.00000000000E+00 0.  1.
     999901    1    3    3    0    0 -0.20608880690E-01  0.72461004645E-02 -0.11594181805E+00  0.88787371687E+00  0.88000000000E+00 0. -1.
        -11    1    4    4    0    0 -0.30924559824E-02  0.16575457860E-01  0.36039715552E-01  0.39792352347E-01  0.51100000000E-03 0. -1.
         11    1    4    4    0    0  0.13226869430E-01 -0.28095703850E-01  0.93530331633E-01  0.98552030452E-01  0.51100000000E-03 0.  1.
</event>
<event>
 8    1  0.2924722E+004  0.1043930E+01  0.7957747E-01            NaN
         13   -1    0    0    0    0  0.00000000000E+00  0.00000000000E+00  0.74505805969E-08  0.10566000000E+00  0.10566000000E+00 0. -1.
     999900   -1    0    0    0    0 -0.00000000000E+00 -0.00000000000E+00 -0.74505805969E-08  0.93827000000E+00  0.93827000000E+00 0. -1.
     999902    2    1    2    0    0 -0.13860023863E-01 -0.16060560530E-02 -0.90475864145E-03  0.10299479306E+01  0.10298530193E+01 0.  0.
     999903    2    3    3    0    0 -0.93631830171E-01 -0.76999521487E-01  0.56872557064E-01  0.14124891857E+00  0.44954680728E-01 0.  0.
         14    1    1    2    0    0  0.13860023863E-01  0.16060560530E-02  0.90475864145E-03  0.13982069436E-01  0.00000000000E+00 0. -1.
     999901    1    3    3    0    0  0.79771806308E-01  0.75393465434E-01 -0.57777315706E-01  0.88869901200E+00  0.88000000000E+00 0. -1.
        -11    1    4    4    0    0 -0.23904382950E-01 -0.18972420111E-01  0.37739343152E-01  0.48537525602E-01  0.51100000000E-03 0.  1.
         11    1    4    4    0    0 -0.69727447221E-01 -0.58027101376E-01  0.19133213912E-01  0.92711392966E-01  0.51100000000E-03 0. -1.
</event>
<event>
 8    1  0.2924722E+004  0.1043930E+01  0.7957747E-01            NaN
         13   -1    0    0    0    0  0.00000000000E+00  0.00000000000E+00  0.74505805969E-08  0.10566000000E+00  0.10566000000E+00 0.  1.
     999900   -1    0    0    0    0 -0.00000000000E+00 -0.00000000000E+00 -0.74505805969E-08  0.93827000000E+00  0.93827000000E+00 0.  1.
     999902    2    1    2    0    0 -0.11225513433E-01 -0.31094782765E-02  0.68501839603E-02  0.10304168202E+01  0.10303282086E+01 0.  0.
     999903    2    3    3    0    0  0.81840705683E-01 -0.10034746679E+00  0.28316053262E-01  0.13992407400E+00  0.44826693127E-01 0.  0.
         14    1    1    2    0    0  0.11225513433E-01  0.31094782765E-02 -0.68501839603E-02  0.13513179762E-01  0.00000000000E+00 0. -1.
     999901    1    3    3    0    0 -0.93066219116E-01  0.97237988509E-01 -0.21465869301E-01  0.89049274623E+00  0.88000000000E+00 0.  1.
        -11    1    4    4    0    0  0.51740863066E-01 -0.70127570544E-01  0.39712412650E-01  0.95772281485E-01  0.51100000000E-03 0. -1.
         11    1    4    4    0    0  0.30099842617E-01 -0.30219896241E-01 -0.11396359389E-01  0.44151792519E-01  0.51100000000E-03 0.  1.
</event>
<event>
 8    1  0.2924722E+004  0.1043930E+01  0.7957747E-01            NaN
         13   -1    0    0    0    0  0.00000000000E+00  0.00000000000E+00  0.74505805969E-08  0.10566000000E+00  0.10566000000E+00 0. -1.
     999900   -1    0    0    0    0 -0.00000000000E+00 -0.00000000000E+00 -0.74505805969E-08  0.93827000000E+00  0.93827000000E+00 0. -1.
     999902    2    1    2    0    0 -0.62683846260E-02 -0.92478906062E-02  0.42514009100E-02  0.10319763170E+01  0.10319070832E+01 0.  0.
     999903    2    3    3    0    0  0.57994483881E-01 -0.12163316425E+00 -0.96192337866E-02  0.14239632598E+00  0.45013300116E-01 0.  0.
         14    1    1    2    0    0  0.62683846260E-02  0.92478906062E-02 -0.42514009100E-02  0.11953682955E-01  0.00000000000E+00 0.  1.
     999901    1    3    3    0    0 -0.64262868507E-01  0.11238527364E+00  0.13870634697E-01  0.88957999107E+00  0.88000000000E+00 0.  1.
        -11    1    4    4    0    0  0.19867387825E-01 -0.24331605486E-01  0.15324159736E-01  0.34954700930E-01  0.51100000000E-03 0. -1.
         11    1    4    4    0    0  0.38127096056E-01 -0.97301558764E-01 -0.24943393522E-01  0.10744162505E+00  0.51100000000E-03 0.  1.
</event>
<event>
 7    1  0.2924722E+004  0.1043930E+01  0.7957747E-01            NaN
         13   -1    0    0    0    0  0.00000000000E+00  0.00000000000E+00  0.74505805969E-08  0.10566000000E+00  0.10566000000E+00 0. -1.
     999900   -1    0    0    0    0 -0.00000000000E+00 -0.00000000000E+00 -0.74505805969E-08  0.93827000000E+00  0.93827000000E+00 0.  1.
     999903    2    1    2    0    0  0.65517562186E-02  0.97275562172E-01  0.21604855066E-01  0.11363628799E+00  0.54230763237E-01 0.  0.
         14    1    1    2    0    0 -0.38512908974E-01 -0.26157628294E-01 -0.29494540940E-02  0.46649383223E-01  0.00000000000E+00 0.  1.
     999901    1    1    2    0    0  0.31961152755E-01 -0.71117933878E-01 -0.18655400972E-01  0.88364432878E+00  0.88000000000E+00 0. -1.
        -11    1    3    3    0    0  0.28728431836E-01  0.36516382769E-01  0.42067235590E-02  0.46655403228E-01  0.51100000000E-03 0.  1.
         11    1    3    3    0    0 -0.22176675617E-01  0.60759179403E-01  0.17398131507E-01  0.66980884767E-01  0.51100000000E-03 0. -1.
</event>
<event>
 8    1  0.2924722E+004  0.1043930E+01  0.7957747E-01            NaN
         13   -1    0    0    0    0  0.00000000000E+00  0.00000000000E+00  0.74505805969E-08  0.10566000000E+00  0.10566000000E+00 0.  1.
     999900   -1    0    0    0    0 -0.00000000000E+00 -0.00000000000E+00 -0.74505805969E-08  0.93827000000E+00  0.93827000000E+00 0.  1.
     999902    2    1    2    0    0 -0.13323901245E-01  0.14500002504E-02 -0.46922200590E-02  0.10297297967E+01  0.10296318800E+01 0.  0.
     999903    2    3    3    0    0 -0.10014535752E+00 -0.86631325474E-01  0.19125063911E-01  0.14076210986E+00  0.43750706457E-01 0.  0.
         14    1    1    2    0    0  0.13323901245E-01 -0.14500002504E-02  0.46922200590E-02  0.14200203315E-01  0.00000000000E+00 0. -1.
     999901    1    3    3    0    0  0.86821456273E-01  0.88081325725E-01 -0.23817283970E-01  0.88896768683E+00  0.88000000000E+00 0. -1.
        -11    1    4    4    0    0 -0.74732544217E-01 -0.82228152037E-01  0.25892823515E-01  0.11409260091E+00  0.51100000000E-03 0. -1.
         11    1    4    4    0    0 -0.25412813301E-01 -0.44031734375E-02 -0.67677596031E-02  0.26669508942E-01  0.51100000000E-03 0.  1.
</event>
<event>
 8    1  0.2924722E+004  0.1043930E+01  0.7957747E-01            NaN
         13   -1    0    0    0    0  0.00000000000E+00  0.00000000000E+00  0.74505805969E-08  0.10566000000E+00  0.10566000000E+00 0. -1.
     999900   -1    0    0    0    0 -0.00000000000E+00 -0.00000000000E+00 -0.74505805969E-08  0.93827000000E+00  0.93827000000E+00 0.  1.
     999902    2    1    2    0    0  0.35525365773E-02  0.94042346342E-02 -0.10453959589E-01  0.10294267102E+01  0.10293245388E+01 0.  0.
     999903    2    3    3    0    0 -0.17940484294E-01  0.31219394984E-01  0.12448611958E+00  0.13861434151E+00  0.49199899440E-01 0.  0.
         14    1    1    2    0    0 -0.35525365773E-02 -0.94042346342E-02  0.10453959589E-01  0.14503289843E-01  0.00000000000E+00 0. -1.
     999901    1    3    3    0    0  0.21493020871E-01 -0.21815160350E-01 -0.13494007917E+00  0.89081236865E+00  0.88000000000E+00 0.  1.
        -11    1    4    4    0    0 -0.18136803813E-02  0.19539774242E-01  0.11479865988E+00  0.11646495458E+00  0.51100000000E-03 0. -1.
         11    1    4    4    0    0 -0.16126803913E-01  0.11679620742E-01  0.96874597027E-02  0.22149386935E-01  0.51100000000E-03 0.  1.
</event>
<event>
 7    1  0.2924722E+004  0.1043930E+01  0.7957747E-01            NaN
         13   -1    0    0    0    0  0.00000000000E+00  0.00000000000E+00  0.74505805969E-08  0.10566000000E+00  0.10566000000E+00 0. -1.
     999900   -1    0    0    0    0 -0.00000000000E+00 -0.00000000000E+00 -0.74505805969E-08  0.93827000000E+00  0.93827000000E+00 0.  1.
     999903    2    1    2    0    0  0.68217183170E-01  0.85870062803E-01  0.20623250109E-01  0.12024814131E+00  0.44800058903E-01 0.  0.
         14    1    1    2    0    0  0.20512520612E-01  0.11348776649E-01 -0.24466408929E-01  0.33884559894E-01  0.00000000000E+00 0.  1.
     999901    1    1    2    0    0 -0.88729703783E-01 -0.97218839452E-01  0.38431588200E-02  0.88979729880E+00  0.88000000000E+00 0.  1.
        -11    1    3    3    0    0  0.25560513911E-01  0.39347888457E-02  0.14735960520E-02  0.25908590100E-01  0.51100000000E-03 0. -1.
         11    1    3    3    0    0  0.42656669259E-01  0.81935273957E-01  0.19149654057E-01  0.94339551209E-01  0.51100000000E-03 0.  1.
</event>
<event>
 8    1  0.2924722E+004  0.1043930E+01  0.7957747E-01            NaN
         13   -1    0    0    0    0  0.00000000000E+00  0.00000000000E+00  0.74505805969E-08  0.10566000000E+00  0.10566000000E+00 0. -1.
     999900   -1    0    0    0    0 -0.00000000000E+00 -0.00000000000E+00 -0.74505805969E-08  0.93827000000E+00  0.93827000000E+00 0.  1.
     999902    2    1    2    0    0 -0.12854659477E-01 -0.45235190478E-02  0.34118051106E-02  0.10298820497E+01  0.10297862357E+01 0.  0.
     999903    2    3    3    0    0  0.22742953701E-01  0.40074577290E-01  0.12405955821E+00  0.13981909649E+00  0.45115319711E-01 0.  0.
         14    1    1    2    0    0  0.12854659477E-01  0.45235190478E-02 -0.34118051106E-02  0.14047950348E-01  0.00000000000E+00 0.  1.
     999901    1    3    3    0    0 -0.35597613178E-01 -0.44598096338E-01 -0.12064775310E+00  0.89006295316E+00  0.88000000000E+00 0.  1.
        -11    1    4    4    0    0  0.11422371948E-01  0.12062238545E-01  0.55570370012E-02  0.17524553086E-01  0.51100000000E-03 0.  1.
         11    1    4    4    0    0  0.11320581753E-01  0.28012338746E-01  0.11850252121E+00  0.12229454341E+00  0.51100000000E-03 0. -1.
</event>
<event>
 8    1  0.2924722E+004  0.1043930E+01  0.7957747E-01            NaN
         13   -1    0    0    0    0  0.00000000000E+00  0.00000000000E+00  0.74505805969E-08  0.10566000000E+00  0.10566000000E+00 0.  1.
     999900   -1    0    0    0    0 -0.00000000000E+00 -0.00000000000E+00 -0.74505805969E-08  0.93827000000E+00  0.93827000000E+00 0. -1.
     999902    2    1    2    0    0  0.22359621039E-02 -0.11796680389E-01 -0.10991198197E-01  0.10276521736E+01  0.10275232466E+01 0.  0.
     999903    2    3    3    0    0  0.97932432864E-01 -0.61037018289E-01  0.60732239423E-01  0.13819915241E+00  0.45763760907E-01 0.  0.
         14    1    1    2    0    0 -0.22359621039E-02  0.11796680389E-01  0.10991198197E-01  0.16277826407E-01  0.00000000000E+00 0. -1.
     999901    1    3    3    0    0 -0.95696470760E-01  0.49240337900E-01 -0.71723437620E-01  0.88945302119E+00  0.88000000000E+00 0. -1.
        -11    1    4    4    0    0  0.57883920251E-01 -0.49905530902E-01  0.17871103681E-01  0.78490430665E-01  0.51100000000E-03 0. -1.
         11    1    4    4    0    0  0.40048512613E-01 -0.11131487387E-01  0.42861135742E-01  0.59708721742E-01  0.51100000000E-03 0.  1.
</event>
<event>
 8    1  0.2924722E+004  0.1043930E+01  0.7957747E-01            NaN
         13   -1    0    0    0    0  0.00000000000E+00  0.00000000000E+00  0.74505805969E-08  0.10566000000E+00  0.10566000000E+00 0. -1.
     999900   -1    0    0    0    0 -0.00000000000E+00 -0.00000000000E+00 -0.74505805969E-08  0.93827000000E+00  0.93827000000E+00 0.  1.
     999902    2    1    2    0    0 -0.66724543421E-02 -0.17394018269E-02  0.11095322119E-01  0.10308665648E+01  0.10307837897E+01 0.  0.
     999903    2    3    3    0    0  0.70246295841E-01 -0.11057027478E-01 -0.11069778482E+00  0.13910601783E+00  0.45162868558E-01 0.  0.
         14    1    1    2    0    0  0.66724543421E-02  0.17394018269E-02 -0.11095322119E-01  0.13063435176E-01  0.00000000000E+00 0.  1.
     999901    1    3    3    0    0 -0.76918750184E-01  0.93176256516E-02  0.12179310694E+00  0.89176054699E+00  0.88000000000E+00 0. -1.
        -11    1    4    4    0    0  0.89444727411E-02  0.11345797904E-01 -0.41670426708E-01  0.44106873679E-01  0.51100000000E-03 0. -1.
         11    1    4    4    0    0  0.61301823100E-01 -0.22402825382E-01 -0.69027358112E-01  0.94999144151E-01  0.51100000000E-03 0.  1.
</event>
<event>
 8    1  0.2924722E+004  0.1043930E+01  0.7957747E-01            NaN
         13   -1    0    0    0    0  0.00000000000E+00  0.00000000000E+00  0.74505805969E-08  0.10566000000E+00  0.10566000000E+00 0. -1.
     999900   -1    0    0    0    0 -0.00000000000E+00 -0.00000000000E+00 -0.74505805969E-08  0.93827000000E+00  0.93827000000E+00 0.  1.
     999902    2    1    2    0    0 -0.97040374438E-02  0.34936031938E-02 -0.77806071871E-02  0.10310105784E+01  0.10309296297E+01 0.  0.
     999903    2    3    3    0    0  0.51703650501E-01 -0.61034572328E-01  0.10469860726E+00  0.13939050054E+00  0.45490952772E-01 0.  0.
         14    1    1    2    0    0  0.97040374438E-02 -0.34936031938E-02  0.77806071871E-02  0.12919421589E-01  0.00000000000E+00 0.  1.
     999901    1    3    3    0    0 -0.61407687945E-01  0.64528175521E-01 -0.11247921445E+00  0.89162007787E+00  0.88000000000E+00 0.  1.
        -11    1    4    4    0    0 -0.16029490876E-02 -0.21404786176E-01  0.99187436333E-02  0.23651150358E-01  0.51100000000E-03 0. -1.
         11    1    4    4    0    0  0.53306599588E-01 -0.39629786152E-01  0.94779863631E-01  0.11573935018E+00  0.51100000000E-03 0.  1.
</event>
<event>
 8    1  0.2924722E+004  0.1043930E+01  0.7957747E-01            NaN
         13   -1    0    0    0    0  0.00000000000E+00  0.00000000000E+00  0.74505805969E-08  0.10566000000E+00  0.10566000000E+00 0.  1.
     999900   -1    0    0    0    0 -0.00000000000E+00 -0.00000000000E+00 -0.74505805969E-08  0.93827000000E+00  0.93827000000E+00 0.  1.
     999902    2    1    2    0    0  0.52942437954E-02 -0.31522081128E-02  0.11760006671E-01  0.10306535852E+01  0.10305680712E+01 0.  0.
     999903    2    3    3    0    0  0.43899045510E-01 -0.91803589209E-01  0.89642852638E-01  0.14193814379E+00  0.41899527980E-01 0.  0.
         14    1    1    2    0    0 -0.52942437954E-02  0.31522081128E-02 -0.11760006671E-01  0.13276414811E-01  0.00000000000E+00 0. -1.
     999901    1    3    3    0    0 -0.38604801715E-01  0.88651381096E-01 -0.77882845967E-01  0.88871544140E+00  0.88000000000E+00 0.  1.
        -11    1    4    4    0    0 -0.31490611264E-02 -0.12197506888E-02  0.15258085914E-01  0.15635686249E-01  0.51100000000E-03 0.  1.
         11    1    4    4    0    0  0.47048106636E-01 -0.90583838520E-01  0.74384766724E-01  0.12630245754E+00  0.51100000000E-03 0. -1.
</event>
<event>
 8    1  0.2924722E+004  0.1043930E+01  0.7957747E-01            NaN
         13   -1    0    0    0    0  0.00000000000E+00  0.00000000000E+00  0.74505805969E-08  0.10566000000E+00  0.10566000000E+00 0.  1.
     999900   -1    0    0    0    0 -0.00000000000E+00 -0.00000000000E+00 -0.74505805969E-08  0.93827000000E+00  0.93827000000E+00 0. -1.
     999902    2    1    2    0    0  0.25033596356E-02  0.13271328719E-01  0.41021718239E-02  0.10298153697E+01  0.10297186377E+01 0.  0.
     999903    2    3    3    0    0  0.67448942335E-02 -0.12476061630E+00  0.39131933785E-01  0.13835707414E+00  0.44728813356E-01 0.  0.
         14    1    1    2    0    0 -0.25033596356E-02 -0.13271328719E-01 -0.41021718239E-02  0.14114630322E-01  0.00000000000E+00 0.  1.
     999901    1    3    3    0    0 -0.42415345980E-02  0.13803194502E+00 -0.35029761961E-01  0.89145829554E+00  0.88000000000E+00 0. -1.
        -11    1    4    4    0    0  0.14786151469E-01 -0.47234116546E-01 -0.33087464254E-02  0.49607468843E-01  0.51100000000E-03 0. -1.
         11    1    4    4    0    0 -0.80412572356E-02 -0.77526499757E-01  0.42440680210E-01  0.88749605296E-01  0.51100000000E-03 0.  1.
</event>
<event>
 8    1  0.2924722E+004  0.1043930E+01  0.7957747E-01            NaN
         13   -1    0    0    0    0  0.00000000000E+00  0.00000000000E+00  0.74505805969E-08  0.10566000000E+00  0.10566000000E+00 0.  1.
     999900   -1    0    0    0    0 -0.00000000000E+00 -0.00000000000E+00 -0.74505805969E-08  0.93827000000E+00  0.93827000000E+00 0. -1.
     999902    2    1    2    0    0  0.97426357412E-02 -0.74165385891E-02  0.67415485092E-02  0.10299524297E+01  0.10298575799E+01 0.  0.
     999903    2    3    3    0    0  0.38384004662E-01 -0.73658183042E-01 -0.10348490633E+00  0.14014449826E+00  0.45083198767E-01 0.  0.
         14    1    1    2    0    0 -0.97426357412E-02  0.74165385891E-02 -0.67415485092E-02  0.13977570323E-01  0.00000000000E+00 0. -1.
     999901    1    3    3    0    0 -0.28641368921E-01  0.66241644453E-01  0.11022645484E+00  0.88980793142E+00  0.88000000000E+00 0.  1.
        -11    1    4    4    0    0  0.34698450798E-01 -0.79442334149E-01 -0.10027903601E+00  0.13255645261E+00  0.51100000000E-03 0.  1.
         11    1    4    4    0    0  0.36855538639E-02  0.57841511071E-02 -0.32058703131E-02  0.75880456494E-02  0.51100000000E-03 0. -1.
</event>
<event>
 8    1  0.2924722E+004  0.1043930E+01  0.7957747E-01            NaN
         13   -1    0    0    0    0  0.00000000000E+00  0.00000000000E+00  0.74505805969E-08  0.10566000000E+00  0.10566000000E+00 0. -1.
     999900   -1    0    0    0    0 -0.00000000000E+00 -0.00000000000E+00 -0.74505805969E-08  0.93827000000E+00  0.93827000000E+00 0. -1.
     999902    2    1    2    0    0 -0.50079825823E-02 -0.71280929250E-02  0.10850309214E-01  0.10300153024E+01  0.10299213098E+01 0.  0.
     999903    2    3    3    0    0  0.97593360688E-01 -0.50323410477E-01  0.75420440981E-01  0.14065476080E+00  0.45150959300E-01 0.  0.
         14    1    1    2    0    0  0.50079825823E-02  0.71280929250E-02 -0.10850309214E-01  0.13914697565E-01  0.00000000000E+00 0.  1.
     999901    1    3    3    0    0 -0.10260134327E+00  0.43195317552E-01 -0.64570131767E-01  0.88936054163E+00  0.88000000000E+00 0. -1.
        -11    1    4    4    0    0  0.50117986014E-01 -0.49523920658E-01  0.37068373461E-01  0.79616309079E-01  0.51100000000E-03 0.  1.
         11    1    4    4    0    0  0.47475374675E-01 -0.79948981896E-03  0.38352067521E-01  0.61038451722E-01  0.51100000000E-03 0. -1.
</event>
<event>
 8    1  0.2924722E+004  0.1043930E+01  0.7957747E-01            NaN
         13   -1    0    0    0    0  0.00000000000E+00  0.00000000000E+00  0.74505805969E-08  0.10566000000E+00  0.10566000000E+00 0.  1.
     999900   -1    0    0    0    0 -0.00000000000E+00 -0.00000000000E+00 -0.74505805969E-08  0.93827000000E+00  0.93827000000E+00 0. -1.
     999902    2    1    2    0    0  0.35821304661E-02  0.13234853270E-02 -0.13486889979E-01  0.10299128864E+01  0.10298174955E+01 0.  0.
     999903    2    3    3    0    0 -0.64720610523E-01 -0.43448223229E-01 -0.10804348407E+00  0.14108741434E+00  0.46430146546E-01 0.  0.
         14    1    1    2    0    0 -0.35821304661E-02 -0.13234853270E-02  0.13486889979E-01  0.14017113589E-01  0.00000000000E+00 0.  1.
     999901    1    3    3    0    0  0.68302740989E-01  0.44771708556E-01  0.94556594087E-01  0.88882547207E+00  0.88000000000E+00 0.  1.
        -11    1    4    4    0    0 -0.54585516867E-01 -0.10783253171E-01 -0.57115919073E-01  0.79739240861E-01  0.51100000000E-03 0. -1.
         11    1    4    4    0    0 -0.10135093656E-01 -0.32664970058E-01 -0.50927564993E-01  0.61348173480E-01  0.51100000000E-03 0.  1.
</event>
<event>
 8    1  0.2924722E+004  0.1043930E+01  0.7957747E-01            NaN
         13   -1    0    0    0    0  0.00000000000E+00  0.00000000000E+00  0.74505805969E-08  0.10566000000E+00  0.10566000000E+00 0. -1.
     999900   -1    0    0    0    0 -0.00000000000E+00 -0.00000000000E+00 -0.74505805969E-08  0.93827000000E+00  0.93827000000E+00 0. -1.
     999902    2    1    2    0    0 -0.49805026971E-02 -0.97442004751E-02  0.79507693841E-02  0.10304033750E+01  0.10303145858E+01 0.  0.
     999903    2    3    3    0    0  0.47140653023E-01  0.11766216340E-01 -0.12220730181E+00  0.13904461648E+00  0.45145273735E-01 0.  0.
         14    1    1    2    0    0  0.49805026971E-02  0.97442004751E-02 -0.79507693841E-02  0.13526624997E-01  0.00000000000E+00 0.  1.
     999901    1    3    3    0    0 -0.52121155720E-01 -0.21510416815E-01  0.13015807120E+00  0.89135875853E+00  0.88000000000E+00 0.  1.
        -11    1    4    4    0    0  0.25267112829E-03  0.84766633281E-02 -0.62400050895E-01  0.62975750385E-01  0.51100000000E-03 0. -1.
         11    1    4    4    0    0  0.46887981895E-01  0.32895530121E-02 -0.59807250916E-01  0.76068866091E-01  0.51100000000E-03 0.  1.
</event>
<event>
 8    1  0.2924722E+004  0.1043930E+01  0.7957747E-01            NaN
         13   -1    0    0    0    0  0.00000000000E+00  0.00000000000E+00  0.74505805969E-08  0.10566000000E+00  0.10566000000E+00 0.  1.
     999900   -1    0    0    0    0 -0.00000000000E+00 -0.00000000000E+00 -0.74505805969E-08  0.93827000000E+00  0.93827000000E+00 0. -1.
     999902    2    1    2    0    0 -0.13083787788E-01 -0.27455958296E-02  0.36270700575E-02  0.10300779447E+01  0.10299848022E+01 0.  0.
     999903    2    3    3    0    0  0.11156403213E+00  0.39948614418E-01 -0.55376397822E-01  0.13831492469E+00  0.44967186897E-01 0.  0.
         14    1    1    2    0    0  0.13083787788E-01  0.27455958296E-02 -0.36270700575E-02  0.13852055319E-01  0.00000000000E+00 0.  1.
     999901    1    3    3    0    0 -0.12464781992E+00 -0.42694210248E-01  0.59003467880E-01  0.89176301999E+00  0.88000000000E+00 0.  1.
        -11    1    4    4    0    0  0.67259823673E-01  0.46495386290E-01 -0.32136414375E-01  0.87856218202E-01  0.51100000000E-03 0.  1.
         11    1    4    4    0    0  0.44304208458E-01 -0.65467718722E-02 -0.23239983447E-01  0.50458706490E-01  0.51100000000E-03 0. -1.
</event>
<event>
 8    1  0.2924722E+004  0.1043930E+01  0.7957747E-01            NaN
         13   -1    0    0    0    0  0.00000000000E+00  0.00000000000E+00  0.74505805969E-08  0.10566000000E+00  0.10566000000E+00 0.  1.
     999900   -1    0    0    0    0 -0.00000000000E+00 -0.00000000000E+00 -0.74505805969E-08  0.93827000000E+00  0.93827000000E+00 0. -1.
     999902    2    1    2    0    0 -0.11833380810E-01 -0.55233810269E-02  0.15599270080E-02  0.10307781936E+01  0.10306942875E+01 0.  0.
     999903    2    3    3    0    0  0.71774273285E-01  0.12442737874E-01  0.11049637920E+00  0.13994702448E+00  0.45490128743E-01 0.  0.
         14    1    1    2    0    0  0.11833380810E-01  0.55233810269E-02 -0.15599270080E-02  0.13151806402E-01  0.00000000000E+00 0. -1.
     999901    1    3    3    0    0 -0.83607654095E-01 -0.17966118901E-01 -0.10893645220E+00  0.89083116912E+00  0.88000000000E+00 0. -1.
        -11    1    4    4    0    0  0.64102731167E-01  0.26354798148E-01  0.82479554879E-01  0.10773520141E+00  0.51100000000E-03 0.  1.
         11    1    4    4    0    0  0.76715421175E-02 -0.13912060273E-01  0.28016824324E-01  0.32211823074E-01  0.51100000000E-03 0. -1.
</event>
<event>
 7    1  0.2924722E+004  0.1043930E+01  0.7957747E-01            NaN
         13   -1    0    0    0    0  0.00000000000E+00  0.00000000000E+00  0.74505805969E-08  0.10566000000E+00  0.10566000000E+00 0. -1.
     999900   -1    0    0    0    0 -0.00000000000E+00 -0.00000000000E+00 -0.74505805969E-08  0.93827000000E+00  0.93827000000E+00 0.  1.
     999902    2    1    2    0    0 -0.84191438433E-02 -0.53881737817E-02 -0.65111028220E-02  0.10320006723E+01  0.10319317219E+01 0.  0.
         14    1    1    2    0    0  0.84191438433E-02  0.53881737817E-02  0.65111028220E-02  0.11929327714E-01  0.00000000000E+00 0. -1.
     999901    1    3    3    0    0  0.55008613108E-01 -0.10142237502E+00 -0.86314078557E-01  0.89171888274E+00  0.88000000000E+00 0.  1.
        -11    1    3    3    0    0 -0.32232663539E-01  0.52332217753E-01  0.46810385803E-01  0.77259814611E-01  0.51100000000E-03 0.  1.
         11    1    3    3    0    0 -0.31195093413E-01  0.43701983487E-01  0.32992589933E-01  0.63021974939E-01  0.51100000000E-03 0. -1.
</event>
<event>
 8    1  0.2924722E+004  0.1043930E+01  0.7957747E-01            NaN
         13   -1    0    0    0    0  0.00000000000E+00  0.00000000000E+00  0.74505805969E-08  0.10566000000E+00  0.10566000000E+00 0. -1.
     999900   -1    0    0    0    0 -0.00000000000E+00 -0.00000000000E+00 -0.74505805969E-08  0.93827000000E+00  0.93827000000E+00 0. -1.
     999902    2    1    2    0    0 -0.19859826014E-02 -0.13866932517E-01  0.25066168063E-02  0.10296990804E+01  0.10296007368E+01 0.  0.
     999903    2    3    3    0    0  0.34801878168E-01  0.25517889740E-01 -0.12401135826E+00  0.13901882974E+00  0.45662726862E-01 0.  0.
         14    1    1    2    0    0  0.19859826014E-02  0.13866932517E-01 -0.25066168063E-02  0.14230919582E-01  0.00000000000E+00 0.  1.
     999901    1    3    3    0    0 -0.36787860770E-01 -0.39384822258E-01  0.12651797507E+00  0.89068025067E+00  0.88000000000E+00 0.  1.
        -11    1    4    4    0    0  0.19895449629E-01  0.38234805742E-01 -0.89195773197E-01  0.99065010793E-01  0.51100000000E-03 0.  1.
         11    1    4    4    0    0  0.14906428540E-01 -0.12716916001E-01 -0.34815585066E-01  0.39953818952E-01  0.51100000000E-03 0. -1.
</event>
<event>
 8    1  0.2924722E+004  0.1043930E+01  0.7957747E-01            NaN
         13   -1    0    0    0    0  0.00000000000E+00  0.00000000000E+00  0.74505805969E-08  0.10566000000E+00  0.10566000000E+00 0. -1.
     999900   -1    0    0    0    0 -0.00000000000E+00 -0.00000000000E+00 -0.74505805969E-08  0.93827000000E+00  0.93827000000E+00 0.  1.
     999902    2    1    2    0    0  0.98105576972E-02 -0.21999890727E-02 -0.95433325213E-02  0.10300677423E+01  0.10299744615E+01 0.  0.
     999903    2    3    3    0    0  0.59451462638E-01  0.79250693065E-02 -0.12032907239E+00  0.14167581500E+00  0.44672897366E-01 0.  0.
         14    1    1    2    0    0 -0.98105576972E-02  0.21999890727E-02  0.95433325213E-02  0.13862257748E-01  0.00000000000E+00 0. -1.
     999901    1    3    3    0    0 -0.49640904941E-01 -0.10125058379E-01  0.11078573987E+00  0.88839192725E+00  0.88000000000E+00 0. -1.
        -11    1    4    4    0    0  0.14993919859E-01 -0.17716210815E-01 -0.32301690934E-01  0.39778664087E-01  0.51100000000E-03 0.  1.
         11    1    4    4    0    0  0.44457542779E-01  0.25641280121E-01 -0.88027381460E-01  0.10189715091E+00  0.51100000000E-03 0. -1.
</event>
<event>
 8    1  0.2924722E+004  0.1043930E+01  0.7957747E-01            NaN
         13   -1    0    0    0    0  0.00000000000E+00  0.00000000000E+00  0.74505805969E-08  0.10566000000E+00  0.10566000000E+00 0.  1.
     999900   -1    0    0    0    0 -0.00000000000E+00 -0.00000000000E+00 -0.74505805969E-08  0.93827000000E+00  0.93827000000E+00 0.  1.
     999902    2    1    2    0    0 -0.88559612713E-02 -0.95616944424E-02  0.35053389749E-02  0.10304340209E+01  0.10303456362E+01 0.  0.
     999903    2    3    3    0    0 -0.45116117778E-01 -0.12415658620E+00 -0.24509794052E-01  0.14182182435E+00  0.45413410782E-01 0.  0.
         14    1    1    2    0    0  0.88559612713E-02  0.95616944424E-02 -0.35053389749E-02  0.13495979104E-01  0.00000000000E+00 0. -1.
     999901    1    3    3    0    0  0.36260156507E-01  0.11459489175E+00  0.28015133027E-01  0.88861219654E+00  0.88000000000E+00 0.  1.
        -11    1    4    4    0    0  0.66561284557E-02 -0.15331947303E-01  0.55447341066E-02  0.17617543853E-01  0.51100000000E-03 0. -1.
         11    1    4    4    0    0 -0.51772246234E-01 -0.10882463889E+00 -0.30054528159E-01  0.12420428050E+00  0.51100000000E-03 0.  1.
</event>
<event>
 7    1  0.2924722E+004  0.1043930E+01  0.7957747E-01            NaN
         13   -1    0    0    0    0  0.00000000000E+00  0.00000000000E+00  0.74505805969E-08  0.10566000000E+00  0.10566000000E+00 0. -1.
     999900   -1    0    0    0    0 -0.00000000000E+00 -0.00000000000E+00 -0.74505805969E-08  0.93827000000E+00  0.93827000000E+00 0.  1.
     999902    2    1    2    0    0  0.11648378967E-01 -0.71565031446E-02  0.11651887304E-02  0.10302092881E+01  0.10301179153E+01 0.  0.
         14    1    1    2    0    0 -0.11648378967E-01  0.71565031446E-02 -0.11651887304E-02  0.13720711884E-01  0.00000000000E+00 0. -1.
     999901    1    3    3    0    0 -0.12096334018E+00  0.15201547153E-01  0.33799143474E-01  0.88904757961E+00  0.88000000000E+00 0. -1.
        -11    1    3    3    0    0  0.73489032785E-02 -0.78915527940E-02 -0.57495464963E-02  0.12231164736E-01  0.51100000000E-03 0.  1.
         11    1    3    3    0    0  0.12526281587E+00 -0.14466497504E-01 -0.26884408247E-01  0.12893054377E+00  0.51100000000E-03 0. -1.
</event>
<event>
 8    1  0.2924722E+004  0.1043930E+01  0.7957747E-01            NaN
         13   -1    0    0    0    0  0.00000000000E+00  0.00000000000E+00  0.74505805969E-08  0.10566000000E+00  0.10566000000E+00 0.  1.
     999900   -1    0    0    0    0 -0.00000000000E+00 -0.00000000000E+00 -0.74505805969E-08  0.93827000000E+00  0.93827000000E+00 0. -1.
     999902    2    1    2    0    0  0.28308609355E-02 -0.13806423745E-01  0.80902913195E-03  0.10298131435E+01  0.10297163808E+01 0.  0.
     999903    2    3    3    0    0  0.28373387399E-03  0.96177092878E-01 -0.89152782235E-01  0.13841200521E+00  0.44266814952E-01 0.  0.
         14    1    1    2    0    0 -0.28308609355E-02  0.13806423745E-01 -0.80902913195E-03  0.14116856533E-01  0.00000000000E+00 0. -1.
     999901    1    3    3    0    0  0.25471270615E-02 -0.10998351662E+00  0.89961811367E-01  0.89140113826E+00  0.88000000000E+00 0.  1.
        -11    1    4    4    0    0  0.25425376812E-02  0.94609830995E-01 -0.66703049378E-01  0.11578878415E+00  0.51100000000E-03 0. -1.
         11    1    4    4    0    0 -0.22588038072E-02  0.15672618832E-02 -0.22449732857E-01  0.22623221053E-01  0.51100000000E-03 0.  1.
</event>
<event>
 8    1  0.2924722E+004  0.1043930E+01  0.7957747E-01            NaN
         13   -1    0    0    0    0  0.00000000000E+00  0.00000000000E+00  0.74505805969E-08  0.10566000000E+00  0.10566000000E+00 0. -1.
     999900   -1    0    0    0    0 -0.00000000000E+00 -0.00000000000E+00 -0.74505805969E-08  0.93827000000E+00  0.93827000000E+00 0. -1.
     999902    2    1    2    0    0 -0.16254446553E-02  0.71582623492E-02 -0.11642741507E-01  0.10301664169E+01  0.10300744683E+01 0.  0.
     999903    2    3    3    0    0 -0.45046790241E-01 -0.38179160563E-02 -0.12622095987E+00  0.14160912675E+00  0.45580963949E-01 0.  0.
         14    1    1    2    0    0  0.16254446553E-02 -0.71582623492E-02  0.11642741507E-01  0.13763583108E-01  0.00000000000E+00 0. -1.
     999901    1    3    3    0    0  0.43421345586E-01  0.10976178406E-01  0.11457821836E+00  0.88855729014E+00  0.88000000000E+00 0.  1.
        -11    1    4    4    0    0 -0.12806099115E-01  0.20152082184E-01 -0.42640353525E-01  0.48872931778E-01  0.51100000000E-03 0.  1.
         11    1    4    4    0    0 -0.32240691126E-01 -0.23969998240E-01 -0.83580606342E-01  0.92736194970E-01  0.51100000000E-03 0. -1.
</event>
<event>
 8    1  0.2924722E+004  0.1043930E+01  0.7957747E-01            NaN
         13   -1    0    0    0    0  0.00000000000E+00  0.00000000000E+00  0.74505805969E-08  0.10566000000E+00  0.10566000000E+00 0. -1.
     999900   -1    0    0    0    0 -0.00000000000E+00 -0.00000000000E+00 -0.74505805969E-08  0.93827000000E+00  0.93827000000E+00 0. -1.
     999902    2    1    2    0    0 -0.30814344721E-02 -0.91227659772E-02 -0.80700757871E-02  0.10313663134E+01  0.10312897877E+01 0.  0.
     999903    2    3    3    0    0  0.12369577134E+00 -0.46599785779E-03  0.49886012994E-01  0.14035211163E+00  0.43694850344E-01 0.  0.
         14    1    1    2    0    0  0.30814344721E-02  0.91227659772E-02  0.80700757871E-02  0.12563686588E-01  0.00000000000E+00 0. -1.
     999901    1    3    3    0    0 -0.12677720581E+00 -0.86567681194E-02 -0.57956088781E-01  0.89101420178E+00  0.88000000000E+00 0. -1.
        -11    1    4    4    0    0  0.33257447291E-01  0.12834408056E-01  0.30474338950E-01  0.46901239706E-01  0.51100000000E-03 0.  1.
         11    1    4    4    0    0  0.90438324045E-01 -0.13300405914E-01  0.19411674044E-01  0.93450871926E-01  0.51100000000E-03 0. -1.
</event>
<event>
 8    1  0.2924722E+004  0.1043930E+01  0.7957747E-01            NaN
         13   -1    0    0    0    0  0.00000000000E+00  0.00000000000E+00  0.74505805969E-08  0.10566000000E+00  0.10566000000E+00 0. -1.
     999900   -1    0    0    0    0 -0.00000000000E+00 -0.00000000000E+00 -0.74505805969E-08  0.93827000000E+00  0.93827000000E+00 0. -1.
     999902    2    1    2    0    0  0.29599618965E-02 -0.10755077158E-01 -0.85820178287E-02  0.10298557651E+01  0.10297595898E+01 0.  0.
     999903    2    3    3    0    0  0.48151369868E-01  0.11466753311E+00  0.40727439996E-01  0.13844984341E+00  0.45193331402E-01 0.  0.
         14    1    1    2    0    0 -0.29599618965E-02  0.10755077158E-01  0.85820178287E-02  0.14074234939E-01  0.00000000000E+00 0. -1.
     999901    1    3    3    0    0 -0.45191407972E-01 -0.12542261026E+00 -0.49309457824E-01  0.89140592165E+00  0.88000000000E+00 0.  1.
        -11    1    4    4    0    0  0.27496028041E-01  0.46041426313E-01  0.39783721408E-01  0.66774621714E-01  0.51100000000E-03 0. -1.
         11    1    4    4    0    0  0.20655341827E-01  0.68626106794E-01  0.94371858731E-03  0.71675221698E-01  0.51100000000E-03 0.  1.
</event>
<event>
 8    1  0.2924722E+004  0.1043930E+01  0.7957747E-01            NaN
         13   -1    0    0    0    0  0.00000000000E+00  0.00000000000E+00  0.74505805969E-08  0.10566000000E+00  0.10566000000E+00 0. -1.
     999900   -1    0    0    0    0 -0.00000000000E+00 -0.00000000000E+00 -0.74505805969E-08  0.93827000000E+00  0.93827000000E+00 0. -1.
     999902    2    1    2    0    0  0.94816649540E-02  0.38919229990E-02  0.93106433469E-02  0.10300830829E+01  0.10299900099E+01 0.  0.
     999903    2    3    3    0    0  0.63395873464E-01 -0.77950909114E-01  0.88113766972E-01  0.14114274552E+00  0.45407683035E-01 0.  0.
         14    1    1    2    0    0 -0.94816649540E-02 -0.38919229990E-02 -0.93106433469E-02  0.13846917147E-01  0.00000000000E+00 0.  1.
     999901    1    3    3    0    0 -0.53914208510E-01  0.81842832113E-01 -0.78803123625E-01  0.88894033733E+00  0.88000000000E+00 0. -1.
        -11    1    4    4    0    0 -0.49137136184E-02 -0.45596704436E-02 -0.12462074702E-02  0.68373481802E-02  0.51100000000E-03 0.  1.
         11    1    4    4    0    0  0.68309587083E-01 -0.73391238671E-01  0.89359974442E-01  0.13430539734E+00  0.51100000000E-03 0. -1.
</event>
<event>
 8    1  0.2924722E+004  0.1043930E+01  0.7957747E-01            NaN
         13   -1    0    0    0    0  0.00000000000E+00  0.00000000000E+00  0.74505805969E-08  0.10566000000E+00  0.10566000000E+00 0. -1.
     999900   -1    0    0    0    0 -0.00000000000E+00 -0.00000000000E+00 -0.74505805969E-08  0.93827000000E+00  0.93827000000E+00 0.  1.
     999902    2    1    2    0    0  0.40729341961E-02 -0.13644701950E-01 -0.18905790789E-02  0.10295654264E+01  0.10294652138E+01 0.  0.
     999903    2    3    3    0    0  0.68774859542E-01 -0.13838561979E-01  0.11220842005E+00  0.13984358321E+00  0.45210741314E-01 0.  0.
         14    1    1    2    0    0 -0.40729341961E-02  0.13644701950E-01  0.18905790789E-02  0.14364573559E-01  0.00000000000E+00 0.  1.
     999901    1    3    3    0    0 -0.64701925346E-01  0.19386002890E-03 -0.11409899913E+00  0.88972184323E+00  0.88000000000E+00 0.  1.
        -11    1    4    4    0    0  0.53403142897E-01 -0.60880195659E-02  0.43909168338E-01  0.69406309790E-01  0.51100000000E-03 0. -1.
         11    1    4    4    0    0  0.15371716645E-01 -0.77505424134E-02  0.68299251716E-01  0.70437273416E-01  0.51100000000E-03 0.  1.
</event>
<event>
 8    1  0.2924722E+004  0.1043930E+01  0.7957747E-01            NaN
         13   -1    0    0    0    0  0.00000000000E+00  0.00000000000E+00  0.74505805969E-08  0.10566000000E+00  0.10566000000E+00 0.  1.
     999900   -1    0    0    0    0 -0.00000000000E+00 -0.00000000000E+00 -0.74505805969E-08  0.93827000000E+00  0.93827000000E+00 0. -1.
     999902    2    1    2    0    0  0.51537848213E-02  0.10240975765E-01  0.61115592498E-02  0.10309380702E+01  0.10308562045E+01 0.  0.
     999903    2    3    3    0    0 -0.16749143202E-01 -0.12551929725E+00  0.38248347788E-01  0.13967864495E+00  0.44850417684E-01 0.  0.
         14    1    1    2    0    0 -0.51537848213E-02 -0.10240975765E-01 -0.61115592498E-02  0.12991929767E-01  0.00000000000E+00 0. -1.
     999901    1    3    3    0    0  0.21902928023E-01  0.13576027301E+00 -0.32136788538E-01  0.89125942529E+00  0.88000000000E+00 0.  1.
        -11    1    4    4    0    0 -0.29601133327E-01 -0.57698162141E-01  0.12762667727E-01  0.66094264632E-01  0.51100000000E-03 0.  1.
         11    1    4    4    0    0  0.12851990125E-01 -0.67821135106E-01  0.25485680061E-01  0.73584380315E-01  0.51100000000E-03 0. -1.
</event>
<event>
 8    1  0.2924722E+004  0.1043930E+01  0.7957747E-01            NaN
         13   -1    0    0    0    0  0.00000000000E+00  0.00000000000E+00  0.74505805969E-08  0.10566000000E+00  0.10566000000E+00 0.  1.
     999900   -1    0    0    0    0 -0.00000000000E+00 -0.00000000000E+00 -0.74505805969E-08  0.93827000000E+00  0.93827000000E+00 0.  1.
     999902    2    1    2    0    0  0.93153209891E-03  0.10177948160E-01  0.82947364882E-02  0.10307671343E+01  0.10306830861E+01 0.  0.
     999903    2    3    3    0    0  0.58772134165E-01  0.14537569689E-02 -0.11837254712E+00  0.13977541293E+00  0.45484381763E-01 0.  0.
         14    1    1    2    0    0 -0.93153209891E-03 -0.10177948160E-01 -0.82947364882E-02  0.13162865729E-01  0.00000000000E+00 0.  1.
     999901    1    3    3    0    0 -0.57840602067E-01  0.87241911910E-02  0.12666728361E+00  0.89099172134E+00  0.88000000000E+00 0. -1.
        -11    1    4    4    0    0  0.90481767902E-02  0.19365612164E-01 -0.37368234426E-01  0.43052787399E-01  0.51100000000E-03 0. -1.
         11    1    4    4    0    0  0.49723957375E-01 -0.17911855195E-01 -0.81004312695E-01  0.96722625532E-01  0.51100000000E-03 0.  1.
</event>
<event>
 8    1  0.2924722E+004  0.1043930E+01  0.7957747E-01            NaN
         13   -1    0    0    0    0  0.00000000000E+00  0.00000000000E+00  0.74505805969E-08  0.10566000000E+00  0.10566000000E+00 0.  1.
     999900   -1    0    0    0    0 -0.00000000000E+00 -0.00000000000E+00 -0.74505805969E-08  0.93827000000E+00  0.93827000000E+00 0.  1.
     999902    2    1    2    0    0 -0.14177100539E-01 -0.19778624339E-02  0.14400131113E-04  0.10296155902E+01  0.10295160811E+01 0.  0.
     999903    2    3    3    0    0 -0.26738959804E-02 -0.12322102556E+00 -0.49600684910E-01  0.13984377399E+00  0.43651830666E-01 0.  0.
         14    1    1    2    0    0  0.14177100539E-01  0.19778624339E-02 -0.14400131113E-04  0.14314409763E-01  0.00000000000E+00 0.  1.
     999901    1    3    3    0    0 -0.11503204559E-01  0.12124316313E+00  0.49615085041E-01  0.88977181625E+00  0.88000000000E+00 0. -1.
        -11    1    4    4    0    0 -0.42692246498E-02 -0.48073202139E-01 -0.42557601745E-01  0.64348035170E-01  0.51100000000E-03 0.  1.
         11    1    4    4    0    0  0.15953286695E-02 -0.75147823422E-01 -0.70430831652E-02  0.75495738821E-01  0.51100000000E-03 0. -1.
</event>
<event>
 8    1  0.2924722E+004  0.1043930E+01  0.7957747E-01            NaN
         13   -1    0    0    0    0  0.00000000000E+00  0.00000000000E+00  0.74505805969E-08  0.10566000000E+00  0.10566000000E+00 0. -1.
     999900   -1    0    0    0    0 -0.00000000000E+00 -0.00000000000E+00 -0.74505805969E-08  0.93827000000E+00  0.93827000000E+00 0.  1.
     999902    2    1    2    0    0 -0.32792414926E-02  0.10906736989E-01 -0.48773242722E-02  0.10315405437E+01  0.10314661384E+01 0.  0.
     999903    2    3    3    0    0 -0.15647732020E-01  0.13353692948E+00  0.16414912621E-01  0.14269606737E+00  0.44897162877E-01 0.  0.
         14    1    1    2    0    0  0.32792414926E-02 -0.10906736989E-01  0.48773242722E-02  0.12389456347E-01  0.00000000000E+00 0. -1.
     999901    1    3    3    0    0  0.12368490528E-01 -0.12263019249E+00 -0.21292236894E-01  0.88884447628E+00  0.88000000000E+00 0.  1.
        -11    1    4    4    0    0 -0.28986279057E-01  0.78916738411E-01  0.19776823722E-01  0.86368048794E-01  0.51100000000E-03 0. -1.
         11    1    4    4    0    0  0.13338547037E-01  0.54620191068E-01 -0.33619111009E-02  0.56328018575E-01  0.51100000000E-03 0.  1.
</event>
<event>
 8    1  0.2924722E+004  0.1043930E+01  0.7957747E-01            NaN
         13   -1    0    0    0    0  0.00000000000E+00  0.00000000000E+00  0.74505805969E-08  0.10566000000E+00  0.10566000000E+00 0.  1.
     999900   -1    0    0    0    0 -0.00000000000E+00 -0.00000000000E+00 -0.74505805969E-08  0.93827000000E+00  0.93827000000E+00 0. -1.
     999902    2    1    2    0    0  0.11335999568E-01 -0.48889544411E-02 -0.63947743585E-02  0.10300267665E+01  0.10299329298E+01 0.  0.
     999903    2    3    3    0    0 -0.85300558865E-01 -0.91061185084E-01 -0.44663245700E-01  0.13972976347E+00  0.44286301630E-01 0.  0.
         14    1    1    2    0    0 -0.11335999568E-01  0.48889544411E-02  0.63947743585E-02  0.13903233467E-01  0.00000000000E+00 0. -1.
     999901    1    3    3    0    0  0.96636558433E-01  0.86172230642E-01  0.38268471342E-01  0.89029700306E+00  0.88000000000E+00 0.  1.
        -11    1    4    4    0    0 -0.28340576203E-01 -0.90466376225E-02  0.13467264614E-02  0.29784302996E-01  0.51100000000E-03 0.  1.
         11    1    4    4    0    0 -0.56959982663E-01 -0.82014547461E-01 -0.46009972162E-01  0.10994546048E+00  0.51100000000E-03 0. -1.
</event>
<event>
 8    1  0.2924722E+004  0.1043930E+01  0.7957747E-01            NaN
         13   -1    0    0    0    0  0.00000000000E+00  0.00000000000E+00  0.74505805969E-08  0.10566000000E+00  0.10566000000E+00 0.  1.
     999900   -1    0    0    0    0 -0.00000000000E+00 -0.00000000000E+00 -0.74505805969E-08  0.93827000000E+00  0.93827000000E+00 0. -1.
     999902    2    1    2    0    0 -0.94051765684E-02  0.87526440436E-02  0.49771666658E-02  0.10301518175E+01  0.10300596725E+01 0.  0.
     999903    2    3    3    0    0 -0.10957045746E+00  0.56995801616E-01 -0.52108865318E-01  0.14132151832E+00  0.44746297570E-01 0.  0.
         14    1    1    2    0    0  0.94051765684E-02 -0.87526440436E-02 -0.49771666658E-02  0.13778182466E-01  0.00000000000E+00 0. -1.
     999901    1    3    3    0    0  0.10016528089E+00 -0.48243157572E-01  0.57086031984E-01  0.88883029921E+00  0.88000000000E+00 0.  1.
        -11    1    4    4    0    0 -0.24805817967E-01  0.77087503748E-02  0.68995046858E-02  0.26881549867E-01  0.51100000000E-03 0. -1.
         11    1    4    4    0    0 -0.84764639494E-01  0.49287051241E-01 -0.59008370004E-01  0.11443996846E+00  0.51100000000E-03 0.  1.
</event>
<event>
 8    1  0.2924722E+004  0.1043930E+01  0.7957747E-01            NaN
         13   -1    0    0    0    0  0.00000000000E+00  0.00000000000E+00  0.74505805969E-08  0.10566000000E+00  0.10566000000E+00 0. -1.
     999900   -1    0    0    0    0 -0.00000000000E+00 -0.00000000000E+00 -0.74505805969E-08  0.93827000000E+00  0.93827000000E+00 0.  1.
     999902    2    1    2    0    0 -0.38983454590E-02 -0.64950327265E-02 -0.11030371146E-01  0.10305489823E+01  0.10304621067E+01 0.  0.
     999903    2    3    3    0    0  0.11673572786E-01  0.12824207245E+00 -0.22141732871E-01  0.14008840792E+00  0.50519345310E-01 0.  0.
         14    1    1    2    0    0  0.38983454590E-02  0.64950327265E-02  0.11030371146E-01  0.13381017713E-01  0.00000000000E+00 0. -1.
     999901    1    3    3    0    0 -0.15571918245E-01 -0.13473710517E+00  0.11111361725E-01  0.89046057437E+00  0.88000000000E+00 0.  1.
        -11    1    4    4    0    0 -0.18294561444E-01  0.63771319344E-01 -0.18597385645E-01  0.68902801272E-01  0.51100000000E-03 0. -1.
         11    1    4    4    0    0  0.29968134229E-01  0.64470753105E-01 -0.35443472252E-02  0.71185606644E-01  0.51100000000E-03 0.  1.
</event>
<event>
 8    1  0.2924722E+004  0.1043930E+01  0.7957747E-01            NaN
         13   -1    0    0    0    0  0.00000000000E+00  0.00000000000E+00  0.74505805969E-08  0.10566000000E+00  0.10566000000E+00 0. -1.
     999900   -1    0    0    0    0 -0.00000000000E+00 -0.00000000000E+00 -0.74505805969E-08  0.93827000000E+00  0.93827000000E+00 0. -1.
     999902    2    1    2    0    0 -0.40294105905E-02  0.23711008409E-01  0.30496213532E-02  0.10196864800E+01  0.10193982388E+01 0.  0.
     999903    2    3    3    0    0  0.36791116436E-02 -0.14816026457E-01  0.12214786815E+00  0.13079495341E+00  0.44205968403E-01 0.  0.
         14    1    1    2    0    0  0.40294105905E-02 -0.23711008409E-01 -0.30496213532E-02  0.24243519957E-01  0.00000000000E+00 0.  1.
     999901    1    3    3    0    0 -0.77085222342E-02  0.38527034866E-01 -0.11909824679E+00  0.88889152663E+00  0.88000000000E+00 0. -1.
        -11    1    4    4    0    0 -0.15032195529E-01  0.32694082324E-02  0.19201646940E-01  0.24609353889E-01  0.51100000000E-03 0. -1.
         11    1    4    4    0    0  0.18711307173E-01 -0.18085434689E-01  0.10294622121E+00  0.10618559952E+00  0.51100000000E-03 0.  1.
</event>
<event>
 8    1  0.2924722E+004  0.1043930E+01  0.7957747E-01            NaN
         13   -1    0    0    0    0  0.00000000000E+00  0.00000000000E+00  0.74505805969E-08  0.10566000000E+00  0.10566000000E+00 0. -1.
     999900   -1    0    0    0    0 -0.00000000000E+00 -0.00000000000E+00 -0.74505805969E-08  0.93827000000E+00  0.93827000000E+00 0. -1.
     999902    2    1    2    0    0  0.58284432948E-02 -0.14235481633E-01 -0.11747847277E-01  0.10245745975E+01  0.10243917582E+01 0.  0.
     999903    2    3    3    0    0  0.91446490536E-01  0.13962303200E-01  0.86847362541E-01  0.13449225277E+00  0.44590303123E-01 0.  0.
         14    1    1    2    0    0 -0.58284432948E-02  0.14235481633E-01  0.11747847277E-01  0.19355402455E-01  0.00000000000E+00 0. -1.
     999901    1    3    3    0    0 -0.85618047241E-01 -0.28197784833E-01 -0.98595209818E-01  0.89008234478E+00  0.88000000000E+00 0. -1.
        -11    1    4    4    0    0  0.19927223724E-01  0.16503347889E-01  0.44096547499E-01  0.51129456864E-01  0.51100000000E-03 0.  1.
         11    1    4    4    0    0  0.71519266811E-01 -0.25410446885E-02  0.42750815043E-01  0.83362795905E-01  0.51100000000E-03 0. -1.
</event>
<event>
 8    1  0.2924722E+004  0.1043930E+01  0.7957747E-01            NaN
         13   -1    0    0    0    0  0.00000000000E+00  0.00000000000E+00  0.74505805969E-08  0.10566000000E+00  0.10566000000E+00 0. -1.
     999900   -1    0    0    0    0 -0.00000000000E+00 -0.00000000000E+00 -0.74505805969E-08  0.93827000000E+00  0.93827000000E+00 0.  1.
     999902    2    1    2    0    0 -0.18355450573E-02 -0.12432153807E-01  0.75043192443E-02  0.10292929757E+01  0.10291888978E+01 0.  0.
     999903    2    3    3    0    0  0.92429844897E-01  0.89282104153E-01 -0.23068364622E-01  0.13790841050E+00  0.44407317999E-01 0.  0.
         14    1    1    2    0    0  0.18355450573E-02  0.12432153807E-01 -0.75043192443E-02  0.14637024331E-01  0.00000000000E+00 0.  1.
     999901    1    3    3    0    0 -0.94265389954E-01 -0.10171425796E+00  0.30572683866E-01  0.89138456516E+00  0.88000000000E+00 0.  1.
        -11    1    4    4    0    0  0.75773468321E-01  0.58348442559E-01  0.43077390849E-03  0.95637889655E-01  0.51100000000E-03 0. -1.
         11    1    4    4    0    0  0.16656376576E-01  0.30933661594E-01 -0.23499138530E-01  0.42270520850E-01  0.51100000000E-03 0.  1.
</event>
<event>
 8    1  0.2924722E+004  0.1043930E+01  0.7957747E-01            NaN
         13   -1    0    0    0    0  0.00000000000E+00  0.00000000000E+00  0.74505805969E-08  0.10566000000E+00  0.10566000000E+00 0. -1.
     999900   -1    0    0    0    0 -0.00000000000E+00 -0.00000000000E+00 -0.74505805969E-08  0.93827000000E+00  0.93827000000E+00 0.  1.
     999902    2    1    2    0    0  0.91050090921E-02  0.58491307931E-02 -0.97210665412E-02  0.10293830877E+01  0.10292802965E+01 0.  0.
     999903    2    3    3    0    0  0.93255352563E-02 -0.11143724240E-01 -0.13241583036E+00  0.14070833800E+00  0.45318164741E-01 0.  0.
         14    1    1    2    0    0 -0.91050090921E-02 -0.58491307931E-02  0.97210665412E-02  0.14546912260E-01  0.00000000000E+00 0. -1.
     999901    1    3    3    0    0 -0.22052616420E-03  0.16992855033E-01  0.12269476382E+00  0.88867474974E+00  0.88000000000E+00 0. -1.
        -11    1    4    4    0    0 -0.14837360231E-01 -0.13875178049E-01 -0.36695549661E-01  0.41946302703E-01  0.51100000000E-03 0. -1.
         11    1    4    4    0    0  0.24162895487E-01  0.27314538091E-02 -0.95720280699E-01  0.98762035298E-01  0.51100000000E-03 0.  1.
</event>
<event>
 8    1  0.2924722E+004  0.1043930E+01  0.7957747E-01            NaN
         13   -1    0    0    0    0  0.00000000000E+00  0.00000000000E+00  0.74505805969E-08  0.10566000000E+00  0.10566000000E+00 0.  1.
     999900   -1    0    0    0    0 -0.00000000000E+00 -0.00000000000E+00 -0.74505805969E-08  0.93827000000E+00  0.93827000000E+00 0. -1.
     999902    2    1    2    0    0 -0.47798376384E-02 -0.73428222708E-02 -0.50806421674E-02  0.10338019789E+01  0.10337523663E+01 0.  0.
     999903    2    3    3    0    0 -0.78413197045E-01 -0.10953581200E+00  0.25984207539E-01  0.14429070653E+00  0.44697934718E-01 0.  0.
         14    1    1    2    0    0  0.47798376384E-02  0.73428222708E-02  0.50806421674E-02  0.10128021109E-01  0.00000000000E+00 0.  1.
     999901    1    3    3    0    0  0.73633359407E-01  0.10219298973E+00 -0.31064849707E-01  0.88951127236E+00  0.88000000000E+00 0. -1.
        -11    1    4    4    0    0 -0.54619039307E-01 -0.49665026930E-01 -0.24543214054E-02  0.73865683300E-01  0.51100000000E-03 0. -1.
         11    1    4    4    0    0 -0.23794157738E-01 -0.59870785072E-01  0.28438528945E-01  0.70425023231E-01  0.51100000000E-03 0.  1.
</event>
<event>
 8    1  0.2924722E+004  0.1043930E+01  0.7957747E-01            NaN
         13   -1    0    0    0    0  0.00000000000E+00  0.00000000000E+00  0.74505805969E-08  0.10566000000E+00  0.10566000000E+00 0.  1.
     999900   -1    0    0    0    0 -0.00000000000E+00 -0.00000000000E+00 -0.74505805969E-08  0.93827000000E+00  0.93827000000E+00 0.  1.
     999902    2    1    2    0    0 -0.87775677073E-02 -0.14504149245E-01  0.93251759519E-02  0.10245812288E+01  0.10243985159E+01 0.  0.
     999903    2    3    3    0    0 -0.74089304278E-01 -0.21012120821E-01 -0.10124833162E+00  0.13523625794E+00  0.45900834158E-01 0.  0.
         14    1    1    2    0    0  0.87775677073E-02  0.14504149245E-01 -0.93251759519E-02  0.19348771194E-01  0.00000000000E+00 0. -1.
     999901    1    3    3    0    0  0.65311736571E-01  0.65079715763E-02  0.11057350757E+00  0.88934497087E+00  0.88000000000E+00 0. -1.
        -11    1    4    4    0    0 -0.20431731775E-01  0.88496017055E-02 -0.51827376193E-01  0.56410186648E-01  0.51100000000E-03 0.  1.
         11    1    4    4    0    0 -0.53657572503E-01 -0.29861722527E-01 -0.49420955426E-01  0.78826071292E-01  0.51100000000E-03 0. -1.
</event>
<event>
 8    1  0.2924722E+004  0.1043930E+01  0.7957747E-01            NaN
         13   -1    0    0    0    0  0.00000000000E+00  0.00000000000E+00  0.74505805969E-08  0.10566000000E+00  0.10566000000E+00 0.  1.
     999900   -1    0    0    0    0 -0.00000000000E+00 -0.00000000000E+00 -0.74505805969E-08  0.93827000000E+00  0.93827000000E+00 0. -1.
     999902    2    1    2    0    0  0.75247328990E-02  0.10168147397E-01  0.71103396889E-02  0.10294189781E+01  0.10293166970E+01 0.  0.
     999903    2    3    3    0    0 -0.58062949136E-01 -0.69537739766E-01  0.94939549509E-01  0.13904335926E+00  0.45964490430E-01 0.  0.
         14    1    1    2    0    0 -0.75247328990E-02 -0.10168147397E-01 -0.71103396889E-02  0.14511021920E-01  0.00000000000E+00 0. -1.
     999901    1    3    3    0    0  0.65587682035E-01  0.79705887163E-01 -0.87829209820E-01  0.89037561882E+00  0.88000000000E+00 0. -1.
        -11    1    4    4    0    0 -0.32229579379E-01 -0.67048322296E-01  0.60336648884E-01  0.95786197488E-01  0.51100000000E-03 0. -1.
         11    1    4    4    0    0 -0.25833369757E-01 -0.24894174704E-02  0.34602900625E-01  0.43257161777E-01  0.51100000000E-03 0.  1.
</event>
<event>
 8    1  0.2924722E+004  0.1043930E+01  0.7957747E-01            NaN
         13   -1    0    0    0    0  0.00000000000E+00  0.00000000000E+00  0.74505805969E-08  0.10566000000E+00  0.10566000000E+00 0.  1.
     999900   -1    0    0    0    0 -0.00000000000E+00 -0.00000000000E+00 -0.74505805969E-08  0.93827000000E+00  0.93827000000E+00 0. -1.
     999902    2    1    2    0    0  0.19550479847E-02  0.13115569452E-01  0.38704345631E-02  0.10301162156E+01  0.10300235905E+01 0.  0.
     999903    2    3    3    0    0  0.59356443284E-02  0.91528452947E-01  0.97639984605E-01  0.14165847666E+00  0.46052880931E-01 0.  0.
         14    1    1    2    0    0 -0.19550479847E-02 -0.13115569452E-01 -0.38704345631E-02  0.13813784361E-01  0.00000000000E+00 0. -1.
     999901    1    3    3    0    0 -0.39805963437E-02 -0.78412883496E-01 -0.93769550042E-01  0.88845773898E+00  0.88000000000E+00 0. -1.
        -11    1    4    4    0    0 -0.19473490856E-01  0.27122058434E-01  0.32066505123E-01  0.46296271682E-01  0.51100000000E-03 0. -1.
         11    1    4    4    0    0  0.25409135184E-01  0.64406394513E-01  0.65573479483E-01  0.95362204974E-01  0.51100000000E-03 0.  1.
</event>
<event>
 8    1  0.2924722E+004  0.1043930E+01  0.7957747E-01            NaN
         13   -1    0    0    0    0  0.00000000000E+00  0.00000000000E+00  0.74505805969E-08  0.10566000000E+00  0.10566000000E+00 0.  1.
     999900   -1    0    0    0    0 -0.00000000000E+00 -0.00000000000E+00 -0.74505805969E-08  0.93827000000E+00  0.93827000000E+00 0. -1.
     999902    2    1    2    0    0  0.23439996270E-02 -0.12201013622E-01 -0.65305019958E-02  0.10298940987E+01  0.10297984502E+01 0.  0.
     999903    2    3    3    0    0 -0.96111277123E-01 -0.31560190396E-01  0.85474751987E-01  0.13942613975E+00  0.43592338886E-01 0.  0.
         14    1    1    2    0    0 -0.23439996270E-02  0.12201013622E-01  0.65305019958E-02  0.14035901253E-01  0.00000000000E+00 0.  1.
     999901    1    3    3    0    0  0.98455276750E-01  0.19359176774E-01 -0.92005253983E-01  0.89046795900E+00  0.88000000000E+00 0. -1.
        -11    1    4    4    0    0 -0.67291574952E-01 -0.34147600813E-01  0.79995996951E-01  0.10997197529E+00  0.51100000000E-03 0.  1.
         11    1    4    4    0    0 -0.28819702171E-01  0.25874104177E-02  0.54787550355E-02  0.29454164453E-01  0.51100000000E-03 0. -1.
</event>
<event>
 8    1  0.2924722E+004  0.1043930E+01  0.7957747E-01            NaN
         13   -1    0    0    0    0  0.00000000000E+00  0.00000000000E+00  0.74505805969E-08  0.10566000000E+00  0.10566000000E+00 0.  1.
     999900   -1    0    0    0    0 -0.00000000000E+00 -0.00000000000E+00 -0.74505805969E-08  0.93827000000E+00  0.93827000000E+00 0. -1.
     999902    2    1    2    0    0 -0.86793259263E-02 -0.40968059602E-02  0.10363743027E-01  0.10298047854E+01  0.10297079073E+01 0.  0.
     999903    2    3    3    0    0 -0.27741770986E-02  0.10211381269E+00  0.84883150652E-01  0.14027192576E+00  0.45123575762E-01 0.  0.
         14    1    1    2    0    0  0.86793259263E-02  0.40968059602E-02 -0.10363743027E-01  0.14125214587E-01  0.00000000000E+00 0. -1.
     999901    1    3    3    0    0 -0.59051488277E-02 -0.10621061865E+00 -0.74519407625E-01  0.88953285966E+00  0.88000000000E+00 0.  1.
        -11    1    4    4    0    0 -0.62250788023E-02  0.44084243431E-02  0.23784322889E-01  0.24982813043E-01  0.51100000000E-03 0. -1.
         11    1    4    4    0    0  0.34509017038E-02  0.97705388348E-01  0.61098827763E-01  0.11528911271E+00  0.51100000000E-03 0.  1.
</event>
<event>
 8    1  0.2924722E+004  0.1043930E+01  0.7957747E-01            NaN
         13   -1    0    0    0    0  0.00000000000E+00  0.00000000000E+00  0.74505805969E-08  0.10566000000E+00  0.10566000000E+00 0. -1.
     999900   -1    0    0    0    0 -0.00000000000E+00 -0.00000000000E+00 -0.74505805969E-08  0.93827000000E+00  0.93827000000E+00 0. -1.
     999902    2    1    2    0    0  0.21015780516E-02 -0.87104592369E-02  0.10542094692E-01  0.10300943760E+01  0.10300014558E+01 0.  0.
     999903    2    3    3    0    0 -0.86006269818E-01 -0.33250745337E-01 -0.94142759771E-01  0.13918240660E+00  0.44790541151E-01 0.  0.
         14    1    1    2    0    0 -0.21015780516E-02  0.87104592369E-02 -0.10542094692E-01  0.13835623980E-01  0.00000000000E+00 0.  1.
     999901    1    3    3    0    0  0.88107847870E-01  0.24540286100E-01  0.10468485446E+00  0.89091196942E+00  0.88000000000E+00 0.  1.
        -11    1    4    4    0    0 -0.68489079806E-01 -0.42876065957E-01 -0.64324121811E-01  0.10328099947E+00  0.51100000000E-03 0.  1.
         11    1    4    4    0    0 -0.17517190012E-01  0.96253206197E-02 -0.29818637960E-01  0.35901407127E-01  0.51100000000E-03 0. -1.
</event>
<event>
 8    1  0.2924722E+004  0.1043930E+01  0.7957747E-01            NaN
         13   -1    0    0    0    0  0.00000000000E+00  0.00000000000E+00  0.74505805969E-08  0.10566000000E+00  0.10566000000E+00 0. -1.
     999900   -1    0    0    0    0 -0.00000000000E+00 -0.00000000000E+00 -0.74505805969E-08  0.93827000000E+00  0.93827000000E+00 0.  1.
     999902    2    1    2    0    0 -0.16981040689E-01  0.21044405248E-02  0.10316907051E-02  0.10267879815E+01  0.10266448802E+01 0.  0.
     999903    2    3    3    0    0 -0.44296224851E-03  0.12564305745E+00  0.32895674317E-01  0.13743393986E+00  0.44939830167E-01 0.  0.
         14    1    1    2    0    0  0.16981040689E-01 -0.21044405248E-02 -0.10316907051E-02  0.17142018508E-01  0.00000000000E+00 0.  1.
     999901    1    3    3    0    0 -0.16538078440E-01 -0.12353861693E+00 -0.31863983612E-01  0.88935404163E+00  0.88000000000E+00 0.  1.
        -11    1    4    4    0    0  0.18269725771E-01  0.24476096353E-01  0.69151297641E-02  0.31319998613E-01  0.51100000000E-03 0.  1.
         11    1    4    4    0    0 -0.18712688020E-01  0.10116696110E+00  0.25980544553E-01  0.10611394125E+00  0.51100000000E-03 0. -1.
</event>
<event>
 8    1  0.2924722E+004  0.1043930E+01  0.7957747E-01            NaN
         13   -1    0    0    0    0  0.00000000000E+00  0.00000000000E+00  0.74505805969E-08  0.10566000000E+00  0.10566000000E+00 0. -1.
     999900   -1    0    0    0    0 -0.00000000000E+00 -0.00000000000E+00 -0.74505805969E-08  0.93827000000E+00  0.93827000000E+00 0. -1.
     999902    2    1    2    0    0 -0.62962416603E-02  0.34113425810E-02 -0.13026865173E-01  0.10290646331E+01  0.10289572586E+01 0.  0.
     999903    2    3    3    0    0 -0.65222810637E-01 -0.22090984722E-01  0.11084730138E+00  0.13807219857E+00  0.45108548630E-01 0.  0.
         14    1    1    2    0    0  0.62962416603E-02 -0.34113425810E-02  0.13026865173E-01  0.14865366914E-01  0.00000000000E+00 0. -1.
     999901    1    3    3    0    0  0.58926568977E-01  0.25502327303E-01 -0.12387416656E+00  0.89099243452E+00  0.88000000000E+00 0. -1.
        -11    1    4    4    0    0 -0.43132406403E-02  0.99981732356E-02  0.29794511875E-01  0.31726039333E-01  0.51100000000E-03 0.  1.
         11    1    4    4    0    0 -0.60909569997E-01 -0.32089157958E-01  0.81052789509E-01  0.10634615923E+00  0.51100000000E-03 0. -1.
</event>
<event>
 8    1  0.2924722E+004  0.1043930E+01  0.7957747E-01            NaN
         13   -1    0    0    0    0  0.00000000000E+00  0.00000000000E+00  0.74505805969E-08  0.10566000000E+00  0.10566000000E+00 0.  1.
     999900   -1    0    0    0    0 -0.00000000000E+00 -0.00000000000E+00 -0.74505805969E-08  0.93827000000E+00  0.93827000000E+00 0. -1.
     999902    2    1    2    0    0  0.14175866653E-02 -0.17036828995E-02  0.13642273112E-01  0.10301088675E+01  0.10300161432E+01 0.  0.
     999903    2    3    3    0    0  0.23246518562E-01 -0.12998463311E+00  0.16752996996E-01  0.14053471038E+00  0.45088096456E-01 0.  0.
         14    1    1    2    0    0 -0.14175866653E-02  0.17036828995E-02 -0.13642273112E-01  0.13821132481E-01  0.00000000000E+00 0.  1.
     999901    1    3    3    0    0 -0.21828931897E-01  0.12828095021E+00 -0.31107238835E-02  0.88957415714E+00  0.88000000000E+00 0.  1.
        -11    1    4    4    0    0  0.26451454704E-01 -0.86451918640E-01 -0.72813002173E-02  0.90702216876E-01  0.51100000000E-03 0.  1.
         11    1    4    4    0    0 -0.32049361415E-02 -0.43532714471E-01  0.24034297213E-01  0.49832493500E-01  0.51100000000E-03 0. -1.
</event>
<event>
 8    1  0.2924722E+004  0.1043930E+01  0.7957747E-01            NaN
         13   -1    0    0    0    0  0.00000000000E+00  0.00000000000E+00  0.74505805969E-08  0.10566000000E+00  0.10566000000E+00 0. -1.
     999900   -1    0    0    0    0 -0.00000000000E+00 -0.00000000000E+00 -0.74505805969E-08  0.93827000000E+00  0.93827000000E+00 0. -1.
     999902    2    1    2    0    0 -0.33256019490E-02 -0.12732643302E-01 -0.38999854553E-02  0.10302044865E+01  0.10301130493E+01 0.  0.
     999903    2    3    3    0    0  0.12603828933E+00  0.31273333638E-01 -0.20803285004E-01  0.13949843854E+00  0.46511997536E-01 0.  0.
         14    1    1    2    0    0  0.33256019490E-02  0.12732643302E-01  0.38999854553E-02  0.13725513481E-01  0.00000000000E+00 0.  1.
     999901    1    3    3    0    0 -0.12936389128E+00 -0.44005976940E-01  0.16903299549E-01  0.89070604798E+00  0.88000000000E+00 0. -1.
        -11    1    4    4    0    0  0.89100236378E-01  0.12414033973E-02 -0.46785074751E-02  0.89233081075E-01  0.51100000000E-03 0. -1.
         11    1    4    4    0    0  0.36938052948E-01  0.30031930241E-01 -0.16124777529E-01  0.50265357464E-01  0.51100000000E-03 0.  1.
</event>
<event>
 8    1  0.2924722E+004  0.1043930E+01  0.7957747E-01            NaN
         13   -1    0    0    0    0  0.00000000000E+00  0.00000000000E+00  0.74505805969E-08  0.10566000000E+00  0.10566000000E+00 0. -1.
     999900   -1    0    0    0    0 -0.00000000000E+00 -0.00000000000E+00 -0.74505805969E-08  0.93827000000E+00  0.93827000000E+00 0. -1.
     999902    2    1    2    0    0  0.10349678885E-01  0.61314082888E-02  0.57931914142E-02  0.10305781804E+01  0.10304916859E+01 0.  0.
     999903    2    3    3    0    0  0.68918698191E-02 -0.10788901893E-01  0.13308779954E+00  0.14125137284E+00  0.45559737364E-01 0.  0.
         14    1    1    2    0    0 -0.10349678885E-01 -0.61314082888E-02 -0.57931914142E-02  0.13351819628E-01  0.00000000000E+00 0.  1.
     999901    1    3    3    0    0  0.34578090655E-02  0.16920310182E-01 -0.12729460813E+00  0.88932680753E+00  0.88000000000E+00 0. -1.
        -11    1    4    4    0    0 -0.10928775011E-01 -0.21639842951E-01  0.49817665263E-01  0.55405611805E-01  0.51100000000E-03 0. -1.
         11    1    4    4    0    0  0.17820644830E-01  0.10850941058E-01  0.83270134277E-01  0.85845761034E-01  0.51100000000E-03 0.  1.
</event>
<event>
 8    1  0.2924722E+004  0.1043930E+01  0.7957747E-01            NaN
         13   -1    0    0    0    0  0.00000000000E+00  0.00000000000E+00  0.74505805969E-08  0.10566000000E+00  0.10566000000E+00 0. -1.
     999900   -1    0    0    0    0 -0.00000000000E+00 -0.00000000000E+00 -0.74505805969E-08  0.93827000000E+00  0.93827000000E+00 0. -1.
     999902    2    1    2    0    0  0.46860108943E-02 -0.80443648379E-02 -0.82459737721E-02  0.10314934978E+01  0.10314185229E+01 0.  0.
     999903    2    3    3    0    0  0.10545491877E+00 -0.37606979759E-01 -0.76730899339E-01  0.14260739371E+00  0.43751720048E-01 0.  0.
         14    1    1    2    0    0 -0.46860108943E-02  0.80443648379E-02  0.82459737721E-02  0.12436502209E-01  0.00000000000E+00 0. -1.
     999901    1    3    3    0    0 -0.10076890788E+00  0.29562614921E-01  0.68484925567E-01  0.88888610408E+00  0.88000000000E+00 0. -1.
        -11    1    4    4    0    0  0.31119266554E-01  0.69711764780E-02 -0.31537942413E-01  0.44854308433E-01  0.51100000000E-03 0. -1.
         11    1    4    4    0    0  0.74335652221E-01 -0.44578156237E-01 -0.45192956926E-01  0.97753085278E-01  0.51100000000E-03 0.  1.
</event>
<event>
 8    1  0.2924722E+004  0.1043930E+01  0.7957747E-01            NaN
         13   -1    0    0    0    0  0.00000000000E+00  0.00000000000E+00  0.74505805969E-08  0.10566000000E+00  0.10566000000E+00 0.  1.
     999900   -1    0    0    0    0 -0.00000000000E+00 -0.00000000000E+00 -0.74505805969E-08  0.93827000000E+00  0.93827000000E+00 0.  1.
     999902    2    1    2    0    0 -0.29653633224E-02  0.83456671301E-02  0.92503034481E-02  0.10311232965E+01  0.10310437629E+01 0.  0.
     999903    2    3    3    0    0  0.58636895504E-01 -0.10081007133E+00 -0.61834659674E-01  0.13940423456E+00  0.44822533155E-01 0.  0.
         14    1    1    2    0    0  0.29653633224E-02 -0.83456671301E-02 -0.92503034481E-02  0.12806703454E-01  0.00000000000E+00 0. -1.
     999901    1    3    3    0    0 -0.61602258826E-01  0.10915573846E+00  0.71084963123E-01  0.89171906199E+00  0.88000000000E+00 0. -1.
        -11    1    4    4    0    0  0.32268490512E-01 -0.16428378225E-01 -0.13508353031E-01  0.38650793182E-01  0.51100000000E-03 0. -1.
         11    1    4    4    0    0  0.26368404992E-01 -0.84381693110E-01 -0.48326306644E-01  0.10075344137E+00  0.51100000000E-03 0.  1.
</event>
<event>
 8    1  0.2924722E+004  0.1043930E+01  0.7957747E-01            NaN
         13   -1    0    0    0    0  0.00000000000E+00  0.00000000000E+00  0.74505805969E-08  0.10566000000E+00  0.10566000000E+00 0.  1.
     999900   -1    0    0    0    0 -0.00000000000E+00 -0.00000000000E+00 -0.74505805969E-08  0.93827000000E+00  0.93827000000E+00 0. -1.
     999902    2    1    2    0    0  0.10542438988E-01  0.19699064197E-02 -0.87127887065E-02  0.10301120321E+01  0.10300193505E+01 0.  0.
     999903    2    3    3    0    0 -0.78574774913E-01  0.61082996901E-01 -0.87865825969E-01  0.14011122386E+00  0.44784192690E-01 0.  0.
         14    1    1    2    0    0 -0.10542438988E-01 -0.19699064197E-02  0.87127887065E-02  0.13817967946E-01  0.00000000000E+00 0.  1.
     999901    1    3    3    0    0  0.89117213901E-01 -0.59113090482E-01  0.79153037263E-01  0.89000080819E+00  0.88000000000E+00 0.  1.
        -11    1    4    4    0    0 -0.55132451264E-01  0.40014365116E-01 -0.30469829400E-01  0.74628467911E-01  0.51100000000E-03 0. -1.
         11    1    4    4    0    0 -0.23442323649E-01  0.21068631785E-01 -0.57395996570E-01  0.65482755948E-01  0.51100000000E-03 0.  1.
</event>
<event>
 8    1  0.2924722E+004  0.1043930E+01  0.7957747E-01            NaN
         13   -1    0    0    0    0  0.00000000000E+00  0.00000000000E+00  0.74505805969E-08  0.10566000000E+00  0.10566000000E+00 0. -1.
     999900   -1    0    0    0    0 -0.00000000000E+00 -0.00000000000E+00 -0.74505805969E-08  0.93827000000E+00  0.93827000000E+00 0. -1.
     999902    2    1    2    0    0  0.58342889509E-02 -0.11535886737E-01 -0.68503096522E-03  0.10309845422E+01  0.10309032648E+01 0.  0.
     999903    2    3    3    0    0 -0.12367218744E+00 -0.28630135825E-01  0.38269353387E-01  0.14048940754E+00  0.46456814347E-01 0.  0.
         14    1    1    2    0    0 -0.58342889509E-02  0.11535886737E-01  0.68503096522E-03  0.12945457806E-01  0.00000000000E+00 0. -1.
     999901    1    3    3    0    0  0.12950647639E+00  0.17094249088E-01 -0.38954384352E-01  0.89049513465E+00  0.88000000000E+00 0. -1.
        -11    1    4    4    0    0 -0.63102360714E-01  0.79362927718E-02  0.25850407398E-01  0.68654186721E-01  0.51100000000E-03 0.  1.
         11    1    4    4    0    0 -0.60569826726E-01 -0.36566428597E-01  0.12418945989E-01  0.71835220822E-01  0.51100000000E-03 0. -1.
</event>
<event>
 8    1  0.2924722E+004  0.1043930E+01  0.7957747E-01            NaN
         13   -1    0    0    0    0  0.00000000000E+00  0.00000000000E+00  0.74505805969E-08  0.10566000000E+00  0.10566000000E+00 0.  1.
     999900   -1    0    0    0    0 -0.00000000000E+00 -0.00000000000E+00 -0.74505805969E-08  0.93827000000E+00  0.93827000000E+00 0. -1.
     999902    2    1    2    0    0 -0.15840232844E-02  0.10585097719E-01  0.71214566830E-02  0.10310743176E+01  0.10309941707E+01 0.  0.
     999903    2    3    3    0    0 -0.90089668538E-01  0.71194504615E-01  0.71070340805E-01  0.14225700839E+00  0.44735413605E-01 0.  0.
         14    1    1    2    0    0  0.15840232844E-02 -0.10585097719E-01 -0.71214566830E-02  0.12855682354E-01  0.00000000000E+00 0.  1.
     999901    1    3    3    0    0  0.88505645253E-01 -0.60609406896E-01 -0.63948884122E-01  0.88881730925E+00  0.88000000000E+00 0.  1.
        -11    1    4    4    0    0 -0.83026316097E-01  0.61780634357E-01  0.77071040921E-01  0.12903651582E+00  0.51100000000E-03 0.  1.
         11    1    4    4    0    0 -0.70633524402E-02  0.94138702576E-02 -0.60007001157E-02  0.13220492570E-01  0.51100000000E-03 0. -1.
</event>
<event>
 8    1  0.2924722E+004  0.1043930E+01  0.7957747E-01            NaN
         13   -1    0    0    0    0  0.00000000000E+00  0.00000000000E+00  0.74505805969E-08  0.10566000000E+00  0.10566000000E+00 0. -1.
     999900   -1    0    0    0    0 -0.00000000000E+00 -0.00000000000E+00 -0.74505805969E-08  0.93827000000E+00  0.93827000000E+00 0.  1.
     999902    2    1    2    0    0  0.13405483151E-01  0.14640475774E-02 -0.26202742055E-02  0.10301925967E+01  0.10301009999E+01 0.  0.
     999903    2    3    3    0    0  0.21964614876E-01 -0.89186366768E-01 -0.96919545141E-01  0.14048303232E+00  0.43651252180E-01 0.  0.
         14    1    1    2    0    0 -0.13405483151E-01 -0.14640475774E-02  0.26202742055E-02  0.13737403348E-01  0.00000000000E+00 0. -1.
     999901    1    3    3    0    0 -0.85591317251E-02  0.90650414346E-01  0.94299270935E-01  0.88970956433E+00  0.88000000000E+00 0. -1.
        -11    1    4    4    0    0  0.14832387742E-01 -0.78924881981E-01 -0.56550651667E-01  0.98221046862E-01  0.51100000000E-03 0.  1.
         11    1    4    4    0    0  0.71322271345E-02 -0.10261484788E-01 -0.40368893474E-01  0.42261985462E-01  0.51100000000E-03 0. -1.
</event>
<event>
 8    1  0.2924722E+004  0.1043930E+01  0.7957747E-01            NaN
         13   -1    0    0    0    0  0.00000000000E+00  0.00000000000E+00  0.74505805969E-08  0.10566000000E+00  0.10566000000E+00 0. -1.
     999900   -1    0    0    0    0 -0.00000000000E+00 -0.00000000000E+00 -0.74505805969E-08  0.93827000000E+00  0.93827000000E+00 0. -1.
     999902    2    1    2    0    0  0.10286324409E-02 -0.34750871927E-03 -0.13421540058E-01  0.10304646153E+01  0.10303766335E+01 0.  0.
     999903    2    3    3    0    0  0.12682494007E+00 -0.37957146313E-01  0.13099560094E-01  0.14032835350E+00  0.44666967024E-01 0.  0.
         14    1    1    2    0    0 -0.10286324409E-02  0.34750871927E-03  0.13421540058E-01  0.13465384679E-01  0.00000000000E+00 0. -1.
     999901    1    3    3    0    0 -0.12579630762E+00  0.37609637593E-01 -0.26521100152E-01  0.89013626182E+00  0.88000000000E+00 0. -1.
        -11    1    4    4    0    0  0.29757529022E-01 -0.27600737202E-01 -0.54730851762E-02  0.40957624564E-01  0.51100000000E-03 0. -1.
         11    1    4    4    0    0  0.97067411044E-01 -0.10356409111E-01  0.18572645270E-01  0.99370728938E-01  0.51100000000E-03 0.  1.
</event>
<event>
 8    1  0.2924722E+004  0.1043930E+01  0.7957747E-01            NaN
         13   -1    0    0    0    0  0.00000000000E+00  0.00000000000E+00  0.74505805969E-08  0.10566000000E+00  0.10566000000E+00 0. -1.
     999900   -1    0    0    0    0 -0.00000000000E+00 -0.00000000000E+00 -0.74505805969E-08  0.93827000000E+00  0.93827000000E+00 0.  1.
     999902    2    1    2    0    0  0.10491873903E-01 -0.66363664450E-02  0.41074311922E-02  0.10308536179E+01  0.10307706776E+01 0.  0.
     999903    2    3    3    0    0  0.95713988334E-01  0.48794073696E-01  0.80828658954E-01  0.14168462988E+00  0.44712783916E-01 0.  0.
         14    1    1    2    0    0 -0.10491873903E-01  0.66363664450E-02 -0.41074311922E-02  0.13076382091E-01  0.00000000000E+00 0.  1.
     999901    1    3    3    0    0 -0.85222114431E-01 -0.55430440141E-01 -0.76721227761E-01  0.88916898803E+00  0.88000000000E+00 0.  1.
        -11    1    4    4    0    0  0.89483596105E-02  0.51999066847E-02  0.30708542644E-01  0.32409688082E-01  0.51100000000E-03 0.  1.
         11    1    4    4    0    0  0.86765628723E-01  0.43594167011E-01  0.50120116309E-01  0.10927494180E+00  0.51100000000E-03 0. -1.
</event>
<event>
 8    1  0.2924722E+004  0.1043930E+01  0.7957747E-01            NaN
         13   -1    0    0    0    0  0.00000000000E+00  0.00000000000E+00  0.74505805969E-08  0.10566000000E+00  0.10566000000E+00 0.  1.
     999900   -1    0    0    0    0 -0.00000000000E+00 -0.00000000000E+00 -0.74505805969E-08  0.93827000000E+00  0.93827000000E+00 0.  1.
     999902    2    1    2    0    0  0.93173253403E-02  0.99187919923E-02  0.30683012444E-02  0.10299797506E+01  0.10298852738E+01 0.  0.
     999903    2    3    3    0    0  0.81087602002E-01 -0.10336100178E+00 -0.14491738916E-01  0.13964743100E+00  0.45085458862E-01 0.  0.
         14    1    1    2    0    0 -0.93173253403E-02 -0.99187919923E-02 -0.30683012444E-02  0.13950249410E-01  0.00000000000E+00 0.  1.
     999901    1    3    3    0    0 -0.71770276662E-01  0.11327979378E+00  0.17560040160E-01  0.89033231959E+00  0.88000000000E+00 0.  1.
        -11    1    4    4    0    0  0.26856773143E-01 -0.60643410534E-01  0.85323726152E-02  0.66872804699E-01  0.51100000000E-03 0. -1.
         11    1    4    4    0    0  0.54230828859E-01 -0.42717591249E-01 -0.23024111531E-01  0.72774626304E-01  0.51100000000E-03 0.  1.
</event>
<event>
 8    1  0.2924722E+004  0.1043930E+01  0.7957747E-01            NaN
         13   -1    0    0    0    0  0.00000000000E+00  0.00000000000E+00  0.74505805969E-08  0.10566000000E+00  0.10566000000E+00 0. -1.
     999900   -1    0    0    0    0 -0.00000000000E+00 -0.00000000000E+00 -0.74505805969E-08  0.93827000000E+00  0.93827000000E+00 0.  1.
     999902    2    1    2    0    0 -0.29023001107E-03  0.18435700673E-02  0.14368486480E-01  0.10294408183E+01  0.10293388470E+01 0.  0.
     999903    2    3    3    0    0  0.11145881205E+00 -0.21072830460E-01  0.69390822672E-01  0.14037362884E+00  0.44972640953E-01 0.  0.
         14    1    1    2    0    0  0.29023001107E-03 -0.18435700673E-02 -0.14368486480E-01  0.14489181750E-01  0.00000000000E+00 0.  1.
     999901    1    3    3    0    0 -0.11174904206E+00  0.22916400528E-01 -0.55022336192E-01  0.88906718942E+00  0.88000000000E+00 0.  1.
        -11    1    4    4    0    0  0.57391759962E-01 -0.11224287084E-01  0.61473450880E-01  0.84847186259E-01  0.51100000000E-03 0. -1.
         11    1    4    4    0    0  0.54067052087E-01 -0.98485433768E-02  0.79173717924E-02  0.55526442576E-01  0.51100000000E-03 0.  1.
</event>
<event>
 8    1  0.2924722E+004  0.1043930E+01  0.7957747E-01            NaN
         13   -1    0    0    0    0  0.00000000000E+00  0.00000000000E+00  0.74505805969E-08  0.10566000000E+00  0.10566000000E+00 0.  1.
     999900   -1    0    0    0    0 -0.00000000000E+00 -0.00000000000E+00 -0.74505805969E-08  0.93827000000E+00  0.93827000000E+00 0.  1.
     999902    2    1    2    0    0  0.77899630556E-02 -0.11866389305E-01 -0.25035763315E-02  0.10295160271E+01  0.10294151191E+01 0.  0.
     999903    2    3    3    0    0 -0.67195961393E-01 -0.93470025778E-01  0.65405323275E-01  0.13996914191E+00  0.45404420797E-01 0.  0.
         14    1    1    2    0    0 -0.77899630556E-02  0.11866389305E-01  0.25035763315E-02  0.14413972874E-01  0.00000000000E+00 0. -1.
     999901    1    3    3    0    0  0.74985924449E-01  0.81603636472E-01 -0.67908899607E-01  0.88954688522E+00  0.88000000000E+00 0.  1.
        -11    1    4    4    0    0 -0.38602967031E-01 -0.85045355786E-01  0.55021560973E-01  0.10839988421E+00  0.51100000000E-03 0.  1.
         11    1    4    4    0    0 -0.28592994362E-01 -0.84246699918E-02  0.10383762302E-01  0.31569257698E-01  0.51100000000E-03 0. -1.
</event>
<event>
 8    1  0.2924722E+004  0.1043930E+01  0.7957747E-01            NaN
         13   -1    0    0    0    0  0.00000000000E+00  0.00000000000E+00  0.74505805969E-08  0.10566000000E+00  0.10566000000E+00 0. -1.
     999900   -1    0    0    0    0 -0.00000000000E+00 -0.00000000000E+00 -0.74505805969E-08  0.93827000000E+00  0.93827000000E+00 0. -1.
     999902    2    1    2    0    0 -0.13670275218E-01 -0.36928782849E-02  0.32441021681E-02  0.10294028539E+01  0.10293003438E+01 0.  0.
     999903    2    3    3    0    0  0.72848180530E-01 -0.10785856177E+00 -0.16771749516E-01  0.13882070323E+00  0.45272169265E-01 0.  0.
         14    1    1    2    0    0  0.13670275218E-01  0.36928782849E-02 -0.32441021681E-02  0.14527146087E-01  0.00000000000E+00 0.  1.
     999901    1    3    3    0    0 -0.86518455748E-01  0.10416568348E+00  0.20015851684E-01  0.89058215069E+00  0.88000000000E+00 0. -1.
        -11    1    4    4    0    0  0.35688423842E-01 -0.53446692636E-01 -0.31085730430E-01  0.71391850427E-01  0.51100000000E-03 0.  1.
         11    1    4    4    0    0  0.37159756689E-01 -0.54411869131E-01  0.14313980914E-01  0.67428852801E-01  0.51100000000E-03 0. -1.
</event>
<event>
 8    1  0.2924722E+004  0.1043930E+01  0.7957747E-01            NaN
         13   -1    0    0    0    0  0.00000000000E+00  0.00000000000E+00  0.74505805969E-08  0.10566000000E+00  0.10566000000E+00 0.  1.
     999900   -1    0    0    0    0 -0.00000000000E+00 -0.00000000000E+00 -0.74505805969E-08  0.93827000000E+00  0.93827000000E+00 0. -1.
     999902    2    1    2    0    0  0.36945096717E-03  0.11970091243E-01 -0.61676129323E-02  0.10304593271E+01  0.10303712757E+01 0.  0.
     999903    2    3    3    0    0 -0.42570644920E-02 -0.96363058697E-01 -0.88145813096E-01  0.14002241116E+00  0.50325238002E-01 0.  0.
         14    1    1    2    0    0 -0.36945096717E-03 -0.11970091243E-01  0.61676129323E-02  0.13470672873E-01  0.00000000000E+00 0. -1.
     999901    1    3    3    0    0  0.46265154591E-02  0.10833314994E+00  0.81978200164E-01  0.89043691597E+00  0.88000000000E+00 0.  1.
        -11    1    4    4    0    0  0.22596444875E-01 -0.35906338603E-01 -0.30197490757E-01  0.52077001084E-01  0.51100000000E-03 0. -1.
         11    1    4    4    0    0 -0.26853509367E-01 -0.60456720094E-01 -0.57948322339E-01  0.87945410072E-01  0.51100000000E-03 0.  1.
</event>
<event>
 8    1  0.2924722E+004  0.1043930E+01  0.7957747E-01            NaN
         13   -1    0    0    0    0  0.00000000000E+00  0.00000000000E+00  0.74505805969E-08  0.10566000000E+00  0.10566000000E+00 0. -1.
     999900   -1    0    0    0    0 -0.00000000000E+00 -0.00000000000E+00 -0.74505805969E-08  0.93827000000E+00  0.93827000000E+00 0. -1.
     999902    2    1    2    0    0  0.37108474540E-02  0.51083154397E-02  0.62938766262E-02  0.10350149476E+01  0.10349765522E+01 0.  0.
     999903    2    3    3    0    0 -0.94375360790E-01  0.23024631966E-02  0.10226612782E+00  0.14437503722E+00  0.38389847745E-01 0.  0.
         14    1    1    2    0    0 -0.37108474540E-02 -0.51083154397E-02 -0.62938766262E-02  0.89150523523E-02  0.00000000000E+00 0.  1.
     999901    1    3    3    0    0  0.98086208244E-01  0.28058522430E-02 -0.95972251198E-01  0.89063991043E+00  0.88000000000E+00 0. -1.
        -11    1    4    4    0    0 -0.18279976116E-01 -0.36815531972E-02  0.45723108618E-01  0.49381931346E-01  0.51100000000E-03 0.  1.
         11    1    4    4    0    0 -0.76095384674E-01  0.59840163938E-02  0.56543019206E-01  0.94993105870E-01  0.51100000000E-03 0. -1.
</event>
<event>
 8    1  0.2924722E+004  0.1043930E+01  0.7957747E-01            NaN
         13   -1    0    0    0    0  0.00000000000E+00  0.00000000000E+00  0.74505805969E-08  0.10566000000E+00  0.10566000000E+00 0.  1.
     999900   -1    0    0    0    0 -0.00000000000E+00 -0.00000000000E+00 -0.74505805969E-08  0.93827000000E+00  0.93827000000E+00 0. -1.
     999902    2    1    2    0    0  0.55647947322E-02  0.82136769015E-02  0.10215724476E-01  0.10296894784E+01  0.10295910011E+01 0.  0.
     999903    2    3    3    0    0  0.10115910029E+00  0.56956038924E-01  0.66485767454E-01  0.14138749887E+00  0.45748372876E-01 0.  0.
         14    1    1    2    0    0 -0.55647947322E-02 -0.82136769015E-02 -0.10215724476E-01  0.14240521592E-01  0.00000000000E+00 0. -1.
     999901    1    3    3    0    0 -0.95594305562E-01 -0.48742362023E-01 -0.56270042977E-01  0.88830197954E+00  0.88000000000E+00 0. -1.
        -11    1    4    4    0    0  0.47155991357E-01  0.13325092020E-01  0.61197644472E-02  0.49385810068E-01  0.51100000000E-03 0.  1.
         11    1    4    4    0    0  0.54003108938E-01  0.43630946904E-01  0.60366003006E-01  0.92001688804E-01  0.51100000000E-03 0. -1.
</event>
<event>
 8    1  0.2924722E+004  0.1043930E+01  0.7957747E-01            NaN
         13   -1    0    0    0    0  0.00000000000E+00  0.00000000000E+00  0.74505805969E-08  0.10566000000E+00  0.10566000000E+00 0.  1.
     999900   -1    0    0    0    0 -0.00000000000E+00 -0.00000000000E+00 -0.74505805969E-08  0.93827000000E+00  0.93827000000E+00 0.  1.
     999902    2    1    2    0    0  0.56396465293E-02 -0.80171864617E-02  0.92896838201E-02  0.10304252187E+01  0.10303367179E+01 0.  0.
     999903    2    3    3    0    0 -0.24264286581E-01  0.82509924974E-01  0.10157642158E+00  0.14047789159E+00  0.44940241222E-01 0.  0.
         14    1    1    2    0    0 -0.56396465293E-02  0.80171864617E-02 -0.92896838201E-02  0.13504781272E-01  0.00000000000E+00 0. -1.
     999901    1    3    3    0    0  0.29903933110E-01 -0.90527111436E-01 -0.92286737759E-01  0.88994732714E+00  0.88000000000E+00 0.  1.
        -11    1    4    4    0    0 -0.21125979055E-01  0.89687546784E-02  0.18510250240E-01  0.29489592002E-01  0.51100000000E-03 0. -1.
         11    1    4    4    0    0 -0.31383075262E-02  0.73541170296E-01  0.83066171339E-01  0.11098829958E+00  0.51100000000E-03 0.  1.
</event>
<event>
 8    1  0.2924722E+004  0.1043930E+01  0.7957747E-01            NaN
         13   -1    0    0    0    0  0.00000000000E+00  0.00000000000E+00  0.74505805969E-08  0.10566000000E+00  0.10566000000E+00 0.  1.
     999900   -1    0    0    0    0 -0.00000000000E+00 -0.00000000000E+00 -0.74505805969E-08  0.93827000000E+00  0.93827000000E+00 0. -1.
     999902    2    1    2    0    0  0.12034096869E-02  0.69916951827E-03 -0.14386369989E-01  0.10294764650E+01  0.10293749984E+01 0.  0.
     999903    2    3    3    0    0 -0.12132935451E+00 -0.27106708348E-01 -0.46635095918E-01  0.13996681048E+00  0.44275161894E-01 0.  0.
         14    1    1    2    0    0 -0.12034096869E-02 -0.69916951827E-03  0.14386369989E-01  0.14453535012E-01  0.00000000000E+00 0.  1.
     999901    1    3    3    0    0  0.12253276420E+00  0.27805877867E-01  0.32248725929E-01  0.88950965451E+00  0.88000000000E+00 0.  1.
        -11    1    4    4    0    0 -0.94419229117E-01 -0.35264252443E-01 -0.48355276681E-01  0.11179021528E+00  0.51100000000E-03 0. -1.
         11    1    4    4    0    0 -0.26910125392E-01  0.81575440947E-02  0.17201807637E-02  0.28176595201E-01  0.51100000000E-03 0.  1.
</event>
<event>
 8    1  0.2924722E+004  0.1043930E+01  0.7957747E-01            NaN
         13   -1    0    0    0    0  0.00000000000E+00  0.00000000000E+00  0.74505805969E-08  0.10566000000E+00  0.10566000000E+00 0.  1.
     999900   -1    0    0    0    0 -0.00000000000E+00 -0.00000000000E+00 -0.74505805969E-08  0.93827000000E+00  0.93827000000E+00 0. -1.
     999902    2    1    2    0    0 -0.48615661798E-02  0.94907556731E-02  0.10418191730E-01  0.10290220160E+01  0.10289140204E+01 0.  0.
     999903    2    3    3    0    0  0.11354651415E+00 -0.37480981538E-01 -0.51851831544E-01  0.13767226790E+00  0.44355451324E-01 0.  0.
         14    1    1    2    0    0  0.48615661798E-02 -0.94907556731E-02 -0.10418191730E-01  0.14907984032E-01  0.00000000000E+00 0. -1.
     999901    1    3    3    0    0 -0.11840808033E+00  0.46971737211E-01  0.62270023274E-01  0.89134974807E+00  0.88000000000E+00 0. -1.
        -11    1    4    4    0    0  0.46022403032E-01 -0.35637279763E-01 -0.12643184015E-01  0.59566672836E-01  0.51100000000E-03 0. -1.
         11    1    4    4    0    0  0.67524111115E-01 -0.18437017749E-02 -0.39208647529E-01  0.78105595063E-01  0.51100000000E-03 0.  1.
</event>
<event>
 8    1  0.2924722E+004  0.1043930E+01  0.7957747E-01            NaN
         13   -1    0    0    0    0  0.00000000000E+00  0.00000000000E+00  0.74505805969E-08  0.10566000000E+00  0.10566000000E+00 0. -1.
     999900   -1    0    0    0    0 -0.00000000000E+00 -0.00000000000E+00 -0.74505805969E-08  0.93827000000E+00  0.93827000000E+00 0.  1.
     999902    2    1    2    0    0  0.15466697372E-02 -0.11449508168E-01  0.66887797800E-02  0.10305799738E+01  0.10304935027E+01 0.  0.
     999903    2    3    3    0    0 -0.30669596429E-01 -0.41582606371E-01 -0.12232979216E+00  0.14007916902E+00  0.44585403953E-01 0.  0.
         14    1    1    2    0    0 -0.15466697372E-02  0.11449508168E-01 -0.66887797800E-02  0.13350026199E-01  0.00000000000E+00 0.  1.
     999901    1    3    3    0    0  0.32216266166E-01  0.30133098203E-01  0.12901857194E+00  0.89050080478E+00  0.88000000000E+00 0. -1.
        -11    1    4    4    0    0 -0.20441356076E-01 -0.45791930231E-02 -0.81004125576E-01  0.83670469870E-01  0.51100000000E-03 0.  1.
         11    1    4    4    0    0 -0.10228240353E-01 -0.37003413348E-01 -0.41325666582E-01  0.56408699149E-01  0.51100000000E-03 0. -1.
</event>
<event>
 8    1  0.2924722E+004  0.1043930E+01  0.7957747E-01            NaN
         13   -1    0    0    0    0  0.00000000000E+00  0.00000000000E+00  0.74505805969E-08  0.10566000000E+00  0.10566000000E+00 0. -1.
     999900   -1    0    0    0    0 -0.00000000000E+00 -0.00000000000E+00 -0.74505805969E-08  0.93827000000E+00  0.93827000000E+00 0.  1.
     999902    2    1    2    0    0 -0.13787492817E-02 -0.11404862693E-01 -0.74153328370E-02  0.10302567047E+01  0.10301659665E+01 0.  0.
     999903    2    3    3    0    0 -0.12673453468E-01 -0.13298618360E+00 -0.16070450271E-02  0.14180674882E+00  0.47546082546E-01 0.  0.
         14    1    1    2    0    0  0.13787492817E-02  0.11404862693E-01  0.74153328370E-02  0.13673295277E-01  0.00000000000E+00 0.  1.
     999901    1    3    3    0    0  0.11294704186E-01  0.12158132091E+00 -0.58082878099E-02  0.88844995590E+00  0.88000000000E+00 0. -1.
        -11    1    4    4    0    0  0.17348194523E-01 -0.39863489732E-01 -0.58582877683E-02  0.43870700056E-01  0.51100000000E-03 0. -1.
         11    1    4    4    0    0 -0.30021647991E-01 -0.93122693870E-01  0.42512427412E-02  0.97936048765E-01  0.51100000000E-03 0.  1.
</event>
<event>
 8    1  0.2924722E+004  0.1043930E+01  0.7957747E-01            NaN
         13   -1    0    0    0    0  0.00000000000E+00  0.00000000000E+00  0.74505805969E-08  0.10566000000E+00  0.10566000000E+00 0. -1.
     999900   -1    0    0    0    0 -0.00000000000E+00 -0.00000000000E+00 -0.74505805969E-08  0.93827000000E+00  0.93827000000E+00 0. -1.
     999902    2    1    2    0    0  0.10646014945E-01  0.46708928076E-02 -0.75266582888E-02  0.10300806152E+01  0.10299875089E+01 0.  0.
     999903    2    3    3    0    0 -0.80210168450E-01 -0.83852868921E-01  0.63949852927E-01  0.13811638157E+00  0.39007389296E-01 0.  0.
         14    1    1    2    0    0 -0.10646014945E-01 -0.46708928076E-02  0.75266582888E-02  0.13849384782E-01  0.00000000000E+00 0. -1.
     999901    1    3    3    0    0  0.90856183395E-01  0.88523761729E-01 -0.71476511216E-01  0.89196423365E+00  0.88000000000E+00 0.  1.
        -11    1    4    4    0    0 -0.17264930554E-01 -0.82809789565E-03  0.15460735539E-01  0.23196099620E-01  0.51100000000E-03 0.  1.
         11    1    4    4    0    0 -0.62945237896E-01 -0.83024771025E-01  0.48489117388E-01  0.11492028195E+00  0.51100000000E-03 0. -1.
</event>
<event>
 7    1  0.2924722E+004  0.1043930E+01  0.7957747E-01            NaN
         13   -1    0    0    0    0  0.00000000000E+00  0.00000000000E+00  0.74505805969E-08  0.10566000000E+00  0.10566000000E+00 0.  1.
     999900   -1    0    0    0    0 -0.00000000000E+00 -0.00000000000E+00 -0.74505805969E-08  0.93827000000E+00  0.93827000000E+00 0.  1.
     999902    2    1    2    0    0 -0.10694860498E-01 -0.19193479869E-02 -0.10036328340E-01  0.10291383867E+01  0.10290320827E+01 0.  0.
         14    1    1    2    0    0  0.10694860498E-01  0.19193479869E-02  0.10036328340E-01  0.14791613310E-01  0.00000000000E+00 0.  1.
     999901    1    3    3    0    0  0.45674758001E-01 -0.12295971765E+00  0.20354468576E-01  0.88995481912E+00  0.88000000000E+00 0. -1.
        -11    1    3    3    0    0 -0.26115058197E-02  0.12263238070E-01 -0.10214896362E-01  0.16180611833E-01  0.51100000000E-03 0.  1.
         11    1    3    3    0    0 -0.53758112680E-01  0.10877713159E+00 -0.20175900553E-01  0.12300295574E+00  0.51100000000E-03 0. -1.
</event>
<event>
 8    1  0.2924722E+004  0.1043930E+01  0.7957747E-01            NaN
         13   -1    0    0    0    0  0.00000000000E+00  0.00000000000E+00  0.74505805969E-08  0.10566000000E+00  0.10566000000E+00 0.  1.
     999900   -1    0    0    0    0 -0.00000000000E+00 -0.00000000000E+00 -0.74505805969E-08  0.93827000000E+00  0.93827000000E+00 0.  1.
     999902    2    1    2    0    0  0.32890225554E-02 -0.11746215042E-01 -0.48762922987E-02  0.10307934303E+01  0.10307097198E+01 0.  0.
     999903    2    3    3    0    0  0.41214364131E-01  0.49349033069E-01  0.11965433181E+00  0.13912149666E+00  0.30061284702E-01 0.  0.
         14    1    1    2    0    0 -0.32890225554E-02  0.11746215042E-01  0.48762922987E-02  0.13136569710E-01  0.00000000000E+00 0. -1.
     999901    1    3    3    0    0 -0.37925341576E-01 -0.61095248110E-01 -0.12453062411E+00  0.89167193363E+00  0.88000000000E+00 0.  1.
        -11    1    4    4    0    0  0.16661513070E-02 -0.25953005979E-02  0.18260210759E-01  0.18525875508E-01  0.51100000000E-03 0.  1.
         11    1    4    4    0    0  0.39548212824E-01  0.51944333667E-01  0.10139412105E+00  0.12059562116E+00  0.51100000000E-03 0. -1.
</event>
<event>
 8    1  0.2924722E+004  0.1043930E+01  0.7957747E-01            NaN
         13   -1    0    0    0    0  0.00000000000E+00  0.00000000000E+00  0.74505805969E-08  0.10566000000E+00  0.10566000000E+00 0. -1.
     999900   -1    0    0    0    0 -0.00000000000E+00 -0.00000000000E+00 -0.74505805969E-08  0.93827000000E+00  0.93827000000E+00 0. -1.
     999902    2    1    2    0    0  0.12610523754E-01 -0.96119805738E-03 -0.70352604944E-02  0.10294578163E+01  0.10293560858E+01 0.  0.
     999903    2    3    3    0    0 -0.18530680910E-02  0.13059746857E+00  0.17928126761E-01  0.13921063210E+00  0.44710733633E-01 0.  0.
         14    1    1    2    0    0 -0.12610523754E-01  0.96119805738E-03  0.70352604944E-02  0.14472183708E-01  0.00000000000E+00 0. -1.
     999901    1    3    3    0    0  0.14463591845E-01 -0.13155866663E+00 -0.24963387256E-01  0.89024718419E+00  0.88000000000E+00 0.  1.
        -11    1    4    4    0    0 -0.15517966839E-01  0.25939122838E-01  0.14694969231E-01  0.33613221061E-01  0.51100000000E-03 0. -1.
         11    1    4    4    0    0  0.13664898748E-01  0.10465834574E+00  0.32331575301E-02  0.10559741104E+00  0.51100000000E-03 0.  1.
</event>
<event>
 8    1  0.2924722E+004  0.1043930E+01  0.7957747E-01            NaN
         13   -1    0    0    0    0  0.00000000000E+00  0.00000000000E+00  0.74505805969E-08  0.10566000000E+00  0.10566000000E+00 0.  1.
     999900   -1    0    0    0    0 -0.00000000000E+00 -0.00000000000E+00 -0.74505805969E-08  0.93827000000E+00  0.93827000000E+00 0.  1.
     999902    2    1    2    0    0 -0.39854434640E-03  0.59654717882E-02 -0.12407721062E-01  0.10301569381E+01  0.10300648620E+01 0.  0.
     999903    2    3    3    0    0  0.23495777808E-01 -0.63037240373E-01 -0.11564327541E+00  0.14111819173E+00  0.44891331480E-01 0.  0.
         14    1    1    2    0    0  0.39854434640E-03 -0.59654717882E-02  0.12407721062E-01  0.13773061867E-01  0.00000000000E+00 0.  1.
     999901    1    3    3    0    0 -0.23894322154E-01  0.69002712161E-01  0.10323555435E+00  0.88903874640E+00  0.88000000000E+00 0. -1.
        -11    1    4    4    0    0 -0.12058946657E-01 -0.28766390091E-01 -0.38995413122E-01  0.49938229433E-01  0.51100000000E-03 0. -1.
         11    1    4    4    0    0  0.35554724465E-01 -0.34270850282E-01 -0.76647862288E-01  0.91179962301E-01  0.51100000000E-03 0.  1.
</event>
<event>
 8    1  0.2924722E+004  0.1043930E+01  0.7957747E-01            NaN
         13   -1    0    0    0    0  0.00000000000E+00  0.00000000000E+00  0.74505805969E-08  0.10566000000E+00  0.10566000000E+00 0. -1.
     999900   -1    0    0    0    0 -0.00000000000E+00 -0.00000000000E+00 -0.74505805969E-08  0.93827000000E+00  0.93827000000E+00 0.  1.
     999902    2    1    2    0    0  0.13155839096E-01  0.80302239785E-02 -0.19253293670E-02  0.10283972123E+01  0.10282799030E+01 0.  0.
     999903    2    3    3    0    0  0.17057248354E-01 -0.12152486708E+00 -0.44492122201E-01  0.13788518296E+00  0.44424449374E-01 0.  0.
         14    1    1    2    0    0 -0.13155839096E-01 -0.80302239785E-02  0.19253293670E-02  0.15532787665E-01  0.00000000000E+00 0. -1.
     999901    1    3    3    0    0 -0.39014092576E-02  0.12955509106E+00  0.42566792834E-01  0.89051202938E+00  0.88000000000E+00 0. -1.
        -11    1    4    4    0    0  0.30779994969E-01 -0.67079860721E-01 -0.31525814461E-01  0.80257422729E-01  0.51100000000E-03 0. -1.
         11    1    4    4    0    0 -0.13722746615E-01 -0.54445006355E-01 -0.12966307739E-01  0.57627760229E-01  0.51100000000E-03 0.  1.
</event>
<event>
 8    1  0.2924722E+004  0.1043930E+01  0.7957747E-01            NaN
         13   -1    0    0    0    0  0.00000000000E+00  0.00000000000E+00  0.74505805969E-08  0.10566000000E+00  0.10566000000E+00 0.  1.
     999900   -1    0    0    0    0 -0.00000000000E+00 -0.00000000000E+00 -0.74505805969E-08  0.93827000000E+00  0.93827000000E+00 0.  1.
     999902    2    1    2    0    0 -0.12140254770E-01 -0.61425509056E-03 -0.66277367387E-02  0.10300847846E+01  0.10299917347E+01 0.  0.
     999903    2    3    3    0    0  0.69959471396E-01 -0.10829426776E+00 -0.29729035562E-01  0.13942827383E+00  0.43982404667E-01 0.  0.
         14    1    1    2    0    0  0.12140254770E-01  0.61425509056E-03  0.66277367387E-02  0.13845215400E-01  0.00000000000E+00 0.  1.
     999901    1    3    3    0    0 -0.82099726166E-01  0.10768001267E+00  0.23101298823E-01  0.89065651077E+00  0.88000000000E+00 0. -1.
        -11    1    4    4    0    0  0.43726624890E-03 -0.30594030672E-01 -0.15162776120E-01  0.34151966491E-01  0.51100000000E-03 0. -1.
         11    1    4    4    0    0  0.69522205147E-01 -0.77700237090E-01 -0.14566259442E-01  0.10527630734E+00  0.51100000000E-03 0.  1.
</event>
<event>
 8    1  0.2924722E+004  0.1043930E+01  0.7957747E-01            NaN
         13   -1    0    0    0    0  0.00000000000E+00  0.00000000000E+00  0.74505805969E-08  0.10566000000E+00  0.10566000000E+00 0.  1.
     999900   -1    0    0    0    0 -0.00000000000E+00 -0.00000000000E+00 -0.74505805969E-08  0.93827000000E+00  0.93827000000E+00 0.  1.
     999902    2    1    2    0    0 -0.90197014785E-02 -0.51525846508E-02 -0.64317518920E-02  0.10317123253E+01  0.10316399811E+01 0.  0.
     999903    2    3    3    0    0  0.86773855864E-01 -0.10016722772E+00  0.16003316183E-01  0.14114648250E+00  0.45858999380E-01 0.  0.
         14    1    1    2    0    0  0.90197014785E-02  0.51525846508E-02  0.64317518920E-02  0.12217674727E-01  0.00000000000E+00 0.  1.
     999901    1    3    3    0    0 -0.95793557343E-01  0.95014643068E-01 -0.22435068075E-01  0.89056584277E+00  0.88000000000E+00 0.  1.
        -11    1    4    4    0    0  0.36638065874E-01 -0.64529795374E-01  0.26394896304E-01  0.78761627929E-01  0.51100000000E-03 0. -1.
         11    1    4    4    0    0  0.50135789990E-01 -0.35637432344E-01 -0.10391580121E-01  0.62384854576E-01  0.51100000000E-03 0.  1.
</event>
<event>
 8    1  0.2924722E+004  0.1043930E+01  0.7957747E-01            NaN
         13   -1    0    0    0    0  0.00000000000E+00  0.00000000000E+00  0.74505805969E-08  0.10566000000E+00  0.10566000000E+00 0.  1.
     999900   -1    0    0    0    0 -0.00000000000E+00 -0.00000000000E+00 -0.74505805969E-08  0.93827000000E+00  0.93827000000E+00 0. -1.
     999902    2    1    2    0    0  0.15038656408E-01 -0.84909084973E-02  0.30299755198E-02  0.10263961052E+01  0.10262463288E+01 0.  0.
     999903    2    3    3    0    0 -0.79290593139E-01 -0.95552203764E-01 -0.34034216960E-01  0.13631103582E+00  0.44778887398E-01 0.  0.
         14    1    1    2    0    0 -0.15038656408E-01  0.84909084973E-02 -0.30299755198E-02  0.17533894756E-01  0.00000000000E+00 0. -1.
     999901    1    3    3    0    0  0.94329249547E-01  0.87061295267E-01  0.37064192480E-01  0.89008506943E+00  0.88000000000E+00 0.  1.
        -11    1    4    4    0    0 -0.71192295440E-01 -0.55517771253E-01 -0.16132186255E-01  0.91711909855E-01  0.51100000000E-03 0.  1.
         11    1    4    4    0    0 -0.80982976994E-02 -0.40034432512E-01 -0.17902030705E-01  0.44599125961E-01  0.51100000000E-03 0. -1.
</event>
<event>
 8    1  0.2924722E+004  0.1043930E+01  0.7957747E-01            NaN
         13   -1    0    0    0    0  0.00000000000E+00  0.00000000000E+00  0.74505805969E-08  0.10566000000E+00  0.10566000000E+00 0. -1.
     999900   -1    0    0    0    0 -0.00000000000E+00 -0.00000000000E+00 -0.74505805969E-08  0.93827000000E+00  0.93827000000E+00 0. -1.
     999902    2    1    2    0    0 -0.10727787903E-01  0.17337449161E-02  0.96046061134E-02  0.10294269050E+01  0.10293247364E+01 0.  0.
     999903    2    3    3    0    0 -0.12201434516E+00 -0.32765348221E-01  0.43979337492E-01  0.14108209169E+00  0.44820821054E-01 0.  0.
         14    1    1    2    0    0  0.10727787903E-01 -0.17337449161E-02 -0.96046061134E-02  0.14503094956E-01  0.00000000000E+00 0. -1.
     999901    1    3    3    0    0  0.11128655726E+00  0.34499093137E-01 -0.34374731379E-01  0.88834481335E+00  0.88000000000E+00 0.  1.
        -11    1    4    4    0    0 -0.40299647677E-01 -0.23966178688E-02  0.35020157760E-01  0.53446028390E-01  0.51100000000E-03 0. -1.
         11    1    4    4    0    0 -0.81714697485E-01 -0.30368730353E-01  0.89591797322E-02  0.87636063300E-01  0.51100000000E-03 0.  1.
</event>
<event>
 8    1  0.2924722E+004  0.1043930E+01  0.7957747E-01            NaN
         13   -1    0    0    0    0  0.00000000000E+00  0.00000000000E+00  0.74505805969E-08  0.10566000000E+00  0.10566000000E+00 0. -1.
     999900   -1    0    0    0    0 -0.00000000000E+00 -0.00000000000E+00 -0.74505805969E-08  0.93827000000E+00  0.93827000000E+00 0.  1.
     999902    2    1    2    0    0  0.10905382392E-01  0.79432292441E-02  0.23651657648E-02  0.10302326913E+01  0.10301416320E+01 0.  0.
     999903    2    3    3    0    0 -0.23439264674E-01 -0.11583047299E+00 -0.58139072226E-01  0.13885160169E+00  0.43971786080E-01 0.  0.
         14    1    1    2    0    0 -0.10905382392E-01 -0.79432292441E-02 -0.23651657648E-02  0.13697308678E-01  0.00000000000E+00 0. -1.
     999901    1    3    3    0    0  0.34344647066E-01  0.12377370223E+00  0.60504237991E-01  0.89138108964E+00  0.88000000000E+00 0.  1.
        -11    1    4    4    0    0  0.97568444300E-02 -0.61785702036E-01 -0.25936119110E-01  0.67717149857E-01  0.51100000000E-03 0.  1.
         11    1    4    4    0    0 -0.33196109104E-01 -0.54044770949E-01 -0.32202953116E-01  0.71134451829E-01  0.51100000000E-03 0. -1.
</event>
<event>
 8    1  0.2924722E+004  0.1043930E+01  0.7957747E-01            NaN
         13   -1    0    0    0    0  0.00000000000E+00  0.00000000000E+00  0.74505805969E-08  0.10566000000E+00  0.10566000000E+00 0. -1.
     999900   -1    0    0    0    0 -0.00000000000E+00 -0.00000000000E+00 -0.74505805969E-08  0.93827000000E+00  0.93827000000E+00 0. -1.
     999902    2    1    2    0    0 -0.12084071894E-01 -0.25156828646E-02 -0.55344341388E-02  0.10304028638E+01  0.10303140678E+01 0.  0.
     999903    2    3    3    0    0  0.17980455328E-01  0.61090289533E-01 -0.11706188923E+00  0.14057817947E+00  0.44759561931E-01 0.  0.
         14    1    1    2    0    0  0.12084071894E-01  0.25156828646E-02  0.55344341388E-02  0.13527136247E-01  0.00000000000E+00 0.  1.
     999901    1    3    3    0    0 -0.30064527222E-01 -0.63605972398E-01  0.11152745509E+00  0.88982468428E+00  0.88000000000E+00 0.  1.
        -11    1    4    4    0    0  0.10621668247E-01  0.32103610170E-01 -0.10124315800E+00  0.10674221182E+00  0.51100000000E-03 0. -1.
         11    1    4    4    0    0  0.73587870810E-02  0.28986679363E-01 -0.15818731227E-01  0.33835967645E-01  0.51100000000E-03 0.  1.
</event>
<event>
 8    1  0.2924722E+004  0.1043930E+01  0.7957747E-01            NaN
         13   -1    0    0    0    0  0.00000000000E+00  0.00000000000E+00  0.74505805969E-08  0.10566000000E+00  0.10566000000E+00 0. -1.
     999900   -1    0    0    0    0 -0.00000000000E+00 -0.00000000000E+00 -0.74505805969E-08  0.93827000000E+00  0.93827000000E+00 0.  1.
     999902    2    1    2    0    0  0.11767210795E-01 -0.82271963935E-02  0.46182117819E-02  0.10288474972E+01  0.10287369395E+01 0.  0.
     999903    2    3    3    0    0 -0.90559070450E-01 -0.94487268295E-01 -0.27921778067E-02  0.13869785714E+00  0.45831323436E-01 0.  0.
         14    1    1    2    0    0 -0.11767210795E-01  0.82271963935E-02 -0.46182117819E-02  0.15082502792E-01  0.00000000000E+00 0. -1.
     999901    1    3    3    0    0  0.10232628125E+00  0.86260071902E-01  0.74103895886E-02  0.89014964007E+00  0.88000000000E+00 0. -1.
        -11    1    4    4    0    0 -0.62537407198E-01 -0.37292238088E-01  0.10688028632E-01  0.73594384281E-01  0.51100000000E-03 0.  1.
         11    1    4    4    0    0 -0.28021663252E-01 -0.57195030207E-01 -0.13480206438E-01  0.65103472860E-01  0.51100000000E-03 0. -1.
</event>
<event>
 8    1  0.2924722E+004  0.1043930E+01  0.7957747E-01            NaN
         13   -1    0    0    0    0  0.00000000000E+00  0.00000000000E+00  0.74505805969E-08  0.10566000000E+00  0.10566000000E+00 0.  1.
     999900   -1    0    0    0    0 -0.00000000000E+00 -0.00000000000E+00 -0.74505805969E-08  0.93827000000E+00  0.93827000000E+00 0.  1.
     999902    2    1    2    0    0  0.99688849928E-02 -0.15860879803E-02 -0.80593114364E-02  0.10310130792E+01  0.10309321620E+01 0.  0.
     999903    2    3    3    0    0 -0.11619283323E+00  0.54471634991E-02  0.61960616862E-01  0.13923449895E+00  0.44907477899E-01 0.  0.
         14    1    1    2    0    0 -0.99688849928E-02  0.15860879803E-02  0.80593114364E-02  0.12916920837E-01  0.00000000000E+00 0.  1.
     999901    1    3    3    0    0  0.12616171822E+00 -0.70332514794E-02 -0.70019928299E-01  0.89177858021E+00  0.88000000000E+00 0.  1.
        -11    1    4    4    0    0 -0.43952942062E-01 -0.19702114529E-01  0.25289740894E-01  0.54404655575E-01  0.51100000000E-03 0.  1.
         11    1    4    4    0    0 -0.72239891168E-01  0.25149278029E-01  0.36670875969E-01  0.84829843373E-01  0.51100000000E-03 0. -1.
</event>
<event>
 8    1  0.2924722E+004  0.1043930E+01  0.7957747E-01            NaN
         13   -1    0    0    0    0  0.00000000000E+00  0.00000000000E+00  0.74505805969E-08  0.10566000000E+00  0.10566000000E+00 0. -1.
     999900   -1    0    0    0    0 -0.00000000000E+00 -0.00000000000E+00 -0.74505805969E-08  0.93827000000E+00  0.93827000000E+00 0.  1.
     999902    2    1    2    0    0 -0.42119000300E-02 -0.66366192614E-02 -0.67175164258E-02  0.10335902783E+01  0.10335385593E+01 0.  0.
     999903    2    3    3    0    0  0.10687288591E+00 -0.62635160766E-01 -0.56020513638E-01  0.14347430171E+00  0.45843213184E-01 0.  0.
         14    1    1    2    0    0  0.42119000300E-02  0.66366192614E-02  0.67175164258E-02  0.10339721660E-01  0.00000000000E+00 0. -1.
     999901    1    3    3    0    0 -0.11108478594E+00  0.55998541505E-01  0.49302997212E-01  0.89011597663E+00  0.88000000000E+00 0.  1.
        -11    1    4    4    0    0  0.22023301255E-01 -0.15020570375E-01  0.69794509770E-02  0.27561153632E-01  0.51100000000E-03 0. -1.
         11    1    4    4    0    0  0.84849584658E-01 -0.47614590391E-01 -0.62999964615E-01  0.11591314808E+00  0.51100000000E-03 0.  1.
</event>
<event>
 8    1  0.2924722E+004  0.1043930E+01  0.7957747E-01            NaN
         13   -1    0    0    0    0  0.00000000000E+00  0.00000000000E+00  0.74505805969E-08  0.10566000000E+00  0.10566000000E+00 0.  1.
     999900   -1    0    0    0    0 -0.00000000000E+00 -0.00000000000E+00 -0.74505805969E-08  0.93827000000E+00  0.93827000000E+00 0. -1.
     999902    2    1    2    0    0  0.10812123572E-01 -0.25407881670E-02  0.86892185445E-02  0.10298282221E+01  0.10297316674E+01 0.  0.
     999903    2    3    3    0    0  0.90800961352E-01  0.63453827599E-01 -0.72825066520E-01  0.13999785505E+00  0.44996736387E-01 0.  0.
         14    1    1    2    0    0 -0.10812123572E-01  0.25407881670E-02 -0.86892185445E-02  0.14101777887E-01  0.00000000000E+00 0. -1.
     999901    1    3    3    0    0 -0.79988837779E-01 -0.65994615766E-01  0.81514285064E-01  0.88983036706E+00  0.88000000000E+00 0.  1.
        -11    1    4    4    0    0  0.58869343346E-01  0.64373361619E-01 -0.48234947670E-01  0.99681495624E-01  0.51100000000E-03 0.  1.
         11    1    4    4    0    0  0.31931618006E-01 -0.91953402007E-03 -0.24590118849E-01  0.40316359425E-01  0.51100000000E-03 0. -1.
</event>
<event>
 7    1  0.2924722E+004  0.1043930E+01  0.7957747E-01            NaN
         13   -1    0    0    0    0  0.00000000000E+00  0.00000000000E+00  0.74505805969E-08  0.10566000000E+00  0.10566000000E+00 0.  1.
     999900   -1    0    0    0    0 -0.00000000000E+00 -0.00000000000E+00 -0.74505805969E-08  0.93827000000E+00  0.93827000000E+00 0. -1.
     999903    2    1    2    0    0  0.14042576141E-01  0.28146155346E-02 -0.26015983165E-01  0.53815449574E-01  0.44879340765E-01 0.  0.
         14    1    1    2    0    0  0.58305319684E-01 -0.41905446172E-01  0.76400566015E-01  0.10484571145E+00  0.00000000000E+00 0. -1.
     999901    1    1    2    0    0 -0.72347895826E-01  0.39090830637E-01 -0.50384582850E-01  0.88526883897E+00  0.88000000000E+00 0. -1.
        -11    1    3    3    0    0  0.34889445903E-02  0.16508521950E-01 -0.31442803771E-01  0.35687743853E-01  0.51100000000E-03 0. -1.
         11    1    3    3    0    0  0.10553631551E-01 -0.13693906415E-01  0.54268206056E-02  0.18127705721E-01  0.51100000000E-03 0.  1.
</event>
<event>
 8    1  0.2924722E+004  0.1043930E+01  0.7957747E-01            NaN
         13   -1    0    0    0    0  0.00000000000E+00  0.00000000000E+00  0.74505805969E-08  0.10566000000E+00  0.10566000000E+00 0. -1.
     999900   -1    0    0    0    0 -0.00000000000E+00 -0.00000000000E+00 -0.74505805969E-08  0.93827000000E+00  0.93827000000E+00 0. -1.
     999902    2    1    2    0    0 -0.51022397868E-02 -0.30682474317E-02 -0.11716780544E-01  0.10307873237E+01  0.10307035349E+01 0.  0.
     999903    2    3    3    0    0  0.41933010270E-01 -0.76988177069E-01  0.98657076264E-01  0.13957530686E+00  0.45414654358E-01 0.  0.
         14    1    1    2    0    0  0.51022397868E-02  0.30682474317E-02  0.11716780544E-01  0.13142676267E-01  0.00000000000E+00 0. -1.
     999901    1    3    3    0    0 -0.47035250056E-01  0.73919929638E-01 -0.11037385681E+00  0.89121201687E+00  0.88000000000E+00 0. -1.
        -11    1    4    4    0    0  0.31041786086E-01 -0.80970906881E-01  0.82599739684E-01  0.11976167317E+00  0.51100000000E-03 0. -1.
         11    1    4    4    0    0  0.10891224184E-01  0.39827298112E-02  0.16057336580E-01  0.19813633690E-01  0.51100000000E-03 0.  1.
</event>
<event>
 8    1  0.2924722E+004  0.1043930E+01  0.7957747E-01            NaN
         13   -1    0    0    0    0  0.00000000000E+00  0.00000000000E+00  0.74505805969E-08  0.10566000000E+00  0.10566000000E+00 0. -1.
     999900   -1    0    0    0    0 -0.00000000000E+00 -0.00000000000E+00 -0.74505805969E-08  0.93827000000E+00  0.93827000000E+00 0. -1.
     999902    2    1    2    0    0  0.70498885688E-03  0.20549746484E-02 -0.10992446152E-01  0.10327249207E+01  0.10326641313E+01 0.  0.
     999903    2    3    3    0    0 -0.88222289986E-01 -0.68581910685E-01  0.73564748720E-01  0.14140704826E+00  0.45798800429E-01 0.  0.
         14    1    1    2    0    0 -0.70498885688E-03 -0.20549746484E-02  0.10992446152E-01  0.11205079317E-01  0.00000000000E+00 0. -1.
     999901    1    3    3    0    0  0.88927278843E-01  0.70636885333E-01 -0.84557194871E-01  0.89131787242E+00  0.88000000000E+00 0. -1.
        -11    1    4    4    0    0 -0.26523948628E-01 -0.36629057025E-01  0.51420920048E-01  0.68480506781E-01  0.51100000000E-03 0.  1.
         11    1    4    4    0    0 -0.61698341358E-01 -0.31952853660E-01  0.22143828672E-01  0.72926541482E-01  0.51100000000E-03 0. -1.
</event>
<event>
 8    1  0.2924722E+004  0.1043930E+01  0.7957747E-01            NaN
         13   -1    0    0    0    0  0.00000000000E+00  0.00000000000E+00  0.74505805969E-08  0.10566000000E+00  0.10566000000E+00 0. -1.
     999900   -1    0    0    0    0 -0.00000000000E+00 -0.00000000000E+00 -0.74505805969E-08  0.93827000000E+00  0.93827000000E+00 0. -1.
     999902    2    1    2    0    0 -0.86921915303E-02  0.51106826331E-02  0.95616203084E-02  0.10300340346E+01  0.10299402966E+01 0.  0.
     999903    2    3    3    0    0 -0.72852639672E-01 -0.11052203604E+00  0.68905216791E-02  0.14014942217E+00  0.45516521047E-01 0.  0.
         14    1    1    2    0    0  0.86921915303E-02 -0.51106826331E-02 -0.95616203084E-02  0.13895965368E-01  0.00000000000E+00 0.  1.
     999901    1    3    3    0    0  0.64160448142E-01  0.11563271867E+00  0.26710986293E-02  0.88988461246E+00  0.88000000000E+00 0. -1.
        -11    1    4    4    0    0 -0.56126113593E-01 -0.10474123009E+00  0.16552944573E-01  0.11997969413E+00  0.51100000000E-03 0. -1.
         11    1    4    4    0    0 -0.16726526079E-01 -0.57808059470E-02 -0.96624228941E-02  0.20169728041E-01  0.51100000000E-03 0.  1.
</event>
<event>
 8    1  0.2924722E+004  0.1043930E+01  0.7957747E-01            NaN
         13   -1    0    0    0    0  0.00000000000E+00  0.00000000000E+00  0.74505805969E-08  0.10566000000E+00  0.10566000000E+00 0. -1.
     999900   -1    0    0    0    0 -0.00000000000E+00 -0.00000000000E+00 -0.74505805969E-08  0.93827000000E+00  0.93827000000E+00 0. -1.
     999902    2    1    2    0    0 -0.11693555421E-01  0.40249613327E-02 -0.74021315277E-02  0.10295171202E+01  0.10294162276E+01 0.  0.
     999903    2    3    3    0    0  0.51843359271E-01  0.41997694468E-01 -0.11473222498E+00  0.13991124292E+00  0.44273380312E-01 0.  0.
         14    1    1    2    0    0  0.11693555421E-01 -0.40249613327E-02  0.74021315277E-02  0.14412879770E-01  0.00000000000E+00 0. -1.
     999901    1    3    3    0    0 -0.63536914692E-01 -0.37972733135E-01  0.10733009345E+00  0.88960587731E+00  0.88000000000E+00 0.  1.
        -11    1    4    4    0    0  0.41992188478E-01  0.36485536256E-01 -0.51935162226E-01  0.76105587479E-01  0.51100000000E-03 0. -1.
         11    1    4    4    0    0  0.98511707929E-02  0.55121582115E-02 -0.62797062755E-01  0.63805655438E-01  0.51100000000E-03 0.  1.
</event>
<event>
 8    1  0.2924722E+004  0.1043930E+01  0.7957747E-01            NaN
         13   -1    0    0    0    0  0.00000000000E+00  0.00000000000E+00  0.74505805969E-08  0.10566000000E+00  0.10566000000E+00 0. -1.
     999900   -1    0    0    0    0 -0.00000000000E+00 -0.00000000000E+00 -0.74505805969E-08  0.93827000000E+00  0.93827000000E+00 0. -1.
     999902    2    1    2    0    0 -0.13457117855E-02  0.94954897441E-02  0.13242103912E-01  0.10275798140E+01  0.10274497290E+01 0.  0.
     999903    2    3    3    0    0 -0.10582908827E+00 -0.60652100555E-01  0.46699932202E-01  0.13799739138E+00  0.44541252062E-01 0.  0.
         14    1    1    2    0    0  0.13457117855E-02 -0.94954897441E-02 -0.13242103912E-01  0.16350185984E-01  0.00000000000E+00 0.  1.
     999901    1    3    3    0    0  0.10448337648E+00  0.70147590299E-01 -0.33457828290E-01  0.88958242263E+00  0.88000000000E+00 0.  1.
        -11    1    4    4    0    0 -0.22621637451E-01 -0.37668616012E-02 -0.67445378780E-02  0.23909781251E-01  0.51100000000E-03 0.  1.
         11    1    4    4    0    0 -0.83207450817E-01 -0.56885238953E-01  0.53444470080E-01  0.11408761013E+00  0.51100000000E-03 0. -1.
</event>
<event>
 8    1  0.2924722E+004  0.1043930E+01  0.7957747E-01            NaN
         13   -1    0    0    0    0  0.00000000000E+00  0.00000000000E+00  0.74505805969E-08  0.10566000000E+00  0.10566000000E+00 0.  1.
     999900   -1    0    0    0    0 -0.00000000000E+00 -0.00000000000E+00 -0.74505805969E-08  0.93827000000E+00  0.93827000000E+00 0.  1.
     999902    2    1    2    0    0 -0.10255468611E-01 -0.68814112436E-02  0.27926329223E-02  0.10312679600E+01  0.10311902240E+01 0.  0.
     999903    2    3    3    0    0 -0.50670145395E-01 -0.12409502153E+00  0.16539506295E-01  0.14247025918E+00  0.45356162527E-01 0.  0.
         14    1    1    2    0    0  0.10255468611E-01  0.68814112436E-02 -0.27926329223E-02  0.12662039953E-01  0.00000000000E+00 0.  1.
     999901    1    3    3    0    0  0.40414676785E-01  0.11721361029E+00 -0.13746873373E-01  0.88879770087E+00  0.88000000000E+00 0.  1.
        -11    1    4    4    0    0 -0.73500973165E-02 -0.71411880243E-01 -0.18900061822E-02  0.71815832619E-01  0.51100000000E-03 0. -1.
         11    1    4    4    0    0 -0.43320048079E-01 -0.52683141290E-01  0.18429512477E-01  0.70654426562E-01  0.51100000000E-03 0.  1.
</event>
<event>
 7    1  0.2924722E+004  0.1043930E+01  0.7957747E-01            NaN
         13   -1    0    0    0    0  0.00000000000E+00  0.00000000000E+00  0.74505805969E-08  0.10566000000E+00  0.10566000000E+00 0.  1.
     999900   -1    0    0    0    0 -0.00000000000E+00 -0.00000000000E+00 -0.74505805969E-08  0.93827000000E+00  0.93827000000E+00 0.  1.
     999903    2    1    2    0    0 -0.59730713975E-01  0.26257662426E-01 -0.64550504138E-01  0.10237703354E+00  0.45354893708E-01 0.  0.
         14    1    1    2    0    0 -0.48528995605E-01 -0.18234912007E-01 -0.54285995210E-02  0.52125282955E-01  0.00000000000E+00 0. -1.
     999901    1    1    2    0    0  0.10825970958E+00 -0.80227504183E-02  0.69979103659E-01  0.88942768351E+00  0.88000000000E+00 0. -1.
        -11    1    3    3    0    0 -0.24397547610E-01  0.24066229443E-01 -0.72673347063E-02  0.35035681865E-01  0.51100000000E-03 0. -1.
         11    1    3    3    0    0 -0.35333166365E-01  0.21914329827E-02 -0.57283169432E-01  0.67341351672E-01  0.51100000000E-03 0.  1.
</event>
<event>
 8    1  0.2924722E+004  0.1043930E+01  0.7957747E-01            NaN
         13   -1    0    0    0    0  0.00000000000E+00  0.00000000000E+00  0.74505805969E-08  0.10566000000E+00  0.10566000000E+00 0.  1.
     999900   -1    0    0    0    0 -0.00000000000E+00 -0.00000000000E+00 -0.74505805969E-08  0.93827000000E+00  0.93827000000E+00 0. -1.
     999902    2    1    2    0    0 -0.57504054212E-02  0.74347199252E-02  0.10084042466E-01  0.10301448582E+01  0.10300526194E+01 0.  0.
     999903    2    3    3    0    0  0.57465619218E-01  0.52942886468E-01 -0.10585496701E+00  0.13912908226E+00  0.45236941448E-01 0.  0.
         14    1    1    2    0    0  0.57504054212E-02 -0.74347199252E-02 -0.10084042466E-01  0.13785141832E-01  0.00000000000E+00 0. -1.
     999901    1    3    3    0    0 -0.63216024639E-01 -0.45508166543E-01  0.11593900947E+00  0.89101577590E+00  0.88000000000E+00 0.  1.
        -11    1    4    4    0    0  0.18798808872E-01 -0.60422592759E-02 -0.23606028456E-01  0.30780022947E-01  0.51100000000E-03 0.  1.
         11    1    4    4    0    0  0.38666810345E-01  0.58985145744E-01 -0.82248938552E-01  0.10834905932E+00  0.51100000000E-03 0. -1.
</event>
<event>
 8    1  0.2924722E+004  0.1043930E+01  0.7957747E-01            NaN
         13   -1    0    0    0    0  0.00000000000E+00  0.00000000000E+00  0.74505805969E-08  0.10566000000E+00  0.10566000000E+00 0. -1.
     999900   -1    0    0    0    0 -0.00000000000E+00 -0.00000000000E+00 -0.74505805969E-08  0.93827000000E+00  0.93827000000E+00 0. -1.
     999902    2    1    2    0    0 -0.90954592373E-02 -0.79050297040E-02 -0.67968524649E-02  0.10300947524E+01  0.10300018373E+01 0.  0.
     999903    2    3    3    0    0 -0.23925779308E-01 -0.99978252679E-01 -0.86390738694E-01  0.14159455344E+00  0.44917300767E-01 0.  0.
         14    1    1    2    0    0  0.90954592373E-02  0.79050297040E-02  0.67968524649E-02  0.13835247623E-01  0.00000000000E+00 0.  1.
     999901    1    3    3    0    0  0.14830320071E-01  0.92073222975E-01  0.79593886229E-01  0.88850019893E+00  0.88000000000E+00 0.  1.
        -11    1    4    4    0    0 -0.34339099399E-01 -0.92959766614E-01 -0.72039166602E-01  0.12251773179E+00  0.51100000000E-03 0.  1.
         11    1    4    4    0    0  0.10413320091E-01 -0.70184860647E-02 -0.14351572092E-01  0.19076821655E-01  0.51100000000E-03 0. -1.
</event>
<event>
 8    1  0.2924722E+004  0.1043930E+01  0.7957747E-01            NaN
         13   -1    0    0    0    0  0.00000000000E+00  0.00000000000E+00  0.74505805969E-08  0.10566000000E+00  0.10566000000E+00 0.  1.
     999900   -1    0    0    0    0 -0.00000000000E+00 -0.00000000000E+00 -0.74505805969E-08  0.93827000000E+00  0.93827000000E+00 0.  1.
     999902    2    1    2    0    0  0.10129410596E-01  0.32195872632E-02  0.76171543158E-02  0.10308536190E+01  0.10307706787E+01 0.  0.
     999903    2    3    3    0    0  0.86934525698E-03  0.98757275753E-02  0.13405865273E+00  0.14174310528E+00  0.44956643193E-01 0.  0.
         14    1    1    2    0    0 -0.10129410596E-01 -0.32195872632E-02 -0.76171543158E-02  0.13076381037E-01  0.00000000000E+00 0. -1.
     999901    1    3    3    0    0  0.92600653389E-02 -0.66561403121E-02 -0.12644149841E+00  0.88911051368E+00  0.88000000000E+00 0.  1.
        -11    1    4    4    0    0 -0.13352941861E-01  0.23048065036E-01  0.76747219540E-01  0.81239837434E-01  0.51100000000E-03 0.  1.
         11    1    4    4    0    0  0.14222287118E-01 -0.13172337461E-01  0.57311433190E-01  0.60503267849E-01  0.51100000000E-03 0. -1.
</event>
<event>
 8    1  0.2924722E+004  0.1043930E+01  0.7957747E-01            NaN
         13   -1    0    0    0    0  0.00000000000E+00  0.00000000000E+00  0.74505805969E-08  0.10566000000E+00  0.10566000000E+00 0. -1.
     999900   -1    0    0    0    0 -0.00000000000E+00 -0.00000000000E+00 -0.74505805969E-08  0.93827000000E+00  0.93827000000E+00 0.  1.
     999902    2    1    2    0    0  0.27704266491E-02 -0.13029060329E-01  0.32866163649E-02  0.10302101777E+01  0.10301188168E+01 0.  0.
     999903    2    3    3    0    0  0.41049158466E-01  0.11605773905E+00 -0.45124435553E-01  0.13865407008E+00  0.45103262205E-01 0.  0.
         14    1    1    2    0    0 -0.27704266491E-02  0.13029060329E-01 -0.32866163649E-02  0.13719822302E-01  0.00000000000E+00 0. -1.
     999901    1    3    3    0    0 -0.38278731817E-01 -0.12908679938E+00  0.48411051918E-01  0.89155610762E+00  0.88000000000E+00 0. -1.
        -11    1    4    4    0    0  0.43117961563E-01  0.96873619924E-01 -0.21583711640E-01  0.10821171182E+00  0.51100000000E-03 0. -1.
         11    1    4    4    0    0 -0.20688030969E-02  0.19184119127E-01 -0.23540723913E-01  0.30442358257E-01  0.51100000000E-03 0.  1.
</event>
<event>
 8    1  0.2924722E+004  0.1043930E+01  0.7957747E-01            NaN
         13   -1    0    0    0    0  0.00000000000E+00  0.00000000000E+00  0.74505805969E-08  0.10566000000E+00  0.10566000000E+00 0.  1.
     999900   -1    0    0    0    0 -0.00000000000E+00 -0.00000000000E+00 -0.74505805969E-08  0.93827000000E+00  0.93827000000E+00 0.  1.
     999902    2    1    2    0    0 -0.10145716838E-01 -0.85895894104E-02  0.35460413047E-02  0.10301716925E+01  0.10300798149E+01 0.  0.
     999903    2    3    3    0    0  0.14928417644E-02  0.13149530600E+00  0.15622362605E-03  0.13900912325E+00  0.45058493814E-01 0.  0.
         14    1    1    2    0    0  0.10145716838E-01  0.85895894104E-02 -0.35460413047E-02  0.13758307502E-01  0.00000000000E+00 0.  1.
     999901    1    3    3    0    0 -0.11638558602E-01 -0.14008489541E+00  0.33898176787E-02  0.89116256925E+00  0.88000000000E+00 0.  1.
        -11    1    4    4    0    0 -0.13354459865E-01  0.64627211007E-01 -0.17492634313E-01  0.68273504210E-01  0.51100000000E-03 0.  1.
         11    1    4    4    0    0  0.14847301630E-01  0.66868094990E-01  0.17648857940E-01  0.70735619039E-01  0.51100000000E-03 0. -1.
</event>
<event>
 8    1  0.2924722E+004  0.1043930E+01  0.7957747E-01            NaN
         13   -1    0    0    0    0  0.00000000000E+00  0.00000000000E+00  0.74505805969E-08  0.10566000000E+00  0.10566000000E+00 0.  1.
     999900   -1    0    0    0    0 -0.00000000000E+00 -0.00000000000E+00 -0.74505805969E-08  0.93827000000E+00  0.93827000000E+00 0.  1.
     999902    2    1    2    0    0 -0.48578102941E-02  0.76881795949E-03  0.12552016261E-01  0.10304488089E+01  0.10303606190E+01 0.  0.
     999903    2    3    3    0    0 -0.11070936857E+00  0.74282446630E-01  0.75038057113E-02  0.14104772364E+00  0.45428042843E-01 0.  0.
         14    1    1    2    0    0  0.48578102941E-02 -0.76881795949E-03 -0.12552016261E-01  0.13481191124E-01  0.00000000000E+00 0. -1.
     999901    1    3    3    0    0  0.10585155828E+00 -0.73513628670E-01  0.50482105498E-02  0.88940108524E+00  0.88000000000E+00 0. -1.
        -11    1    4    4    0    0 -0.55261805980E-01  0.10388860707E-01  0.40460316177E-02  0.56377540917E-01  0.51100000000E-03 0. -1.
         11    1    4    4    0    0 -0.55447562593E-01  0.63893585923E-01  0.34577740936E-02  0.84670182722E-01  0.51100000000E-03 0.  1.
</event>
<event>
 8    1  0.2924722E+004  0.1043930E+01  0.7957747E-01            NaN
         13   -1    0    0    0    0  0.00000000000E+00  0.00000000000E+00  0.74505805969E-08  0.10566000000E+00  0.10566000000E+00 0. -1.
     999900   -1    0    0    0    0 -0.00000000000E+00 -0.00000000000E+00 -0.74505805969E-08  0.93827000000E+00  0.93827000000E+00 0.  1.
     999902    2    1    2    0    0  0.12717524461E-01 -0.27442063439E-02 -0.18540756788E-02  0.10307883223E+01  0.10307045462E+01 0.  0.
     999903    2    3    3    0    0  0.10963249993E+00  0.74019673604E-01  0.18877015973E-01  0.14190419940E+00  0.47773035855E-01 0.  0.
         14    1    1    2    0    0 -0.12717524461E-01  0.27442063439E-02  0.18540756788E-02  0.13141677727E-01  0.00000000000E+00 0. -1.
     999901    1    3    3    0    0 -0.96914975465E-01 -0.76763879948E-01 -0.20731091651E-01  0.88888412287E+00  0.88000000000E+00 0. -1.
        -11    1    4    4    0    0  0.10721295184E+00  0.58875946812E-01  0.25901297639E-01  0.12502852673E+00  0.51100000000E-03 0.  1.
         11    1    4    4    0    0  0.24195480810E-02  0.15143726792E-01 -0.70242816663E-02  0.16875672668E-01  0.51100000000E-03 0. -1.
</event>
<event>
 8    1  0.2924722E+004  0.1043930E+01  0.7957747E-01            NaN
         13   -1    0    0    0    0  0.00000000000E+00  0.00000000000E+00  0.74505805969E-08  0.10566000000E+00  0.10566000000E+00 0.  1.
     999900   -1    0    0    0    0 -0.00000000000E+00 -0.00000000000E+00 -0.74505805969E-08  0.93827000000E+00  0.93827000000E+00 0.  1.
     999902    2    1    2    0    0  0.60587339358E-02  0.17670797940E-02 -0.13864101784E-01  0.10286970047E+01  0.10285842130E+01 0.  0.
     999903    2    3    3    0    0  0.13604175111E-01 -0.13059841958E-01  0.12747508552E+00  0.13726358757E+00  0.47283844924E-01 0.  0.
         14    1    1    2    0    0 -0.60587339358E-02 -0.17670797940E-02  0.13864101784E-01  0.15232995313E-01  0.00000000000E+00 0.  1.
     999901    1    3    3    0    0 -0.75454411747E-02  0.14826921752E-01 -0.14133918731E+00  0.89143341712E+00  0.88000000000E+00 0.  1.
        -11    1    4    4    0    0  0.16455292899E-01  0.13153950629E-01  0.32817962249E-01  0.39001062149E-01  0.51100000000E-03 0. -1.
         11    1    4    4    0    0 -0.28511177889E-02 -0.26213792587E-01  0.94657123271E-01  0.98262525418E-01  0.51100000000E-03 0.  1.
</event>
<event>
 8    1  0.2924722E+004  0.1043930E+01  0.7957747E-01            NaN
         13   -1    0    0    0    0  0.00000000000E+00  0.00000000000E+00  0.74505805969E-08  0.10566000000E+00  0.10566000000E+00 0.  1.
     999900   -1    0    0    0    0 -0.00000000000E+00 -0.00000000000E+00 -0.74505805969E-08  0.93827000000E+00  0.93827000000E+00 0.  1.
     999902    2    1    2    0    0  0.41164032253E-03  0.65936615296E-02  0.14735193527E-01  0.10277815713E+01  0.10276547020E+01 0.  0.
     999903    2    3    3    0    0  0.99375030121E-01  0.84250723572E-01 -0.16454477240E-01  0.13828892529E+00  0.43353154467E-01 0.  0.
         14    1    1    2    0    0 -0.41164032253E-03 -0.65936615296E-02 -0.14735193527E-01  0.16148428667E-01  0.00000000000E+00 0. -1.
     999901    1    3    3    0    0 -0.98963389798E-01 -0.77657062042E-01  0.31189670767E-01  0.88949264604E+00  0.88000000000E+00 0.  1.
        -11    1    4    4    0    0  0.26783708075E-01  0.34827484875E-01 -0.24139756885E-01  0.50132920366E-01  0.51100000000E-03 0. -1.
         11    1    4    4    0    0  0.72591322045E-01  0.49423238697E-01  0.76852796450E-02  0.88156004922E-01  0.51100000000E-03 0.  1.
</event>
<event>
 7    1  0.2924722E+004  0.1043930E+01  0.7957747E-01            NaN
         13   -1    0    0    0    0  0.00000000000E+00  0.00000000000E+00  0.74505805969E-08  0.10566000000E+00  0.10566000000E+00 0. -1.
     999900   -1    0    0    0    0 -0.00000000000E+00 -0.00000000000E+00 -0.74505805969E-08  0.93827000000E+00  0.93827000000E+00 0. -1.
     999903    2    1    2    0    0 -0.37967274457E-02  0.26313854948E-01  0.11683554748E+00  0.12861092442E+00  0.46726765590E-01 0.  0.
         14    1    1    2    0    0  0.81910980101E-02  0.24135102739E-02 -0.29276464444E-01  0.30496401244E-01  0.00000000000E+00 0.  1.
     999901    1    1    2    0    0 -0.43943705644E-02 -0.28727365222E-01 -0.87559083036E-01  0.88482267434E+00  0.88000000000E+00 0. -1.
        -11    1    3    3    0    0  0.12477259994E-01  0.28930914679E-01  0.45187196900E-01  0.55089234210E-01  0.51100000000E-03 0. -1.
         11    1    3    3    0    0 -0.16273987440E-01 -0.26170597310E-02  0.71648350581E-01  0.73521690206E-01  0.51100000000E-03 0.  1.
</event>
<event>
 8    1  0.2924722E+004  0.1043930E+01  0.7957747E-01            NaN
         13   -1    0    0    0    0  0.00000000000E+00  0.00000000000E+00  0.74505805969E-08  0.10566000000E+00  0.10566000000E+00 0. -1.
     999900   -1    0    0    0    0 -0.00000000000E+00 -0.00000000000E+00 -0.74505805969E-08  0.93827000000E+00  0.93827000000E+00 0. -1.
     999902    2    1    2    0    0  0.76599562351E-02  0.23914564060E-02  0.12459320202E-01  0.10291101264E+01  0.10290034128E+01 0.  0.
     999903    2    3    3    0    0 -0.26845326463E-01 -0.33189502652E-01 -0.12277546624E+00  0.13740105578E+00  0.44531116982E-01 0.  0.
         14    1    1    2    0    0 -0.76599562351E-02 -0.23914564060E-02 -0.12459320202E-01  0.14819873588E-01  0.00000000000E+00 0.  1.
     999901    1    3    3    0    0  0.34505282698E-01  0.35580959058E-01  0.13523478644E+00  0.89170907063E+00  0.88000000000E+00 0.  1.
        -11    1    4    4    0    0 -0.57676398283E-02  0.58487450104E-02 -0.59812448393E-01  0.60376018345E-01  0.51100000000E-03 0. -1.
         11    1    4    4    0    0 -0.21077686635E-01 -0.39038247663E-01 -0.62963017849E-01  0.77025037436E-01  0.51100000000E-03 0.  1.
</event>
<event>
 8    1  0.2924722E+004  0.1043930E+01  0.7957747E-01            NaN
         13   -1    0    0    0    0  0.00000000000E+00  0.00000000000E+00  0.74505805969E-08  0.10566000000E+00  0.10566000000E+00 0.  1.
     999900   -1    0    0    0    0 -0.00000000000E+00 -0.00000000000E+00 -0.74505805969E-08  0.93827000000E+00  0.93827000000E+00 0.  1.
     999902    2    1    2    0    0  0.15245383372E-01 -0.35444171894E-02 -0.77190448349E-02  0.10264781158E+01  0.10263297492E+01 0.  0.
     999903    2    3    3    0    0  0.88303255174E-03  0.39251615486E-01 -0.12441314273E+00  0.13762757159E+00  0.43832058054E-01 0.  0.
         14    1    1    2    0    0 -0.15245383372E-01  0.35444171894E-02  0.77190448349E-02  0.17451884154E-01  0.00000000000E+00 0. -1.
     999901    1    3    3    0    0  0.14362350820E-01 -0.42796032675E-01  0.11669409790E+00  0.88885054425E+00  0.88000000000E+00 0. -1.
        -11    1    4    4    0    0 -0.10029106923E-01  0.44545571962E-01 -0.86421922956E-01  0.97744057904E-01  0.51100000000E-03 0.  1.
         11    1    4    4    0    0  0.10912139475E-01 -0.52939564757E-02 -0.37991219776E-01  0.39883513689E-01  0.51100000000E-03 0. -1.
</event>
<event>
 8    1  0.2924722E+004  0.1043930E+01  0.7957747E-01            NaN
         13   -1    0    0    0    0  0.00000000000E+00  0.00000000000E+00  0.74505805969E-08  0.10566000000E+00  0.10566000000E+00 0. -1.
     999900   -1    0    0    0    0 -0.00000000000E+00 -0.00000000000E+00 -0.74505805969E-08  0.93827000000E+00  0.93827000000E+00 0.  1.
     999902    2    1    2    0    0  0.99167431186E-02 -0.90290224167E-03  0.99382643545E-02  0.10298613780E+01  0.10297652799E+01 0.  0.
     999903    2    3    3    0    0 -0.30642824679E-01  0.44052937175E-01  0.12060954247E+00  0.14086518125E+00  0.49159877700E-01 0.  0.
         14    1    1    2    0    0 -0.99167431186E-02  0.90290224167E-03 -0.99382643545E-02  0.14068621998E-01  0.00000000000E+00 0.  1.
     999901    1    3    3    0    0  0.40559567798E-01 -0.44955839417E-01 -0.11067127812E+00  0.88899619675E+00  0.88000000000E+00 0.  1.
        -11    1    4    4    0    0  0.13111748137E-01  0.48635171837E-02  0.25102859506E-01  0.28739979384E-01  0.51100000000E-03 0. -1.
         11    1    4    4    0    0 -0.43754572816E-01  0.39189419992E-01  0.95506682966E-01  0.11212520187E+00  0.51100000000E-03 0.  1.
</event>
<event>
 8    1  0.2924722E+004  0.1043930E+01  0.7957747E-01            NaN
         13   -1    0    0    0    0  0.00000000000E+00  0.00000000000E+00  0.74505805969E-08  0.10566000000E+00  0.10566000000E+00 0. -1.
     999900   -1    0    0    0    0 -0.00000000000E+00 -0.00000000000E+00 -0.74505805969E-08  0.93827000000E+00  0.93827000000E+00 0. -1.
     999902    2    1    2    0    0  0.63933898080E-02 -0.11659679513E-01 -0.23219871294E-02  0.10304312895E+01  0.10303428688E+01 0.  0.
     999903    2    3    3    0    0  0.11395263923E+00  0.55283213364E-01  0.40807619376E-01  0.14031303561E+00  0.44508970949E-01 0.  0.
         14    1    1    2    0    0 -0.63933898080E-02  0.11659679513E-01  0.23219871294E-02  0.13498710450E-01  0.00000000000E+00 0.  1.
     999901    1    3    3    0    0 -0.10755924942E+00 -0.66942892877E-01 -0.43129606505E-01  0.89011825394E+00  0.88000000000E+00 0.  1.
        -11    1    4    4    0    0  0.84276098761E-01  0.17308629874E-01  0.27104530712E-01  0.90205133982E-01  0.51100000000E-03 0. -1.
         11    1    4    4    0    0  0.29676540470E-01  0.37974583490E-01  0.13703088664E-01  0.50107901627E-01  0.51100000000E-03 0.  1.
</event>
<event>
 8    1  0.2924722E+004  0.1043930E+01  0.7957747E-01            NaN
         13   -1    0    0    0    0  0.00000000000E+00  0.00000000000E+00  0.74505805969E-08  0.10566000000E+00  0.10566000000E+00 0. -1.
     999900   -1    0    0    0    0 -0.00000000000E+00 -0.00000000000E+00 -0.74505805969E-08  0.93827000000E+00  0.93827000000E+00 0.  1.
     999902    2    1    2    0    0 -0.63983279098E-02 -0.13099572028E-01  0.10909575570E-01  0.10257213145E+01  0.10255596808E+01 0.  0.
     999903    2    3    3    0    0  0.52263641408E-02  0.19372885494E-01 -0.12518387479E+00  0.13459224352E+00  0.45182363096E-01 0.  0.
         14    1    1    2    0    0  0.63983279098E-02  0.13099572028E-01 -0.10909575570E-01  0.18208685468E-01  0.00000000000E+00 0.  1.
     999901    1    3    3    0    0 -0.11624692051E-01 -0.32472457522E-01  0.13609345036E+00  0.89112907101E+00  0.88000000000E+00 0. -1.
        -11    1    4    4    0    0 -0.95105377052E-02  0.29020923707E-01 -0.63891117787E-01  0.70816667483E-01  0.51100000000E-03 0.  1.
         11    1    4    4    0    0  0.14736901846E-01 -0.96480382136E-02 -0.61292757003E-01  0.63775576042E-01  0.51100000000E-03 0. -1.
</event>
<event>
 8    1  0.2924722E+004  0.1043930E+01  0.7957747E-01            NaN
         13   -1    0    0    0    0  0.00000000000E+00  0.00000000000E+00  0.74505805969E-08  0.10566000000E+00  0.10566000000E+00 0.  1.
     999900   -1    0    0    0    0 -0.00000000000E+00 -0.00000000000E+00 -0.74505805969E-08  0.93827000000E+00  0.93827000000E+00 0.  1.
     999902    2    1    2    0    0 -0.83934582981E-02 -0.19289878635E-02  0.10686791164E-01  0.10302048901E+01  0.10301134583E+01 0.  0.
     999903    2    3    3    0    0  0.12560864258E+00  0.28862149599E-01 -0.23702126168E-01  0.13886474469E+00  0.45946400964E-01 0.  0.
         14    1    1    2    0    0  0.83934582981E-02  0.19289878635E-02 -0.10686791164E-01  0.13725109900E-01  0.00000000000E+00 0. -1.
     999901    1    3    3    0    0 -0.13400210088E+00 -0.30791137463E-01  0.34388917332E-01  0.89134014541E+00  0.88000000000E+00 0.  1.
        -11    1    4    4    0    0  0.23370201819E-01  0.16672177250E-01  0.10189186819E-01  0.30466514017E-01  0.51100000000E-03 0. -1.
         11    1    4    4    0    0  0.10223844076E+00  0.12189972350E-01 -0.33891312987E-01  0.10839823067E+00  0.51100000000E-03 0.  1.
</event>
<event>
 8    1  0.2924722E+004  0.1043930E+01  0.7957747E-01            NaN
         13   -1    0    0    0    0  0.00000000000E+00  0.00000000000E+00  0.74505805969E-08  0.10566000000E+00  0.10566000000E+00 0.  1.
     999900   -1    0    0    0    0 -0.00000000000E+00 -0.00000000000E+00 -0.74505805969E-08  0.93827000000E+00  0.93827000000E+00 0. -1.
     999902    2    1    2    0    0  0.11032715495E-01  0.29133367982E-02  0.75241289824E-02  0.10302617573E+01  0.10301710866E+01 0.  0.
     999903    2    3    3    0    0  0.93360372258E-01 -0.48006254840E-01  0.83866782450E-01  0.14166800947E+00  0.44893519545E-01 0.  0.
         14    1    1    2    0    0 -0.11032715495E-01 -0.29133367982E-02 -0.75241289824E-02  0.13668242734E-01  0.00000000000E+00 0. -1.
     999901    1    3    3    0    0 -0.82327656763E-01  0.50919591638E-01 -0.76342653468E-01  0.88859374779E+00  0.88000000000E+00 0. -1.
        -11    1    4    4    0    0  0.63295327313E-01 -0.17577844912E-01  0.28269015022E-01  0.71516972969E-01  0.51100000000E-03 0. -1.
         11    1    4    4    0    0  0.30065044945E-01 -0.30428409929E-01  0.55597767428E-01  0.70151036502E-01  0.51100000000E-03 0.  1.
</event>
<event>
 8    1  0.2924722E+004  0.1043930E+01  0.7957747E-01            NaN
         13   -1    0    0    0    0  0.00000000000E+00  0.00000000000E+00  0.74505805969E-08  0.10566000000E+00  0.10566000000E+00 0. -1.
     999900   -1    0    0    0    0 -0.00000000000E+00 -0.00000000000E+00 -0.74505805969E-08  0.93827000000E+00  0.93827000000E+00 0.  1.
     999902    2    1    2    0    0  0.58260640521E-02  0.22026100060E-02  0.11273841419E-01  0.10310500150E+01  0.10309695628E+01 0.  0.
     999903    2    3    3    0    0  0.11593151499E+00  0.24959978451E-01 -0.61467979452E-01  0.14091941748E+00  0.44909386914E-01 0.  0.
         14    1    1    2    0    0 -0.58260640521E-02 -0.22026100060E-02 -0.11273841419E-01  0.12879984996E-01  0.00000000000E+00 0.  1.
     999901    1    3    3    0    0 -0.11010545094E+00 -0.22757368445E-01  0.72741820871E-01  0.89013059752E+00  0.88000000000E+00 0. -1.
        -11    1    4    4    0    0  0.62003294190E-01  0.19822921103E-01 -0.57061474833E-01  0.86565753752E-01  0.51100000000E-03 0. -1.
         11    1    4    4    0    0  0.53928220798E-01  0.51370573482E-02 -0.44065046192E-02  0.54353663728E-01  0.51100000000E-03 0.  1.
</event>
<event>
 8    1  0.2924722E+004  0.1043930E+01  0.7957747E-01            NaN
         13   -1    0    0    0    0  0.00000000000E+00  0.00000000000E+00  0.74505805969E-08  0.10566000000E+00  0.10566000000E+00 0.  1.
     999900   -1    0    0    0    0 -0.00000000000E+00 -0.00000000000E+00 -0.74505805969E-08  0.93827000000E+00  0.93827000000E+00 0. -1.
     999902    2    1    2    0    0 -0.45269967718E-02  0.34285275755E-02 -0.14914705897E-01  0.10279707722E+01  0.10278468813E+01 0.  0.
     999903    2    3    3    0    0  0.90625191489E-01  0.95141370190E-01 -0.34289969927E-02  0.13802857969E+00  0.42134607366E-01 0.  0.
         14    1    1    2    0    0  0.45269967718E-02 -0.34285275755E-02  0.14914705897E-01  0.15959227835E-01  0.00000000000E+00 0.  1.
     999901    1    3    3    0    0 -0.95152188261E-01 -0.91712842615E-01 -0.11485708904E-01  0.88994219247E+00  0.88000000000E+00 0. -1.
        -11    1    4    4    0    0  0.27051983326E-01  0.55994893659E-02 -0.55960988808E-02  0.28191160436E-01  0.51100000000E-03 0.  1.
         11    1    4    4    0    0  0.63573208163E-01  0.89541880824E-01  0.21671018881E-02  0.10983741926E+00  0.51100000000E-03 0. -1.
</event>
<event>
 8    1  0.2924722E+004  0.1043930E+01  0.7957747E-01            NaN
         13   -1    0    0    0    0  0.00000000000E+00  0.00000000000E+00  0.74505805969E-08  0.10566000000E+00  0.10566000000E+00 0.  1.
     999900   -1    0    0    0    0 -0.00000000000E+00 -0.00000000000E+00 -0.74505805969E-08  0.93827000000E+00  0.93827000000E+00 0. -1.
     999902    2    1    2    0    0 -0.11906743970E-01  0.14894163805E-02  0.62247651954E-02  0.10304119892E+01  0.10303233138E+01 0.  0.
     999903    2    3    3    0    0  0.77824974310E-01 -0.93027315584E-01 -0.51187611658E-01  0.13896295822E+00  0.44494090617E-01 0.  0.
         14    1    1    2    0    0  0.11906743970E-01 -0.14894163805E-02 -0.62247651954E-02  0.13518010759E-01  0.00000000000E+00 0. -1.
     999901    1    3    3    0    0 -0.89731718280E-01  0.94516731965E-01  0.57412376853E-01  0.89144903102E+00  0.88000000000E+00 0.  1.
        -11    1    4    4    0    0  0.45478292839E-01 -0.31978589750E-01 -0.49291466391E-02  0.55816332104E-01  0.51100000000E-03 0. -1.
         11    1    4    4    0    0  0.32346681470E-01 -0.61048725834E-01 -0.46258465019E-01  0.83146626119E-01  0.51100000000E-03 0.  1.
</event>
<event>
 8    1  0.2924722E+004  0.1043930E+01  0.7957747E-01            NaN
         13   -1    0    0    0    0  0.00000000000E+00  0.00000000000E+00  0.74505805969E-08  0.10566000000E+00  0.10566000000E+00 0. -1.
     999900   -1    0    0    0    0 -0.00000000000E+00 -0.00000000000E+00 -0.74505805969E-08  0.93827000000E+00  0.93827000000E+00 0.  1.
     999902    2    1    2    0    0 -0.11472149241E-01 -0.82094987806E-02 -0.36037083190E-02  0.10293700277E+01  0.10292670505E+01 0.  0.
     999903    2    3    3    0    0  0.17807435561E-01  0.50788755390E-01  0.11948255114E+00  0.13836592262E+00  0.44412228955E-01 0.  0.
         14    1    1    2    0    0  0.11472149241E-01  0.82094987806E-02  0.36037083190E-02  0.14559972256E-01  0.00000000000E+00 0.  1.
     999901    1    3    3    0    0 -0.29279584802E-01 -0.58998254170E-01 -0.12308625946E+00  0.89100410512E+00  0.88000000000E+00 0.  1.
        -11    1    4    4    0    0  0.31117006610E-01  0.23840515446E-01  0.75829719654E-01  0.85364194959E-01  0.51100000000E-03 0.  1.
         11    1    4    4    0    0 -0.13309571049E-01  0.26948239944E-01  0.43652831483E-01  0.53001727661E-01  0.51100000000E-03 0. -1.
</event>
<event>
 8    1  0.2924722E+004  0.1043930E+01  0.7957747E-01            NaN
         13   -1    0    0    0    0  0.00000000000E+00  0.00000000000E+00  0.74505805969E-08  0.10566000000E+00  0.10566000000E+00 0. -1.
     999900   -1    0    0    0    0 -0.00000000000E+00 -0.00000000000E+00 -0.74505805969E-08  0.93827000000E+00  0.93827000000E+00 0.  1.
     999902    2    1    2    0    0  0.45762898008E-02 -0.13930303768E-01  0.52929804193E-02  0.10283411760E+01  0.10282230122E+01 0.  0.
     999903    2    3    3    0    0 -0.11823194240E+00  0.12309677973E-01 -0.52252226847E-01  0.13756519441E+00  0.45426502452E-01 0.  0.
         14    1    1    2    0    0 -0.45762898008E-02  0.13930303768E-01 -0.52929804193E-02  0.15588823982E-01  0.00000000000E+00 0.  1.
     999901    1    3    3    0    0  0.12280823220E+00 -0.26239981741E-01  0.57545207267E-01  0.89077598161E+00  0.88000000000E+00 0. -1.
        -11    1    4    4    0    0 -0.69202962704E-01 -0.11983231192E-01 -0.16330531100E-01  0.72108218975E-01  0.51100000000E-03 0. -1.
         11    1    4    4    0    0 -0.49028979700E-01  0.24292909165E-01 -0.35921695748E-01  0.65456975430E-01  0.51100000000E-03 0.  1.
</event>
<event>
 8    1  0.2924722E+004  0.1043930E+01  0.7957747E-01            NaN
         13   -1    0    0    0    0  0.00000000000E+00  0.00000000000E+00  0.74505805969E-08  0.10566000000E+00  0.10566000000E+00 0.  1.
     999900   -1    0    0    0    0 -0.00000000000E+00 -0.00000000000E+00 -0.74505805969E-08  0.93827000000E+00  0.93827000000E+00 0. -1.
     999902    2    1    2    0    0 -0.22433446402E-03 -0.16878962898E-01  0.54309840567E-03  0.10270408120E+01  0.10269019354E+01 0.  0.
     999903    2    3    3    0    0  0.12544687838E+00  0.23420638680E-01  0.21207171869E-01  0.13695973956E+00  0.44975332257E-01 0.  0.
         14    1    1    2    0    0  0.22433446402E-03  0.16878962898E-01 -0.54309840567E-03  0.16889187972E-01  0.00000000000E+00 0. -1.
     999901    1    3    3    0    0 -0.12567121284E+00 -0.40299601578E-01 -0.20664073463E-01  0.89008107246E+00  0.88000000000E+00 0. -1.
        -11    1    4    4    0    0  0.25613691182E-01 -0.13290205916E-01  0.26417343720E-02  0.28981556735E-01  0.51100000000E-03 0.  1.
         11    1    4    4    0    0  0.99833187197E-01  0.36710844595E-01  0.18565437497E-01  0.10797818283E+00  0.51100000000E-03 0. -1.
</event>
<event>
 8    1  0.2924722E+004  0.1043930E+01  0.7957747E-01            NaN
         13   -1    0    0    0    0  0.00000000000E+00  0.00000000000E+00  0.74505805969E-08  0.10566000000E+00  0.10566000000E+00 0.  1.
     999900   -1    0    0    0    0 -0.00000000000E+00 -0.00000000000E+00 -0.74505805969E-08  0.93827000000E+00  0.93827000000E+00 0. -1.
     999902    2    1    2    0    0  0.24764409661E-02 -0.13914829435E-01 -0.70186328853E-03  0.10297791043E+01  0.10296818711E+01 0.  0.
     999903    2    3    3    0    0  0.33513584492E-01  0.12829664925E-01  0.12719554085E+00  0.13959018148E+00  0.44932755402E-01 0.  0.
         14    1    1    2    0    0 -0.24764409661E-02  0.13914829435E-01  0.70186328853E-03  0.14150895736E-01  0.00000000000E+00 0.  1.
     999901    1    3    3    0    0 -0.31037143526E-01 -0.26744494360E-01 -0.12789740413E+00  0.89018892278E+00  0.88000000000E+00 0. -1.
        -11    1    4    4    0    0  0.25287722384E-01  0.29521378186E-01  0.84569015135E-01  0.93076098517E-01  0.51100000000E-03 0.  1.
         11    1    4    4    0    0  0.82258621081E-02 -0.16691713261E-01  0.42626525711E-01  0.46514082966E-01  0.51100000000E-03 0. -1.
</event>
<event>
 8    1  0.2924722E+004  0.1043930E+01  0.7957747E-01            NaN
         13   -1    0    0    0    0  0.00000000000E+00  0.00000000000E+00  0.74505805969E-08  0.10566000000E+00  0.10566000000E+00 0.  1.
     999900   -1    0    0    0    0 -0.00000000000E+00 -0.00000000000E+00 -0.74505805969E-08  0.93827000000E+00  0.93827000000E+00 0.  1.
     999902    2    1    2    0    0 -0.10521649922E-01 -0.13837975375E-02  0.87458937733E-02  0.10301782485E+01  0.10300864590E+01 0.  0.
     999903    2    3    3    0    0  0.54933527011E-01  0.50962070374E-01 -0.10538743011E+00  0.13885850465E+00  0.50599890138E-01 0.  0.
         14    1    1    2    0    0  0.10521649922E-01  0.13837975375E-02 -0.87458937733E-02  0.13751751546E-01  0.00000000000E+00 0. -1.
     999901    1    3    3    0    0 -0.65455176933E-01 -0.52345867912E-01  0.11413332388E+00  0.89131974380E+00  0.88000000000E+00 0. -1.
        -11    1    4    4    0    0  0.28659029101E-01  0.51744260801E-01 -0.91946645109E-01  0.10933094321E+00  0.51100000000E-03 0.  1.
         11    1    4    4    0    0  0.26274497911E-01 -0.78219042682E-03 -0.13440784999E-01  0.29527561442E-01  0.51100000000E-03 0. -1.
</event>
<event>
 7    1  0.2924722E+004  0.1043930E+01  0.7957747E-01            NaN
         13   -1    0    0    0    0  0.00000000000E+00  0.00000000000E+00  0.74505805969E-08  0.10566000000E+00  0.10566000000E+00 0. -1.
     999900   -1    0    0    0    0 -0.00000000000E+00 -0.00000000000E+00 -0.74505805969E-08  0.93827000000E+00  0.93827000000E+00 0. -1.
     999902    2    1    2    0    0  0.31366002230E-02  0.13434707373E-01 -0.49264824747E-03  0.10301252064E+01  0.10300327027E+01 0.  0.
         14    1    1    2    0    0 -0.31366002230E-02 -0.13434707373E-01  0.49264824747E-03  0.13804793567E-01  0.00000000000E+00 0. -1.
     999901    1    3    3    0    0  0.13365631413E+00 -0.15636012580E-01  0.26511167443E-01  0.89062412790E+00  0.88000000000E+00 0.  1.
        -11    1    3    3    0    0 -0.77700635108E-01  0.27240359229E-01 -0.26984401827E-01  0.86647821266E-01  0.51100000000E-03 0.  1.
         11    1    3    3    0    0 -0.52819078802E-01  0.18303607242E-02 -0.19413862883E-04  0.52853257267E-01  0.51100000000E-03 0. -1.
</event>
<event>
 8    1  0.2924722E+004  0.1043930E+01  0.7957747E-01            NaN
         13   -1    0    0    0    0  0.00000000000E+00  0.00000000000E+00  0.74505805969E-08  0.10566000000E+00  0.10566000000E+00 0. -1.
     999900   -1    0    0    0    0 -0.00000000000E+00 -0.00000000000E+00 -0.74505805969E-08  0.93827000000E+00  0.93827000000E+00 0. -1.
     999902    2    1    2    0    0  0.94765489267E-02 -0.33113122121E-02  0.10561871916E-01  0.10293586958E+01  0.10292555570E+01 0.  0.
     999903    2    3    3    0    0  0.55609113446E-01 -0.10686586532E+00 -0.54661248798E-01  0.13969257052E+00  0.44871766933E-01 0.  0.
         14    1    1    2    0    0 -0.94765489267E-02  0.33113122121E-02 -0.10561871916E-01  0.14571304214E-01  0.00000000000E+00 0.  1.
     999901    1    3    3    0    0 -0.46132564520E-01  0.10355455311E+00  0.65223120714E-01  0.88966612527E+00  0.88000000000E+00 0.  1.
        -11    1    4    4    0    0  0.55758680872E-01 -0.60849061156E-01 -0.35080087075E-01  0.89680055566E-01  0.51100000000E-03 0.  1.
         11    1    4    4    0    0 -0.14956742631E-03 -0.46016804167E-01 -0.19581161723E-01  0.50012514949E-01  0.51100000000E-03 0. -1.
</event>
<event>
 8    1  0.2924722E+004  0.1043930E+01  0.7957747E-01            NaN
         13   -1    0    0    0    0  0.00000000000E+00  0.00000000000E+00  0.74505805969E-08  0.10566000000E+00  0.10566000000E+00 0.  1.
     999900   -1    0    0    0    0 -0.00000000000E+00 -0.00000000000E+00 -0.74505805969E-08  0.93827000000E+00  0.93827000000E+00 0.  1.
     999902    2    1    2    0    0 -0.92879847175E-02 -0.81370042160E-02 -0.63953782608E-02  0.10300239452E+01  0.10299300701E+01 0.  0.
     999903    2    3    3    0    0 -0.23719527259E-01  0.12858558162E+00 -0.16063882280E-01  0.13929681812E+00  0.45262428694E-01 0.  0.
         14    1    1    2    0    0  0.92879847175E-02  0.81370042160E-02  0.63953782608E-02  0.13906054826E-01  0.00000000000E+00 0. -1.
     999901    1    3    3    0    0  0.14431542542E-01 -0.13672258583E+00  0.96685040193E-02  0.89072712705E+00  0.88000000000E+00 0. -1.
        -11    1    4    4    0    0 -0.16318291059E-01  0.12679141257E+00 -0.78425024862E-02  0.12807854969E+00  0.51100000000E-03 0.  1.
         11    1    4    4    0    0 -0.74012362004E-02  0.17941690485E-02 -0.82213797940E-02  0.11218268431E-01  0.51100000000E-03 0. -1.
</event>
<event>
 8    1  0.2924722E+004  0.1043930E+01  0.7957747E-01            NaN
         13   -1    0    0    0    0  0.00000000000E+00  0.00000000000E+00  0.74505805969E-08  0.10566000000E+00  0.10566000000E+00 0. -1.
     999900   -1    0    0    0    0 -0.00000000000E+00 -0.00000000000E+00 -0.74505805969E-08  0.93827000000E+00  0.93827000000E+00 0. -1.
     999902    2    1    2    0    0  0.45607119265E-02  0.12729341360E-01 -0.13662656357E-02  0.10303394553E+01  0.10302498193E+01 0.  0.
     999903    2    3    3    0    0 -0.13081429625E+00  0.10792110565E-01 -0.15999962700E-01  0.13986526091E+00  0.45578971578E-01 0.  0.
         14    1    1    2    0    0 -0.45607119265E-02 -0.12729341360E-01  0.13662656357E-02  0.13590544747E-01  0.00000000000E+00 0. -1.
     999901    1    3    3    0    0  0.13537500817E+00  0.19372307945E-02  0.14633697065E-01  0.89047419434E+00  0.88000000000E+00 0.  1.
        -11    1    4    4    0    0 -0.28417919473E-01 -0.92744212688E-02 -0.19093395024E-01  0.35474101702E-01  0.51100000000E-03 0. -1.
         11    1    4    4    0    0 -0.10239637677E+00  0.20066531834E-01  0.30934323234E-02  0.10439115921E+00  0.51100000000E-03 0.  1.
</event>
<event>
 8    1  0.2924722E+004  0.1043930E+01  0.7957747E-01            NaN
         13   -1    0    0    0    0  0.00000000000E+00  0.00000000000E+00  0.74505805969E-08  0.10566000000E+00  0.10566000000E+00 0. -1.
     999900   -1    0    0    0    0 -0.00000000000E+00 -0.00000000000E+00 -0.74505805969E-08  0.93827000000E+00  0.93827000000E+00 0.  1.
     999902    2    1    2    0    0 -0.91487882437E-02  0.33810906213E-02 -0.16159720912E-01  0.10250549191E+01  0.10248811240E+01 0.  0.
     999903    2    3    3    0    0  0.30308138039E-01  0.10497539979E+00  0.64442799361E-01  0.13467577569E+00  0.45235742256E-01 0.  0.
         14    1    1    2    0    0  0.91487882437E-02 -0.33810906213E-02  0.16159720912E-01  0.18875080929E-01  0.00000000000E+00 0. -1.
     999901    1    3    3    0    0 -0.39456926282E-01 -0.10159430917E+00 -0.80602520273E-01  0.89037914338E+00  0.88000000000E+00 0.  1.
        -11    1    4    4    0    0  0.29193455388E-01  0.96231657107E-01  0.39200604104E-01  0.10793395272E+00  0.51100000000E-03 0.  1.
         11    1    4    4    0    0  0.11146826503E-02  0.87437426805E-02  0.25242195257E-01  0.26741822972E-01  0.51100000000E-03 0. -1.
</event>
<event>
 8    1  0.2924722E+004  0.1043930E+01  0.7957747E-01            NaN
         13   -1    0    0    0    0  0.00000000000E+00  0.00000000000E+00  0.74505805969E-08  0.10566000000E+00  0.10566000000E+00 0.  1.
     999900   -1    0    0    0    0 -0.00000000000E+00 -0.00000000000E+00 -0.74505805969E-08  0.93827000000E+00  0.93827000000E+00 0. -1.
     999902    2    1    2    0    0  0.16217803134E-02 -0.27835404375E-02 -0.13380772725E-01  0.10301668845E+01  0.10300749422E+01 0.  0.
     999903    2    3    3    0    0 -0.21677121106E-01 -0.65502811377E-02  0.12883293143E+00  0.13843723671E+00  0.45322627068E-01 0.  0.
         14    1    1    2    0    0 -0.16217803134E-02  0.27835404375E-02  0.13380772725E-01  0.13763115471E-01  0.00000000000E+00 0.  1.
     999901    1    3    3    0    0  0.23298901419E-01  0.37667407002E-02 -0.14221370416E+00  0.89172964782E+00  0.88000000000E+00 0. -1.
        -11    1    4    4    0    0 -0.29436323858E-01  0.33263697246E-02  0.46408082598E-01  0.55059360233E-01  0.51100000000E-03 0.  1.
         11    1    4    4    0    0  0.77592027523E-02 -0.98766508623E-02  0.82424848837E-01  0.83377876481E-01  0.51100000000E-03 0. -1.
</event>
<event>
 8    1  0.2924722E+004  0.1043930E+01  0.7957747E-01            NaN
         13   -1    0    0    0    0  0.00000000000E+00  0.00000000000E+00  0.74505805969E-08  0.10566000000E+00  0.10566000000E+00 0. -1.
     999900   -1    0    0    0    0 -0.00000000000E+00 -0.00000000000E+00 -0.74505805969E-08  0.93827000000E+00  0.93827000000E+00 0.  1.
     999902    2    1    2    0    0 -0.15558242847E-02 -0.13052861055E-01  0.44548446054E-02  0.10300503958E+01  0.10299568800E+01 0.  0.
     999903    2    3    3    0    0  0.25627068628E-01  0.67917897082E-01  0.11060661309E+00  0.13956548790E+00  0.44442267734E-01 0.  0.
         14    1    1    2    0    0  0.15558242847E-02  0.13052861055E-01 -0.44548446054E-02  0.13879604151E-01  0.00000000000E+00 0.  1.
     999901    1    3    3    0    0 -0.27182892912E-01 -0.80970758137E-01 -0.10615176849E+00  0.89048490795E+00  0.88000000000E+00 0.  1.
        -11    1    4    4    0    0 -0.41055092512E-02  0.50272504612E-01  0.62357174440E-01  0.80205101155E-01  0.51100000000E-03 0. -1.
         11    1    4    4    0    0  0.29732577879E-01  0.17645392470E-01  0.48249438653E-01  0.59360386741E-01  0.51100000000E-03 0.  1.
</event>
<event>
 8    1  0.2924722E+004  0.1043930E+01  0.7957747E-01            NaN
         13   -1    0    0    0    0  0.00000000000E+00  0.00000000000E+00  0.74505805969E-08  0.10566000000E+00  0.10566000000E+00 0.  1.
     999900   -1    0    0    0    0 -0.00000000000E+00 -0.00000000000E+00 -0.74505805969E-08  0.93827000000E+00  0.93827000000E+00 0.  1.
     999902    2    1    2    0    0 -0.43487682506E-02 -0.88090842909E-02  0.82523157289E-02  0.10310998610E+01  0.10310200342E+01 0.  0.
     999903    2    3    3    0    0  0.97800620285E-01  0.90038856632E-01  0.87506645153E-02  0.13969329757E+00  0.42020069327E-01 0.  0.
         14    1    1    2    0    0  0.43487682506E-02  0.88090842909E-02 -0.82523157289E-02  0.12830138979E-01  0.00000000000E+00 0. -1.
     999901    1    3    3    0    0 -0.10214938854E+00 -0.98847940923E-01 -0.49834878639E-03  0.89140656345E+00  0.88000000000E+00 0.  1.
        -11    1    4    4    0    0  0.26970071587E-01  0.14486417762E-01  0.18332809993E-01  0.35687450235E-01  0.51100000000E-03 0. -1.
         11    1    4    4    0    0  0.70830548697E-01  0.75552438870E-01 -0.95821454782E-02  0.10400584734E+00  0.51100000000E-03 0.  1.
</event>
<event>
 8    1  0.2924722E+004  0.1043930E+01  0.7957747E-01            NaN
         13   -1    0    0    0    0  0.00000000000E+00  0.00000000000E+00  0.74505805969E-08  0.10566000000E+00  0.10566000000E+00 0. -1.
     999900   -1    0    0    0    0 -0.00000000000E+00 -0.00000000000E+00 -0.74505805969E-08  0.93827000000E+00  0.93827000000E+00 0. -1.
     999902    2    1    2    0    0  0.36438521184E-02 -0.91933166183E-02  0.33753778698E-02  0.10334806984E+01  0.10334278717E+01 0.  0.
     999903    2    3    3    0    0 -0.45958614441E-01 -0.12826271068E+00  0.12269552329E-01  0.14403309923E+00  0.45071882224E-01 0.  0.
         14    1    1    2    0    0 -0.36438521184E-02  0.91933166183E-02 -0.33753778698E-02  0.10449301626E-01  0.00000000000E+00 0. -1.
     999901    1    3    3    0    0  0.49602466559E-01  0.11906939406E+00 -0.88941744588E-02  0.88944759915E+00  0.88000000000E+00 0.  1.
        -11    1    4    4    0    0 -0.25114873040E-01 -0.22314252793E-01 -0.70668941915E-02  0.34334892457E-01  0.51100000000E-03 0. -1.
         11    1    4    4    0    0 -0.20843741400E-01 -0.10594845788E+00  0.19336446520E-01  0.10969820677E+00  0.51100000000E-03 0.  1.
</event>
<event>
 8    1  0.2924722E+004  0.1043930E+01  0.7957747E-01            NaN
         13   -1    0    0    0    0  0.00000000000E+00  0.00000000000E+00  0.74505805969E-08  0.10566000000E+00  0.10566000000E+00 0.  1.
     999900   -1    0    0    0    0 -0.00000000000E+00 -0.00000000000E+00 -0.74505805969E-08  0.93827000000E+00  0.93827000000E+00 0. -1.
     999902    2    1    2    0    0 -0.50723611787E-02  0.94289798482E-02  0.10882097027E-01  0.10286638759E+01  0.10285505895E+01 0.  0.
     999903    2    3    3    0    0  0.11110889973E+00 -0.59015207033E-01 -0.32499183522E-01  0.13733642340E+00  0.44464750120E-01 0.  0.
         14    1    1    2    0    0  0.50723611787E-02 -0.94289798482E-02 -0.10882097027E-01  0.15266124086E-01  0.00000000000E+00 0. -1.
     999901    1    3    3    0    0 -0.11618126090E+00  0.68444186881E-01  0.43381280549E-01  0.89132745251E+00  0.88000000000E+00 0.  1.
        -11    1    4    4    0    0  0.56047504499E-01 -0.16541871712E-01 -0.34318033394E-01  0.67771268376E-01  0.51100000000E-03 0. -1.
         11    1    4    4    0    0  0.55061395227E-01 -0.42473335321E-01  0.18188498722E-02  0.69565155024E-01  0.51100000000E-03 0.  1.
</event>
<event>
 8    1  0.2924722E+004  0.1043930E+01  0.7957747E-01            NaN
         13   -1    0    0    0    0  0.00000000000E+00  0.00000000000E+00  0.74505805969E-08  0.10566000000E+00  0.10566000000E+00 0.  1.
     999900   -1    0    0    0    0 -0.00000000000E+00 -0.00000000000E+00 -0.74505805969E-08  0.93827000000E+00  0.93827000000E+00 0. -1.
     999902    2    1    2    0    0  0.10323062757E-02  0.62976058802E-02 -0.12543166662E-01  0.10298567443E+01  0.10297605825E+01 0.  0.
     999903    2    3    3    0    0 -0.12455858473E+00 -0.44433553469E-01  0.10350032715E-01  0.13919922257E+00  0.42191452746E-01 0.  0.
         14    1    1    2    0    0 -0.10323062757E-02 -0.62976058802E-02  0.12543166662E-01  0.14073255700E-01  0.00000000000E+00 0.  1.
     999901    1    3    3    0    0  0.12559089100E+00  0.50731159349E-01 -0.22893199377E-01  0.89065752173E+00  0.88000000000E+00 0.  1.
        -11    1    4    4    0    0 -0.38689908875E-01 -0.25773248562E-01  0.20365220299E-01  0.50756011556E-01  0.51100000000E-03 0. -1.
         11    1    4    4    0    0 -0.85868675851E-01 -0.18660304907E-01 -0.10015187585E-01  0.88443211017E-01  0.51100000000E-03 0.  1.
</event>
<event>
 8    1  0.2924722E+004  0.1043930E+01  0.7957747E-01            NaN
         13   -1    0    0    0    0  0.00000000000E+00  0.00000000000E+00  0.74505805969E-08  0.10566000000E+00  0.10566000000E+00 0. -1.
     999900   -1    0    0    0    0 -0.00000000000E+00 -0.00000000000E+00 -0.74505805969E-08  0.93827000000E+00  0.93827000000E+00 0. -1.
     999902    2    1    2    0    0  0.14015202639E-02 -0.43902432812E-02 -0.14233198856E-01  0.10289693033E+01  0.10288605371E+01 0.  0.
     999903    2    3    3    0    0  0.11811168475E-01 -0.78751126117E-01  0.10342398879E+00  0.13796923853E+00  0.44696149263E-01 0.  0.
         14    1    1    2    0    0 -0.14015202639E-02  0.43902432812E-02  0.14233198856E-01  0.14960696668E-01  0.00000000000E+00 0. -1.
     999901    1    3    3    0    0 -0.10409648211E-01  0.74360882836E-01 -0.11765718764E+00  0.89100006480E+00  0.88000000000E+00 0. -1.
        -11    1    4    4    0    0  0.47352689211E-02  0.55114881055E-03  0.27628302844E-01  0.28041233493E-01  0.51100000000E-03 0.  1.
         11    1    4    4    0    0  0.70758995535E-02 -0.79302274928E-01  0.75795685941E-01  0.10992800504E+00  0.51100000000E-03 0. -1.
</event>
<event>
 8    1  0.2924722E+004  0.1043930E+01  0.7957747E-01            NaN
         13   -1    0    0    0    0  0.00000000000E+00  0.00000000000E+00  0.74505805969E-08  0.10566000000E+00  0.10566000000E+00 0. -1.
     999900   -1    0    0    0    0 -0.00000000000E+00 -0.00000000000E+00 -0.74505805969E-08  0.93827000000E+00  0.93827000000E+00 0.  1.
     999902    2    1    2    0    0  0.13566127049E-01  0.80464601276E-03  0.24143036848E-02  0.10301272423E+01  0.10300347660E+01 0.  0.
     999903    2    3    3    0    0 -0.84369242830E-01  0.25181567237E-01 -0.97223153986E-01  0.13877254637E+00  0.45312222298E-01 0.  0.
         14    1    1    2    0    0 -0.13566127049E-01 -0.80464601276E-03 -0.24143036848E-02  0.13802757718E-01  0.00000000000E+00 0.  1.
     999901    1    3    3    0    0  0.97935369879E-01 -0.24376921224E-01  0.99637457671E-01  0.89135469592E+00  0.88000000000E+00 0. -1.
        -11    1    4    4    0    0 -0.37368811255E-01  0.20288585357E-01 -0.75740457511E-01  0.86861572490E-01  0.51100000000E-03 0. -1.
         11    1    4    4    0    0 -0.47000431575E-01  0.48929818796E-02 -0.21482696475E-01  0.51910973876E-01  0.51100000000E-03 0.  1.
</event>
<event>
 8    1  0.2924722E+004  0.1043930E+01  0.7957747E-01            NaN
         13   -1    0    0    0    0  0.00000000000E+00  0.00000000000E+00  0.74505805969E-08  0.10566000000E+00  0.10566000000E+00 0.  1.
     999900   -1    0    0    0    0 -0.00000000000E+00 -0.00000000000E+00 -0.74505805969E-08  0.93827000000E+00  0.93827000000E+00 0.  1.
     999902    2    1    2    0    0  0.10543339562E-01 -0.19173396781E-02  0.93111006051E-02  0.10297337049E+01  0.10296358425E+01 0.  0.
     999903    2    3    3    0    0 -0.61816571616E-01  0.30228996695E-01 -0.11097266025E+00  0.13802886200E+00  0.44743207929E-01 0.  0.
         14    1    1    2    0    0 -0.10543339562E-01  0.19173396781E-02 -0.93111006051E-02  0.14196295117E-01  0.00000000000E+00 0. -1.
     999901    1    3    3    0    0  0.72359911178E-01 -0.32146336373E-01  0.12028376086E+00  0.89170484288E+00  0.88000000000E+00 0. -1.
        -11    1    4    4    0    0 -0.90587873712E-02  0.27333870664E-01 -0.46141569107E-01  0.54392165196E-01  0.51100000000E-03 0. -1.
         11    1    4    4    0    0 -0.52757784244E-01  0.28951260308E-02 -0.64831091143E-01  0.83636696808E-01  0.51100000000E-03 0.  1.
</event>
<event>
 8    1  0.2924722E+004  0.1043930E+01  0.7957747E-01            NaN
         13   -1    0    0    0    0  0.00000000000E+00  0.00000000000E+00  0.74505805969E-08  0.10566000000E+00  0.10566000000E+00 0.  1.
     999900   -1    0    0    0    0 -0.00000000000E+00 -0.00000000000E+00 -0.74505805969E-08  0.93827000000E+00  0.93827000000E+00 0.  1.
     999902    2    1    2    0    0 -0.13048651184E-01  0.51529316876E-02 -0.30200297643E-02  0.10295793700E+01  0.10294793531E+01 0.  0.
     999903    2    3    3    0    0 -0.90444397997E-01 -0.94121183153E-01 -0.24291630384E-01  0.14036739721E+00  0.45540494557E-01 0.  0.
         14    1    1    2    0    0  0.13048651184E-01 -0.51529316876E-02  0.30200297643E-02  0.14350630037E-01  0.00000000000E+00 0. -1.
     999901    1    3    3    0    0  0.77395746813E-01  0.99274114840E-01  0.21271600620E-01  0.88921197276E+00  0.88000000000E+00 0. -1.
        -11    1    4    4    0    0 -0.39981909070E-01 -0.40122833947E-01 -0.33621911775E-01  0.65871761243E-01  0.51100000000E-03 0.  1.
         11    1    4    4    0    0 -0.50462488927E-01 -0.53998349205E-01  0.93302813913E-02  0.74495635962E-01  0.51100000000E-03 0. -1.
</event>
<event>
 8    1  0.2924722E+004  0.1043930E+01  0.7957747E-01            NaN
         13   -1    0    0    0    0  0.00000000000E+00  0.00000000000E+00  0.74505805969E-08  0.10566000000E+00  0.10566000000E+00 0. -1.
     999900   -1    0    0    0    0 -0.00000000000E+00 -0.00000000000E+00 -0.74505805969E-08  0.93827000000E+00  0.93827000000E+00 0. -1.
     999902    2    1    2    0    0 -0.15322590310E-01 -0.15218684985E-02 -0.12281087766E-02  0.10284831198E+01  0.10283671142E+01 0.  0.
     999903    2    3    3    0    0 -0.62302319568E-01  0.46443978625E-01 -0.10677853648E+00  0.13963627681E+00  0.45365314677E-01 0.  0.
         14    1    1    2    0    0  0.15322590310E-01  0.15218684985E-02  0.12281087766E-02  0.15446880225E-01  0.00000000000E+00 0. -1.
     999901    1    3    3    0    0  0.46979729258E-01 -0.47965847123E-01  0.10555042770E+00  0.88884684296E+00  0.88000000000E+00 0.  1.
        -11    1    4    4    0    0 -0.32171922941E-01  0.35475633959E-03 -0.56748209129E-01  0.65236330661E-01  0.51100000000E-03 0.  1.
         11    1    4    4    0    0 -0.30130396626E-01  0.46089222285E-01 -0.50030327352E-01  0.74399946153E-01  0.51100000000E-03 0. -1.
</event>
<event>
 8    1  0.2924722E+004  0.1043930E+01  0.7957747E-01            NaN
         13   -1    0    0    0    0  0.00000000000E+00  0.00000000000E+00  0.74505805969E-08  0.10566000000E+00  0.10566000000E+00 0.  1.
     999900   -1    0    0    0    0 -0.00000000000E+00 -0.00000000000E+00 -0.74505805969E-08  0.93827000000E+00  0.93827000000E+00 0.  1.
     999902    2    1    2    0    0  0.10405664910E-01 -0.29130757345E-02  0.90094710323E-02  0.10298610825E+01  0.10297649803E+01 0.  0.
     999903    2    3    3    0    0  0.10516892460E+00  0.40299405681E-01 -0.70629383567E-01  0.14014779095E+00  0.44366075819E-01 0.  0.
         14    1    1    2    0    0 -0.10405664910E-01  0.29130757345E-02 -0.90094710323E-02  0.14068917539E-01  0.00000000000E+00 0. -1.
     999901    1    3    3    0    0 -0.94763259692E-01 -0.43212481416E-01  0.79638854599E-01  0.88971329152E+00  0.88000000000E+00 0.  1.
        -11    1    4    4    0    0  0.60148198742E-01  0.37873599507E-01 -0.23356325413E-01  0.74819746119E-01  0.51100000000E-03 0.  1.
         11    1    4    4    0    0  0.45020725860E-01  0.24258061740E-02 -0.47273058154E-01  0.65328044826E-01  0.51100000000E-03 0. -1.
</event>
<event>
 7    1  0.2924722E+004  0.1043930E+01  0.7957747E-01            NaN
         13   -1    0    0    0    0  0.00000000000E+00  0.00000000000E+00  0.74505805969E-08  0.10566000000E+00  0.10566000000E+00 0.  1.
     999900   -1    0    0    0    0 -0.00000000000E+00 -0.00000000000E+00 -0.74505805969E-08  0.93827000000E+00  0.93827000000E+00 0.  1.
     999902    2    1    2    0    0  0.26967739850E-03  0.14206108521E-01 -0.51476738201E-02  0.10288175948E+01  0.10287065950E+01 0.  0.
         14    1    1    2    0    0 -0.26967739850E-03 -0.14206108521E-01  0.51476738201E-02  0.15112405201E-01  0.00000000000E+00 0. -1.
     999901    1    3    3    0    0 -0.16003712815E-01  0.13471146660E+00 -0.14274238923E-01  0.89050943395E+00  0.88000000000E+00 0.  1.
        -11    1    3    3    0    0  0.31472763319E-01 -0.41612329354E-01  0.22564630863E-01  0.56846675120E-01  0.51100000000E-03 0.  1.
         11    1    3    3    0    0 -0.15199373106E-01 -0.78893028728E-01 -0.13438065760E-01  0.81461485728E-01  0.51100000000E-03 0. -1.
</event>
<event>
 8    1  0.2924722E+004  0.1043930E+01  0.7957747E-01            NaN
         13   -1    0    0    0    0  0.00000000000E+00  0.00000000000E+00  0.74505805969E-08  0.10566000000E+00  0.10566000000E+00 0. -1.
     999900   -1    0    0    0    0 -0.00000000000E+00 -0.00000000000E+00 -0.74505805969E-08  0.93827000000E+00  0.93827000000E+00 0.  1.
     999902    2    1    2    0    0  0.75048439667E-02  0.90511207146E-02 -0.87611982464E-02  0.10292669831E+01  0.10291625326E+01 0.  0.
     999903    2    3    3    0    0 -0.68644443275E-01  0.26390928757E-01 -0.11035508263E+00  0.13998598129E+00  0.44825104369E-01 0.  0.
         14    1    1    2    0    0 -0.75048439667E-02 -0.90511207146E-02  0.87611982464E-02  0.14663016875E-01  0.00000000000E+00 0. -1.
     999901    1    3    3    0    0  0.76149287242E-01 -0.17339808043E-01  0.10159388438E+00  0.88928100184E+00  0.88000000000E+00 0. -1.
        -11    1    4    4    0    0 -0.17055188653E-01  0.29452054735E-01 -0.37277424757E-01  0.50479406748E-01  0.51100000000E-03 0.  1.
         11    1    4    4    0    0 -0.51589254623E-01 -0.30611259777E-02 -0.73077657869E-01  0.89506574538E-01  0.51100000000E-03 0. -1.
</event>
<event>
 8    1  0.2924722E+004  0.1043930E+01  0.7957747E-01            NaN
         13   -1    0    0    0    0  0.00000000000E+00  0.00000000000E+00  0.74505805969E-08  0.10566000000E+00  0.10566000000E+00 0. -1.
     999900   -1    0    0    0    0 -0.00000000000E+00 -0.00000000000E+00 -0.74505805969E-08  0.93827000000E+00  0.93827000000E+00 0. -1.
     999902    2    1    2    0    0 -0.53878744516E-02 -0.57938050308E-02  0.11484397695E-01  0.10299840774E+01  0.10298896596E+01 0.  0.
     999903    2    3    3    0    0  0.47802081326E-01  0.39205260953E-02 -0.12172629562E+00  0.13831786827E+00  0.44879083476E-01 0.  0.
         14    1    1    2    0    0  0.53878744516E-02  0.57938050308E-02 -0.11484397695E-01  0.13945922639E-01  0.00000000000E+00 0.  1.
     999901    1    3    3    0    0 -0.53189955778E-01 -0.97143311262E-02  0.13321069331E+00  0.89166620909E+00  0.88000000000E+00 0.  1.
        -11    1    4    4    0    0  0.90315938155E-02 -0.18003768282E-01 -0.27475560664E-01  0.34071585141E-01  0.51100000000E-03 0.  1.
         11    1    4    4    0    0  0.38770487511E-01  0.21924294377E-01 -0.94250734952E-01  0.10424628313E+00  0.51100000000E-03 0. -1.
</event>
<event>
 8    1  0.2924722E+004  0.1043930E+01  0.7957747E-01            NaN
         13   -1    0    0    0    0  0.00000000000E+00  0.00000000000E+00  0.74505805969E-08  0.10566000000E+00  0.10566000000E+00 0. -1.
     999900   -1    0    0    0    0 -0.00000000000E+00 -0.00000000000E+00 -0.74505805969E-08  0.93827000000E+00  0.93827000000E+00 0.  1.
     999902    2    1    2    0    0 -0.47352279685E-02 -0.15262250872E-02 -0.13989233184E-01  0.10290824281E+01  0.10289753123E+01 0.  0.
     999903    2    3    3    0    0 -0.30135938369E-01  0.12139080968E+00  0.38526706808E-01  0.13862652379E+00  0.45706700882E-01 0.  0.
         14    1    1    2    0    0  0.47352279685E-02  0.15262250872E-02  0.13989233184E-01  0.14847571923E-01  0.00000000000E+00 0. -1.
     999901    1    3    3    0    0  0.25400710400E-01 -0.12291703476E+00 -0.52515939993E-01  0.89045590429E+00  0.88000000000E+00 0.  1.
        -11    1    4    4    0    0  0.71995505884E-02  0.39143878109E-02 -0.27066002838E-02  0.86453899105E-02  0.51100000000E-03 0.  1.
         11    1    4    4    0    0 -0.37335488957E-01  0.11747642187E+00  0.41233307092E-01  0.12998113388E+00  0.51100000000E-03 0. -1.
</event>
<event>
 8    1  0.2924722E+004  0.1043930E+01  0.7957747E-01            NaN
         13   -1    0    0    0    0  0.00000000000E+00  0.00000000000E+00  0.74505805969E-08  0.10566000000E+00  0.10566000000E+00 0.  1.
     999900   -1    0    0    0    0 -0.00000000000E+00 -0.00000000000E+00 -0.74505805969E-08  0.93827000000E+00  0.93827000000E+00 0. -1.
     999902    2    1    2    0    0  0.12813192752E-01  0.26225195157E-02 -0.65856143034E-02  0.10292867137E+01  0.10291825461E+01 0.  0.
     999903    2    3    3    0    0 -0.54050260146E-02 -0.10621541926E+00  0.76349328551E-01  0.13852535110E+00  0.45267243467E-01 0.  0.
         14    1    1    2    0    0 -0.12813192752E-01 -0.26225195157E-02  0.65856143034E-02  0.14643286273E-01  0.00000000000E+00 0. -1.
     999901    1    3    3    0    0  0.18218218766E-01  0.10883793878E+00 -0.82934942854E-01  0.89076136263E+00  0.88000000000E+00 0. -1.
        -11    1    4    4    0    0 -0.15475465484E-01 -0.63383223060E-01  0.67037251420E-01  0.93547726837E-01  0.51100000000E-03 0. -1.
         11    1    4    4    0    0  0.10070439469E-01 -0.42832196200E-01  0.93120771305E-02  0.44977624258E-01  0.51100000000E-03 0.  1.
</event>
<event>
 8    1  0.2924722E+004  0.1043930E+01  0.7957747E-01            NaN
         13   -1    0    0    0    0  0.00000000000E+00  0.00000000000E+00  0.74505805969E-08  0.10566000000E+00  0.10566000000E+00 0.  1.
     999900   -1    0    0    0    0 -0.00000000000E+00 -0.00000000000E+00 -0.74505805969E-08  0.93827000000E+00  0.93827000000E+00 0.  1.
     999902    2    1    2    0    0  0.87539021279E-02  0.15275091117E-02 -0.11702563440E-01  0.10292359850E+01  0.10291310892E+01 0.  0.
     999903    2    3    3    0    0 -0.21880968236E-01  0.81199592472E-01 -0.10307391616E+00  0.14039693304E+00  0.44887815988E-01 0.  0.
         14    1    1    2    0    0 -0.87539021279E-02 -0.15275091117E-02  0.11702563440E-01  0.14694015027E-01  0.00000000000E+00 0.  1.
     999901    1    3    3    0    0  0.30634870364E-01 -0.79672083361E-01  0.91371352722E-01  0.88883905194E+00  0.88000000000E+00 0. -1.
        -11    1    4    4    0    0 -0.25055932808E-01  0.21365476778E-01 -0.52561397753E-01  0.62026164008E-01  0.51100000000E-03 0.  1.
         11    1    4    4    0    0  0.31749645713E-02  0.59834115694E-01 -0.50512518409E-01  0.78370769028E-01  0.51100000000E-03 0. -1.
</event>
<event>
 8    1  0.2924722E+004  0.1043930E+01  0.7957747E-01            NaN
         13   -1    0    0    0    0  0.00000000000E+00  0.00000000000E+00  0.74505805969E-08  0.10566000000E+00  0.10566000000E+00 0.  1.
     999900   -1    0    0    0    0 -0.00000000000E+00 -0.00000000000E+00 -0.74505805969E-08  0.93827000000E+00  0.93827000000E+00 0. -1.
     999902    2    1    2    0    0  0.10196628198E-01  0.85173503862E-02 -0.14647893020E-02  0.10305635460E+01  0.10304768606E+01 0.  0.
     999903    2    3    3    0    0  0.11816624009E-01  0.85395932515E-01  0.10231048556E+00  0.14113550034E+00  0.44941029212E-01 0.  0.
         14    1    1    2    0    0 -0.10196628198E-01 -0.85173503862E-02  0.14647893020E-02  0.13366453976E-01  0.00000000000E+00 0. -1.
     999901    1    3    3    0    0 -0.16199958116E-02 -0.76878582129E-01 -0.10377527487E+00  0.88942804568E+00  0.88000000000E+00 0. -1.
        -11    1    4    4    0    0  0.23261784154E-02  0.21750461122E-01  0.60649675302E-01  0.64475870683E-01  0.51100000000E-03 0.  1.
         11    1    4    4    0    0  0.94904455940E-02  0.63645471393E-01  0.41660810261E-01  0.76659629656E-01  0.51100000000E-03 0. -1.
</event>
<event>
 8    1  0.2924722E+004  0.1043930E+01  0.7957747E-01            NaN
         13   -1    0    0    0    0  0.00000000000E+00  0.00000000000E+00  0.74505805969E-08  0.10566000000E+00  0.10566000000E+00 0.  1.
     999900   -1    0    0    0    0 -0.00000000000E+00 -0.00000000000E+00 -0.74505805969E-08  0.93827000000E+00  0.93827000000E+00 0. -1.
     999902    2    1    2    0    0 -0.11199270189E-01 -0.76898682442E-02 -0.21550438382E-02  0.10301749304E+01  0.10300830963E+01 0.  0.
     999903    2    3    3    0    0  0.13590329094E-01  0.11696568584E+00 -0.58621749381E-01  0.13925292468E+00  0.45707754509E-01 0.  0.
         14    1    1    2    0    0  0.11199270189E-01  0.76898682442E-02  0.21550438382E-02  0.13755069623E-01  0.00000000000E+00 0.  1.
     999901    1    3    3    0    0 -0.24789599283E-01 -0.12465555409E+00  0.56466705543E-01  0.89092200570E+00  0.88000000000E+00 0. -1.
        -11    1    4    4    0    0  0.29255379074E-01  0.53916191796E-01 -0.28562102350E-01  0.67667479296E-01  0.51100000000E-03 0. -1.
         11    1    4    4    0    0 -0.15665049980E-01  0.63049494047E-01 -0.30059647032E-01  0.71585445386E-01  0.51100000000E-03 0.  1.
</event>
<event>
 8    1  0.2924722E+004  0.1043930E+01  0.7957747E-01            NaN
         13   -1    0    0    0    0  0.00000000000E+00  0.00000000000E+00  0.74505805969E-08  0.10566000000E+00  0.10566000000E+00 0.  1.
     999900   -1    0    0    0    0 -0.00000000000E+00 -0.00000000000E+00 -0.74505805969E-08  0.93827000000E+00  0.93827000000E+00 0.  1.
     999902    2    1    2    0    0 -0.12612648962E-01  0.64907671260E-02  0.65563269887E-03  0.10297300413E+01  0.10296321281E+01 0.  0.
     999903    2    3    3    0    0 -0.76780490431E-01  0.19746486005E-01 -0.10808240434E+00  0.14061970698E+00  0.42507980941E-01 0.  0.
         14    1    1    2    0    0  0.12612648962E-01 -0.64907671260E-02 -0.65563269887E-03  0.14199958660E-01  0.00000000000E+00 0.  1.
     999901    1    3    3    0    0  0.64167841470E-01 -0.13255718879E-01  0.10873803704E+00  0.88911033436E+00  0.88000000000E+00 0. -1.
        -11    1    4    4    0    0 -0.27375800123E-01 -0.12938790139E-01 -0.43245119243E-01  0.52794395365E-01  0.51100000000E-03 0. -1.
         11    1    4    4    0    0 -0.49404690308E-01  0.32685276144E-01 -0.64837285096E-01  0.87825311617E-01  0.51100000000E-03 0.  1.
</event>
<event>
 8    1  0.2924722E+004  0.1043930E+01  0.7957747E-01            NaN
         13   -1    0    0    0    0  0.00000000000E+00  0.00000000000E+00  0.74505805969E-08  0.10566000000E+00  0.10566000000E+00 0. -1.
     999900   -1    0    0    0    0 -0.00000000000E+00 -0.00000000000E+00 -0.74505805969E-08  0.93827000000E+00  0.93827000000E+00 0. -1.
     999902    2    1    2    0    0  0.47891713301E-02 -0.10541328289E-01  0.72068555332E-02  0.10302920188E+01  0.10302017518E+01 0.  0.
     999903    2    3    3    0    0  0.81621355943E-02  0.12847049888E+00  0.27729562519E-01  0.13913723625E+00  0.44932753477E-01 0.  0.
         14    1    1    2    0    0 -0.47891713301E-02  0.10541328289E-01 -0.72068555332E-02  0.13637981185E-01  0.00000000000E+00 0.  1.
     999901    1    3    3    0    0 -0.33729642642E-02 -0.13901182717E+00 -0.20522706986E-01  0.89115478256E+00  0.88000000000E+00 0. -1.
        -11    1    4    4    0    0 -0.10104594677E-01  0.69264362622E-01  0.32125827006E-01  0.77019378372E-01  0.51100000000E-03 0. -1.
         11    1    4    4    0    0  0.18266730271E-01  0.59206136257E-01 -0.43962644869E-02  0.62117857881E-01  0.51100000000E-03 0.  1.
</event>
<event>
 8    1  0.2924722E+004  0.1043930E+01  0.7957747E-01            NaN
         13   -1    0    0    0    0  0.00000000000E+00  0.00000000000E+00  0.74505805969E-08  0.10566000000E+00  0.10566000000E+00 0. -1.
     999900   -1    0    0    0    0 -0.00000000000E+00 -0.00000000000E+00 -0.74505805969E-08  0.93827000000E+00  0.93827000000E+00 0. -1.
     999902    2    1    2    0    0 -0.13825599605E-02  0.10332941330E-01  0.84540538835E-02  0.10305079221E+01  0.10304205090E+01 0.  0.
     999903    2    3    3    0    0 -0.12325417093E+00  0.67783202437E-02 -0.49122840203E-01  0.14023806208E+00  0.44901273361E-01 0.  0.
         14    1    1    2    0    0  0.13825599605E-02 -0.10332941330E-01 -0.84540538835E-02  0.13422077918E-01  0.00000000000E+00 0.  1.
     999901    1    3    3    0    0  0.12187161097E+00  0.35546210867E-02  0.57576894087E-01  0.89026986000E+00  0.88000000000E+00 0.  1.
        -11    1    4    4    0    0 -0.39938705114E-01 -0.17113243206E-01 -0.25575446069E-01  0.50421501583E-01  0.51100000000E-03 0. -1.
         11    1    4    4    0    0 -0.83315465817E-01  0.23891563449E-01 -0.23547394135E-01  0.89816560499E-01  0.51100000000E-03 0.  1.
</event>
<event>
 8    1  0.2924722E+004  0.1043930E+01  0.7957747E-01            NaN
         13   -1    0    0    0    0  0.00000000000E+00  0.00000000000E+00  0.74505805969E-08  0.10566000000E+00  0.10566000000E+00 0. -1.
     999900   -1    0    0    0    0 -0.00000000000E+00 -0.00000000000E+00 -0.74505805969E-08  0.93827000000E+00  0.93827000000E+00 0.  1.
     999902    2    1    2    0    0  0.53579028409E-02  0.93353038123E-02  0.84107091953E-02  0.10302700202E+01  0.10301794598E+01 0.  0.
     999903    2    3    3    0    0  0.39356836561E-01  0.75490189907E-01 -0.10341308301E+00  0.14008073863E+00  0.40995344144E-01 0.  0.
         14    1    1    2    0    0 -0.53579028409E-02 -0.93353038123E-02 -0.84107091953E-02  0.13659979842E-01  0.00000000000E+00 0.  1.
     999901    1    3    3    0    0 -0.33998933720E-01 -0.66154886095E-01  0.11182379220E+00  0.89018928153E+00  0.88000000000E+00 0. -1.
        -11    1    4    4    0    0  0.33918809183E-01  0.54628998511E-01 -0.99028609571E-01  0.11807514442E+00  0.51100000000E-03 0. -1.
         11    1    4    4    0    0  0.54380273777E-02  0.20861191396E-01 -0.43844734343E-02  0.22005594210E-01  0.51100000000E-03 0.  1.
</event>
<event>
 8    1  0.2924722E+004  0.1043930E+01  0.7957747E-01            NaN
         13   -1    0    0    0    0  0.00000000000E+00  0.00000000000E+00  0.74505805969E-08  0.10566000000E+00  0.10566000000E+00 0. -1.
     999900   -1    0    0    0    0 -0.00000000000E+00 -0.00000000000E+00 -0.74505805969E-08  0.93827000000E+00  0.93827000000E+00 0.  1.
     999902    2    1    2    0    0  0.88165235056E-02  0.64888914184E-02  0.86179792969E-02  0.10299977939E+01  0.10299035630E+01 0.  0.
     999903    2    3    3    0    0  0.15163442441E-01 -0.80041165865E-01  0.10444735819E+00  0.14055358318E+00  0.47005753829E-01 0.  0.
         14    1    1    2    0    0 -0.88165235056E-02 -0.64888914184E-02 -0.86179792969E-02  0.13932206061E-01  0.00000000000E+00 0.  1.
     999901    1    3    3    0    0 -0.63469189356E-02  0.86530057284E-01 -0.95829378889E-01  0.88944421076E+00  0.88000000000E+00 0.  1.
        -11    1    4    4    0    0 -0.12597884329E-01 -0.49945746228E-01  0.45190447551E-01  0.68525337844E-01  0.51100000000E-03 0. -1.
         11    1    4    4    0    0  0.27761326770E-01 -0.30095419637E-01  0.59256910635E-01  0.72028245336E-01  0.51100000000E-03 0.  1.
</event>
<event>
 8    1  0.2924722E+004  0.1043930E+01  0.7957747E-01            NaN
         13   -1    0    0    0    0  0.00000000000E+00  0.00000000000E+00  0.74505805969E-08  0.10566000000E+00  0.10566000000E+00 0. -1.
     999900   -1    0    0    0    0 -0.00000000000E+00 -0.00000000000E+00 -0.74505805969E-08  0.93827000000E+00  0.93827000000E+00 0.  1.
     999902    2    1    2    0    0 -0.24441343638E-01 -0.43011438694E-02  0.80310371215E-02  0.10178459690E+01  0.10175116903E+01 0.  0.
     999903    2    3    3    0    0  0.69343555582E-01 -0.97159263437E-01 -0.95403882383E-02  0.12783080467E+00  0.44735270690E-01 0.  0.
         14    1    1    2    0    0  0.24441343638E-01  0.43011438694E-02 -0.80310371215E-02  0.26084031028E-01  0.00000000000E+00 0.  1.
     999901    1    3    3    0    0 -0.93784899220E-01  0.92858119567E-01  0.17571425360E-01  0.89001516430E+00  0.88000000000E+00 0.  1.
        -11    1    4    4    0    0  0.46441350175E-01 -0.29512862855E-01 -0.12189290532E-01  0.56361760128E-01  0.51100000000E-03 0.  1.
         11    1    4    4    0    0  0.22902205407E-01 -0.67646400581E-01  0.26489022939E-02  0.71469044547E-01  0.51100000000E-03 0. -1.
</event>
<event>
 8    1  0.2924722E+004  0.1043930E+01  0.7957747E-01            NaN
         13   -1    0    0    0    0  0.00000000000E+00  0.00000000000E+00  0.74505805969E-08  0.10566000000E+00  0.10566000000E+00 0.  1.
     999900   -1    0    0    0    0 -0.00000000000E+00 -0.00000000000E+00 -0.74505805969E-08  0.93827000000E+00  0.93827000000E+00 0.  1.
     999902    2    1    2    0    0 -0.10837170236E-01 -0.25388378645E-02 -0.97954538557E-02  0.10291029682E+01  0.10289961507E+01 0.  0.
     999903    2    3    3    0    0 -0.32732842053E-01 -0.12714473940E+00  0.14860242939E-01  0.13971331537E+00  0.45406607073E-01 0.  0.
         14    1    1    2    0    0  0.10837170236E-01  0.25388378645E-02  0.97954538557E-02  0.14827031822E-01  0.00000000000E+00 0.  1.
     999901    1    3    3    0    0  0.21895671818E-01  0.12460590153E+00 -0.24655696795E-01  0.88938965281E+00  0.88000000000E+00 0.  1.
        -11    1    4    4    0    0 -0.38461225827E-01 -0.63278772152E-01  0.75574385952E-03  0.74056067726E-01  0.51100000000E-03 0.  1.
         11    1    4    4    0    0  0.57283837737E-02 -0.63865967244E-01  0.14104499080E-01  0.65657247642E-01  0.51100000000E-03 0. -1.
</event>
<event>
 8    1  0.2924722E+004  0.1043930E+01  0.7957747E-01            NaN
         13   -1    0    0    0    0  0.00000000000E+00  0.00000000000E+00  0.74505805969E-08  0.10566000000E+00  0.10566000000E+00 0. -1.
     999900   -1    0    0    0    0 -0.00000000000E+00 -0.00000000000E+00 -0.74505805969E-08  0.93827000000E+00  0.93827000000E+00 0. -1.
     999902    2    1    2    0    0  0.16274291420E-02  0.89847278061E-02  0.11301057022E-01  0.10294011408E+01  0.10292986063E+01 0.  0.
     999903    2    3    3    0    0 -0.93019775821E-01  0.31929077006E-01  0.89294051913E-01  0.14060001356E+00  0.46073761001E-01 0.  0.
         14    1    1    2    0    0 -0.16274291420E-02 -0.89847278061E-02 -0.11301057022E-01  0.14528859183E-01  0.00000000000E+00 0.  1.
     999901    1    3    3    0    0  0.94647204963E-01 -0.22944349200E-01 -0.77992994891E-01  0.88880112726E+00  0.88000000000E+00 0. -1.
        -11    1    4    4    0    0 -0.71329534319E-01  0.22741713966E-02  0.52476810994E-01  0.88584147199E-01  0.51100000000E-03 0. -1.
         11    1    4    4    0    0 -0.21690241501E-01  0.29654905609E-01  0.36817240918E-01  0.52015866357E-01  0.51100000000E-03 0.  1.
</event>
<event>
 8    1  0.2924722E+004  0.1043930E+01  0.7957747E-01            NaN
         13   -1    0    0    0    0  0.00000000000E+00  0.00000000000E+00  0.74505805969E-08  0.10566000000E+00  0.10566000000E+00 0. -1.
     999900   -1    0    0    0    0 -0.00000000000E+00 -0.00000000000E+00 -0.74505805969E-08  0.93827000000E+00  0.93827000000E+00 0.  1.
     999902    2    1    2    0    0 -0.13490420720E-01 -0.14685659690E-02  0.57112374577E-03  0.10303478676E+01  0.10302583433E+01 0.  0.
     999903    2    3    3    0    0  0.41408797169E-01  0.53222435967E-01  0.11399704373E+00  0.13969054344E+00  0.44393758270E-01 0.  0.
         14    1    1    2    0    0  0.13490420720E-01  0.14685659690E-02 -0.57112374577E-03  0.13582132363E-01  0.00000000000E+00 0.  1.
     999901    1    3    3    0    0 -0.54899217889E-01 -0.54691001936E-01 -0.11342591999E+00  0.89065732420E+00  0.88000000000E+00 0.  1.
        -11    1    4    4    0    0  0.37689088838E-01  0.17406587501E-01  0.41292037774E-01  0.58555530997E-01  0.51100000000E-03 0. -1.
         11    1    4    4    0    0  0.37197083307E-02  0.35815848466E-01  0.72705005961E-01  0.81135012444E-01  0.51100000000E-03 0.  1.
</event>
<event>
 8    1  0.2924722E+004  0.1043930E+01  0.7957747E-01            NaN
         13   -1    0    0    0    0  0.00000000000E+00  0.00000000000E+00  0.74505805969E-08  0.10566000000E+00  0.10566000000E+00 0. -1.
     999900   -1    0    0    0    0 -0.00000000000E+00 -0.00000000000E+00 -0.74505805969E-08  0.93827000000E+00  0.93827000000E+00 0. -1.
     999902    2    1    2    0    0  0.67798177934E-02 -0.11307872030E-01  0.30997401444E-02  0.10303859132E+01  0.10302968930E+01 0.  0.
     999903    2    3    3    0    0 -0.41668429254E-01 -0.12730400445E+00  0.20807794566E-02  0.14145207218E+00  0.45406954694E-01 0.  0.
         14    1    1    2    0    0 -0.67798177934E-02  0.11307872030E-01 -0.30997401444E-02  0.13544086832E-01  0.00000000000E+00 0.  1.
     999901    1    3    3    0    0  0.48448247048E-01  0.11599613242E+00  0.10189606879E-02  0.88893384099E+00  0.88000000000E+00 0. -1.
        -11    1    4    4    0    0 -0.35753287197E-01 -0.86598023697E-01  0.21248230668E-01  0.96069056835E-01  0.51100000000E-03 0.  1.
         11    1    4    4    0    0 -0.59151420573E-02 -0.40705980753E-01 -0.19167451212E-01  0.45383015342E-01  0.51100000000E-03 0. -1.
</event>
<event>
 8    1  0.2924722E+004  0.1043930E+01  0.7957747E-01            NaN
         13   -1    0    0    0    0  0.00000000000E+00  0.00000000000E+00  0.74505805969E-08  0.10566000000E+00  0.10566000000E+00 0.  1.
     999900   -1    0    0    0    0 -0.00000000000E+00 -0.00000000000E+00 -0.74505805969E-08  0.93827000000E+00  0.93827000000E+00 0. -1.
     999902    2    1    2    0    0  0.77959545073E-03 -0.78929341706E-02 -0.11474784554E-01  0.10299809190E+01  0.10298864582E+01 0.  0.
     999903    2    3    3    0    0 -0.79132183908E-01  0.75209917216E-02 -0.10720177405E+00  0.14105621014E+00  0.45674568549E-01 0.  0.
         14    1    1    2    0    0 -0.77959545073E-03  0.78929341706E-02  0.11474784554E-01  0.13949080954E-01  0.00000000000E+00 0.  1.
     999901    1    3    3    0    0  0.79911779359E-01 -0.15413925892E-01  0.95726989496E-01  0.88892470891E+00  0.88000000000E+00 0.  1.
        -11    1    4    4    0    0 -0.30682664747E-01 -0.15289659571E-01 -0.23063237356E-01  0.41320378073E-01  0.51100000000E-03 0.  1.
         11    1    4    4    0    0 -0.48449519161E-01  0.22810651293E-01 -0.84138536694E-01  0.99735832064E-01  0.51100000000E-03 0. -1.
</event>
<event>
 8    1  0.2924722E+004  0.1043930E+01  0.7957747E-01            NaN
         13   -1    0    0    0    0  0.00000000000E+00  0.00000000000E+00  0.74505805969E-08  0.10566000000E+00  0.10566000000E+00 0. -1.
     999900   -1    0    0    0    0 -0.00000000000E+00 -0.00000000000E+00 -0.74505805969E-08  0.93827000000E+00  0.93827000000E+00 0.  1.
     999902    2    1    2    0    0  0.26449819101E-02 -0.13179860530E-01 -0.40940506295E-03  0.10304811240E+01  0.10303933592E+01 0.  0.
     999903    2    3    3    0    0  0.62320503971E-01 -0.11743738328E+00  0.21928827809E-01  0.14203878169E+00  0.44930588772E-01 0.  0.
         14    1    1    2    0    0 -0.26449819101E-02  0.13179860530E-01  0.40940506295E-03  0.13448875990E-01  0.00000000000E+00 0.  1.
     999901    1    3    3    0    0 -0.59675522060E-01  0.10425752275E+00 -0.22338232872E-01  0.88844234232E+00  0.88000000000E+00 0.  1.
        -11    1    4    4    0    0  0.53345617318E-01 -0.96135694880E-01  0.35121035731E-01  0.11541912748E+00  0.51100000000E-03 0. -1.
         11    1    4    4    0    0  0.89748866523E-02 -0.21301688400E-01 -0.13192207922E-01  0.26619654205E-01  0.51100000000E-03 0.  1.
</event>
<event>
 8    1  0.2924722E+004  0.1043930E+01  0.7957747E-01            NaN
         13   -1    0    0    0    0  0.00000000000E+00  0.00000000000E+00  0.74505805969E-08  0.10566000000E+00  0.10566000000E+00 0.  1.
     999900   -1    0    0    0    0 -0.00000000000E+00 -0.00000000000E+00 -0.74505805969E-08  0.93827000000E+00  0.93827000000E+00 0. -1.
     999902    2    1    2    0    0  0.47949411646E-02 -0.94421094153E-02  0.10272400101E-01  0.10291764548E+01  0.10290707012E+01 0.  0.
     999903    2    3    3    0    0 -0.96540588962E-01 -0.38519060640E-01 -0.79077297878E-01  0.13839156089E+00  0.45773373662E-01 0.  0.
         14    1    1    2    0    0 -0.47949411646E-02  0.94421094153E-02 -0.10272400101E-01  0.14753545161E-01  0.00000000000E+00 0. -1.
     999901    1    3    3    0    0  0.10133553013E+00  0.29076951224E-01  0.89349697979E-01  0.89078489395E+00  0.88000000000E+00 0. -1.
        -11    1    4    4    0    0 -0.44042999914E-01 -0.15345499030E-01 -0.84716694317E-02  0.47405700985E-01  0.51100000000E-03 0.  1.
         11    1    4    4    0    0 -0.52497589047E-01 -0.23173561610E-01 -0.70605628446E-01  0.90985859905E-01  0.51100000000E-03 0. -1.
</event>
<event>
 8    1  0.2924722E+004  0.1043930E+01  0.7957747E-01            NaN
         13   -1    0    0    0    0  0.00000000000E+00  0.00000000000E+00  0.74505805969E-08  0.10566000000E+00  0.10566000000E+00 0. -1.
     999900   -1    0    0    0    0 -0.00000000000E+00 -0.00000000000E+00 -0.74505805969E-08  0.93827000000E+00  0.93827000000E+00 0.  1.
     999902    2    1    2    0    0 -0.48306019411E-04 -0.48956766726E-03  0.13545285503E-01  0.10303757841E+01  0.10302866298E+01 0.  0.
     999903    2    3    3    0    0 -0.63904994925E-01 -0.11528358875E+00  0.20454084687E-01  0.14059880331E+00  0.44446593789E-01 0.  0.
         14    1    1    2    0    0  0.48306019411E-04  0.48956766726E-03 -0.13545285503E-01  0.13554215925E-01  0.00000000000E+00 0.  1.
     999901    1    3    3    0    0  0.63856688906E-01  0.11479402109E+00 -0.69087991838E-02  0.88977698077E+00  0.88000000000E+00 0.  1.
        -11    1    4    4    0    0 -0.14522532841E-01 -0.67777016104E-01  0.19725459416E-01  0.72069291256E-01  0.51100000000E-03 0.  1.
         11    1    4    4    0    0 -0.49382462084E-01 -0.47506572649E-01  0.72862527057E-03  0.68529512053E-01  0.51100000000E-03 0. -1.
</event>
<event>
 8    1  0.2924722E+004  0.1043930E+01  0.7957747E-01            NaN
         13   -1    0    0    0    0  0.00000000000E+00  0.00000000000E+00  0.74505805969E-08  0.10566000000E+00  0.10566000000E+00 0. -1.
     999900   -1    0    0    0    0 -0.00000000000E+00 -0.00000000000E+00 -0.74505805969E-08  0.93827000000E+00  0.93827000000E+00 0. -1.
     999902    2    1    2    0    0 -0.12686872954E-01  0.50668669918E-02  0.10776449651E-02  0.10302263069E+01  0.10301351621E+01 0.  0.
     999903    2    3    3    0    0  0.11962155781E+00  0.32814296473E-01  0.43108484367E-01  0.13891152962E+00  0.45298747149E-01 0.  0.
         14    1    1    2    0    0  0.12686872954E-01 -0.50668669918E-02 -0.10776449651E-02  0.13703693120E-01  0.00000000000E+00 0.  1.
     999901    1    3    3    0    0 -0.13230843076E+00 -0.27747429481E-01 -0.42030839402E-01  0.89131477726E+00  0.88000000000E+00 0.  1.
        -11    1    4    4    0    0  0.47703887525E-01  0.34693899070E-01  0.10469368158E-01  0.59909901588E-01  0.51100000000E-03 0.  1.
         11    1    4    4    0    0  0.71917670280E-01 -0.18796025963E-02  0.32639116209E-01  0.79001628036E-01  0.51100000000E-03 0. -1.
</event>
<event>
 8    1  0.2924722E+004  0.1043930E+01  0.7957747E-01            NaN
         13   -1    0    0    0    0  0.00000000000E+00  0.00000000000E+00  0.74505805969E-08  0.10566000000E+00  0.10566000000E+00 0. -1.
     999900   -1    0    0    0    0 -0.00000000000E+00 -0.00000000000E+00 -0.74505805969E-08  0.93827000000E+00  0.93827000000E+00 0.  1.
     999902    2    1    2    0    0  0.72706445540E-02  0.89994138640E-03  0.10189647014E-01  0.10313800569E+01  0.10313036995E+01 0.  0.
     999903    2    3    3    0    0 -0.62995059527E-01  0.55797842297E-01  0.10459641208E+00  0.14185002027E+00  0.45817486852E-01 0.  0.
         14    1    1    2    0    0 -0.72706445540E-02 -0.89994138640E-03 -0.10189647014E-01  0.12549943147E-01  0.00000000000E+00 0.  1.
     999901    1    3    3    0    0  0.70265704081E-01 -0.54897900910E-01 -0.94406765062E-01  0.88953003658E+00  0.88000000000E+00 0.  1.
        -11    1    4    4    0    0 -0.69716526062E-02  0.28196713006E-01  0.15169007416E-01  0.32772221032E-01  0.51100000000E-03 0.  1.
         11    1    4    4    0    0 -0.56023406921E-01  0.27601129291E-01  0.89427404660E-01  0.10907779924E+00  0.51100000000E-03 0. -1.
</event>
<event>
 8    1  0.2924722E+004  0.1043930E+01  0.7957747E-01            NaN
         13   -1    0    0    0    0  0.00000000000E+00  0.00000000000E+00  0.74505805969E-08  0.10566000000E+00  0.10566000000E+00 0.  1.
     999900   -1    0    0    0    0 -0.00000000000E+00 -0.00000000000E+00 -0.74505805969E-08  0.93827000000E+00  0.93827000000E+00 0. -1.
     999902    2    1    2    0    0  0.71313360137E-02 -0.20381409890E-02 -0.10431434245E-01  0.10311305941E+01  0.10310511516E+01 0.  0.
     999903    2    3    3    0    0  0.23151658971E-01  0.80644294187E-01 -0.10508412912E+00  0.14205682407E+00  0.45803554161E-01 0.  0.
         14    1    1    2    0    0 -0.71313360137E-02  0.20381409890E-02  0.10431434245E-01  0.12799405941E-01  0.00000000000E+00 0.  1.
     999901    1    3    3    0    0 -0.16020322957E-01 -0.82682435176E-01  0.94652694876E-01  0.88907376999E+00  0.88000000000E+00 0.  1.
        -11    1    4    4    0    0 -0.78274658964E-02  0.21126120977E-01 -0.51404745969E-01  0.56127455305E-01  0.51100000000E-03 0. -1.
         11    1    4    4    0    0  0.30979124867E-01  0.59518173210E-01 -0.53679383152E-01  0.85929368765E-01  0.51100000000E-03 0.  1.
</event>
<event>
 8    1  0.2924722E+004  0.1043930E+01  0.7957747E-01            NaN
         13   -1    0    0    0    0  0.00000000000E+00  0.00000000000E+00  0.74505805969E-08  0.10566000000E+00  0.10566000000E+00 0. -1.
     999900   -1    0    0    0    0 -0.00000000000E+00 -0.00000000000E+00 -0.74505805969E-08  0.93827000000E+00  0.93827000000E+00 0.  1.
     999902    2    1    2    0    0 -0.60404350810E-02  0.33365770723E-02  0.12130161498E-01  0.10299743409E+01  0.10298797903E+01 0.  0.
     999903    2    3    3    0    0 -0.78400053757E-01 -0.17815186012E-01  0.10751986093E+00  0.14161489438E+00  0.45058945103E-01 0.  0.
         14    1    1    2    0    0  0.60404350810E-02 -0.33365770723E-02 -0.12130161498E-01  0.13955659085E-01  0.00000000000E+00 0.  1.
     999901    1    3    3    0    0  0.72359618676E-01  0.21151763085E-01 -0.95389699428E-01  0.88835944654E+00  0.88000000000E+00 0.  1.
        -11    1    4    4    0    0 -0.22078404459E-01 -0.35998056287E-02  0.37440957334E-02  0.22686866639E-01  0.51100000000E-03 0. -1.
         11    1    4    4    0    0 -0.56321649297E-01 -0.14215380383E-01  0.10377576519E+00  0.11892802774E+00  0.51100000000E-03 0.  1.
</event>
<event>
 8    1  0.2924722E+004  0.1043930E+01  0.7957747E-01            NaN
         13   -1    0    0    0    0  0.00000000000E+00  0.00000000000E+00  0.74505805969E-08  0.10566000000E+00  0.10566000000E+00 0.  1.
     999900   -1    0    0    0    0 -0.00000000000E+00 -0.00000000000E+00 -0.74505805969E-08  0.93827000000E+00  0.93827000000E+00 0. -1.
     999902    2    1    2    0    0  0.41937883853E-03 -0.20987273555E-02  0.14178829638E-01  0.10295905528E+01  0.10294906929E+01 0.  0.
     999903    2    3    3    0    0  0.11126769431E+00  0.17519372876E-01  0.61184754840E-01  0.14117523560E+00  0.59156104485E-01 0.  0.
         14    1    1    2    0    0 -0.41937883853E-03  0.20987273555E-02 -0.14178829638E-01  0.14339447166E-01  0.00000000000E+00 0. -1.
     999901    1    3    3    0    0 -0.11084831547E+00 -0.19618100231E-01 -0.47005925202E-01  0.88841531724E+00  0.88000000000E+00 0.  1.
        -11    1    4    4    0    0  0.74476580071E-01  0.30996059144E-01  0.62374183210E-01  0.10197213597E+00  0.51100000000E-03 0. -1.
         11    1    4    4    0    0  0.36791114238E-01 -0.13476686268E-01 -0.11894283698E-02  0.39203099629E-01  0.51100000000E-03 0.  1.
</event>
<event>
 8    1  0.2924722E+004  0.1043930E+01  0.7957747E-01            NaN
         13   -1    0    0    0    0  0.00000000000E+00  0.00000000000E+00  0.74505805969E-08  0.10566000000E+00  0.10566000000E+00 0. -1.
     999900   -1    0    0    0    0 -0.00000000000E+00 -0.00000000000E+00 -0.74505805969E-08  0.93827000000E+00  0.93827000000E+00 0. -1.
     999902    2    1    2    0    0  0.58731503081E-02 -0.12057747474E-02 -0.12925601615E-01  0.10296815276E+01  0.10295829396E+01 0.  0.
     999903    2    3    3    0    0  0.70687865138E-01  0.10775533371E-01 -0.11101334482E+00  0.14178192501E+00  0.51626205876E-01 0.  0.
         14    1    1    2    0    0 -0.58731503081E-02  0.12057747474E-02  0.12925601615E-01  0.14248472353E-01  0.00000000000E+00 0. -1.
     999901    1    3    3    0    0 -0.64814714830E-01 -0.11981308118E-01  0.98087743205E-01  0.88789960264E+00  0.88000000000E+00 0.  1.
        -11    1    4    4    0    0  0.54058702903E-01 -0.11084133273E-01 -0.48383157527E-01  0.73392046049E-01  0.51100000000E-03 0. -1.
         11    1    4    4    0    0  0.16629162235E-01  0.21859666644E-01 -0.62630187293E-01  0.68389878958E-01  0.51100000000E-03 0.  1.
</event>
<event>
 8    1  0.2924722E+004  0.1043930E+01  0.7957747E-01            NaN
         13   -1    0    0    0    0  0.00000000000E+00  0.00000000000E+00  0.74505805969E-08  0.10566000000E+00  0.10566000000E+00 0.  1.
     999900   -1    0    0    0    0 -0.00000000000E+00 -0.00000000000E+00 -0.74505805969E-08  0.93827000000E+00  0.93827000000E+00 0. -1.
     999902    2    1    2    0    0  0.53978481996E-02 -0.11625547228E-01 -0.57273599971E-02  0.10298910269E+01  0.10297953362E+01 0.  0.
     999903    2    3    3    0    0  0.29991094505E-01  0.11337526717E+00  0.57810862173E-01  0.13844998170E+00  0.45528943463E-01 0.  0.
         14    1    1    2    0    0 -0.53978481996E-02  0.11625547228E-01  0.57273599971E-02  0.14038973113E-01  0.00000000000E+00 0.  1.
     999901    1    3    3    0    0 -0.24593246306E-01 -0.12500081440E+00 -0.63538222170E-01  0.89144104518E+00  0.88000000000E+00 0. -1.
        -11    1    4    4    0    0  0.11789692866E-01  0.10508211475E+00  0.47143221599E-01  0.11577561126E+00  0.51100000000E-03 0. -1.
         11    1    4    4    0    0  0.18201401639E-01  0.82931524192E-02  0.10667640575E-01  0.22674370446E-01  0.51100000000E-03 0.  1.
</event>
<event>
 8    1  0.2924722E+004  0.1043930E+01  0.7957747E-01            NaN
         13   -1    0    0    0    0  0.00000000000E+00  0.00000000000E+00  0.74505805969E-08  0.10566000000E+00  0.10566000000E+00 0.  1.
     999900   -1    0    0    0    0 -0.00000000000E+00 -0.00000000000E+00 -0.74505805969E-08  0.93827000000E+00  0.93827000000E+00 0. -1.
     999902    2    1    2    0    0  0.45350115269E-02  0.67798978237E-02  0.10595942332E-01  0.10305581139E+01  0.10304713576E+01 0.  0.
     999903    2    3    3    0    0  0.41981059037E-01 -0.12510822259E+00 -0.46695180840E-02  0.13981139509E+00  0.45945022808E-01 0.  0.
         14    1    1    2    0    0 -0.45350115269E-02 -0.67798978237E-02 -0.10595942332E-01  0.13371886103E-01  0.00000000000E+00 0. -1.
     999901    1    3    3    0    0 -0.37446047510E-01  0.13188812041E+00  0.15265460416E-01  0.89074671881E+00  0.88000000000E+00 0. -1.
        -11    1    4    4    0    0  0.19117291399E-01 -0.10972607969E+00  0.22191812813E-02  0.11140228580E+00  0.51100000000E-03 0. -1.
         11    1    4    4    0    0  0.22863767638E-01 -0.15382142896E-01 -0.68886993653E-02  0.28409109289E-01  0.51100000000E-03 0.  1.
</event>
<event>
 8    1  0.2924722E+004  0.1043930E+01  0.7957747E-01            NaN
         13   -1    0    0    0    0  0.00000000000E+00  0.00000000000E+00  0.74505805969E-08  0.10566000000E+00  0.10566000000E+00 0.  1.
     999900   -1    0    0    0    0 -0.00000000000E+00 -0.00000000000E+00 -0.74505805969E-08  0.93827000000E+00  0.93827000000E+00 0. -1.
     999902    2    1    2    0    0 -0.17691921830E-01 -0.30714176960E-02 -0.23612266631E-02  0.10258188682E+01  0.10256589770E+01 0.  0.
     999903    2    3    3    0    0  0.71039962007E-01  0.10465591335E+00 -0.13266175443E-01  0.13475352659E+00  0.44530721051E-01 0.  0.
         14    1    1    2    0    0  0.17691921830E-01  0.30714176960E-02  0.23612266631E-02  0.18111131827E-01  0.00000000000E+00 0. -1.
     999901    1    3    3    0    0 -0.88731883837E-01 -0.10772733104E+00  0.10904948780E-01  0.89106534158E+00  0.88000000000E+00 0.  1.
        -11    1    4    4    0    0 -0.30703602681E-02  0.20308122201E-01 -0.88915316142E-02  0.22386768301E-01  0.51100000000E-03 0.  1.
         11    1    4    4    0    0  0.74110322275E-01  0.84347791145E-01 -0.43746438285E-02  0.11236675829E+00  0.51100000000E-03 0. -1.
</event>
<event>
 8    1  0.2924722E+004  0.1043930E+01  0.7957747E-01            NaN
         13   -1    0    0    0    0  0.00000000000E+00  0.00000000000E+00  0.74505805969E-08  0.10566000000E+00  0.10566000000E+00 0. -1.
     999900   -1    0    0    0    0 -0.00000000000E+00 -0.00000000000E+00 -0.74505805969E-08  0.93827000000E+00  0.93827000000E+00 0. -1.
     999902    2    1    2    0    0 -0.48539337728E-02 -0.20654895261E-02 -0.11510775864E-01  0.10312680538E+01  0.10311903190E+01 0.  0.
     999903    2    3    3    0    0 -0.87845671218E-01 -0.23854758502E-01 -0.10034266187E+00  0.14264355230E+00  0.44638792178E-01 0.  0.
         14    1    1    2    0    0  0.48539337728E-02  0.20654895261E-02  0.11510775864E-01  0.12661946179E-01  0.00000000000E+00 0.  1.
     999901    1    3    3    0    0  0.82991737445E-01  0.21789268976E-01  0.88831886008E-01  0.88862450152E+00  0.88000000000E+00 0.  1.
        -11    1    4    4    0    0 -0.54431323390E-01  0.75121887826E-02 -0.62375562164E-01  0.83127455287E-01  0.51100000000E-03 0. -1.
         11    1    4    4    0    0 -0.33414347828E-01 -0.31366947285E-01 -0.37967099708E-01  0.59516097016E-01  0.51100000000E-03 0.  1.
</event>
<event>
 8    1  0.2924722E+004  0.1043930E+01  0.7957747E-01            NaN
         13   -1    0    0    0    0  0.00000000000E+00  0.00000000000E+00  0.74505805969E-08  0.10566000000E+00  0.10566000000E+00 0.  1.
     999900   -1    0    0    0    0 -0.00000000000E+00 -0.00000000000E+00 -0.74505805969E-08  0.93827000000E+00  0.93827000000E+00 0. -1.
     999902    2    1    2    0    0 -0.69058133783E-02  0.36054611570E-02 -0.12064321142E-01  0.10295690302E+01  0.10294688682E+01 0.  0.
     999903    2    3    3    0    0 -0.23123987525E-01 -0.61890100502E-01 -0.11589125014E+00  0.14089995291E+00  0.45353186585E-01 0.  0.
         14    1    1    2    0    0  0.69058133783E-02 -0.36054611570E-02  0.12064321142E-01  0.14360969785E-01  0.00000000000E+00 0.  1.
     999901    1    3    3    0    0  0.16218174147E-01  0.65495561659E-01  0.10382692899E+00  0.88866907730E+00  0.88000000000E+00 0. -1.
        -11    1    4    4    0    0 -0.19440775751E-01 -0.27422441369E-02 -0.40435010359E-01  0.44952361989E-01  0.51100000000E-03 0.  1.
         11    1    4    4    0    0 -0.36832117735E-02 -0.59147856365E-01 -0.75456239777E-01  0.95947590922E-01  0.51100000000E-03 0. -1.
</event>
<event>
 8    1  0.2924722E+004  0.1043930E+01  0.7957747E-01            NaN
         13   -1    0    0    0    0  0.00000000000E+00  0.00000000000E+00  0.74505805969E-08  0.10566000000E+00  0.10566000000E+00 0. -1.
     999900   -1    0    0    0    0 -0.00000000000E+00 -0.00000000000E+00 -0.74505805969E-08  0.93827000000E+00  0.93827000000E+00 0. -1.
     999902    2    1    2    0    0 -0.23720562912E-02  0.36338752047E-02  0.28839027836E-02  0.10387195686E+01  0.10387065002E+01 0.  0.
     999903    2    3    3    0    0  0.10566357228E+00  0.90606520799E-01  0.20395777045E-01  0.14768499921E+00  0.44950407699E-01 0.  0.
         14    1    1    2    0    0  0.23720562912E-02 -0.36338752047E-02 -0.28839027836E-02  0.52104313946E-02  0.00000000000E+00 0.  1.
     999901    1    3    3    0    0 -0.10803562857E+00 -0.86972645594E-01 -0.17511874261E-01  0.89103456940E+00  0.88000000000E+00 0.  1.
        -11    1    4    4    0    0  0.37383219936E-01  0.33267827669E-01 -0.14237808908E-01  0.52031046637E-01  0.51100000000E-03 0. -1.
         11    1    4    4    0    0  0.68280352340E-01  0.57338693130E-01  0.34633585953E-01  0.95653952571E-01  0.51100000000E-03 0.  1.
</event>
<event>
 8    1  0.2924722E+004  0.1043930E+01  0.7957747E-01            NaN
         13   -1    0    0    0    0  0.00000000000E+00  0.00000000000E+00  0.74505805969E-08  0.10566000000E+00  0.10566000000E+00 0.  1.
     999900   -1    0    0    0    0 -0.00000000000E+00 -0.00000000000E+00 -0.74505805969E-08  0.93827000000E+00  0.93827000000E+00 0. -1.
     999902    2    1    2    0    0 -0.84578282608E-03  0.13082382490E-01 -0.82668933460E-02  0.10284314321E+01  0.10283146430E+01 0.  0.
     999903    2    3    3    0    0  0.10816507202E+00 -0.55236328891E-02  0.72494317789E-01  0.13784065995E+00  0.44882380700E-01 0.  0.
         14    1    1    2    0    0  0.84578282608E-03 -0.13082382490E-01  0.82668933460E-02  0.15498567863E-01  0.00000000000E+00 0.  1.
     999901    1    3    3    0    0 -0.10901085485E+00  0.18606015380E-01 -0.80761211135E-01  0.89059077219E+00  0.88000000000E+00 0. -1.
        -11    1    4    4    0    0  0.39947330834E-01 -0.23895030257E-01  0.30472698932E-01  0.55638190238E-01  0.51100000000E-03 0.  1.
         11    1    4    4    0    0  0.68217741189E-01  0.18371397368E-01  0.42021618857E-01  0.82202469711E-01  0.51100000000E-03 0. -1.
</event>
<event>
 8    1  0.2924722E+004  0.1043930E+01  0.7957747E-01            NaN
         13   -1    0    0    0    0  0.00000000000E+00  0.00000000000E+00  0.74505805969E-08  0.10566000000E+00  0.10566000000E+00 0.  1.
     999900   -1    0    0    0    0 -0.00000000000E+00 -0.00000000000E+00 -0.74505805969E-08  0.93827000000E+00  0.93827000000E+00 0. -1.
     999902    2    1    2    0    0 -0.12644456986E-01 -0.81290344245E-03  0.57676409529E-02  0.10300084776E+01  0.10299143921E+01 0.  0.
     999903    2    3    3    0    0 -0.13485902418E+00  0.20771998967E-02 -0.12465253856E-02  0.14153003008E+00  0.42871020817E-01 0.  0.
         14    1    1    2    0    0  0.12644456986E-01  0.81290344245E-03 -0.57676409529E-02  0.13921522425E-01  0.00000000000E+00 0. -1.
     999901    1    3    3    0    0  0.12221456720E+00 -0.28901033391E-02  0.70141663385E-02  0.88847844749E+00  0.88000000000E+00 0. -1.
        -11    1    4    4    0    0 -0.17972506530E-01  0.14071965647E-01 -0.70204334524E-02  0.23886791643E-01  0.51100000000E-03 0. -1.
         11    1    4    4    0    0 -0.11688651765E+00 -0.11994765751E-01  0.57739080668E-02  0.11764323844E+00  0.51100000000E-03 0.  1.
</event>
<event>
 8    1  0.2924722E+004  0.1043930E+01  0.7957747E-01            NaN
         13   -1    0    0    0    0  0.00000000000E+00  0.00000000000E+00  0.74505805969E-08  0.10566000000E+00  0.10566000000E+00 0. -1.
     999900   -1    0    0    0    0 -0.00000000000E+00 -0.00000000000E+00 -0.74505805969E-08  0.93827000000E+00  0.93827000000E+00 0. -1.
     999902    2    1    2    0    0 -0.64160774390E-02 -0.87694687283E-02  0.61896994407E-02  0.10314247207E+01  0.10313489092E+01 0.  0.
     999903    2    3    3    0    0  0.70570822280E-01  0.14896161543E-02  0.11380463554E+00  0.14147348269E+00  0.45615691605E-01 0.  0.
         14    1    1    2    0    0  0.64160774390E-02  0.87694687283E-02 -0.61896994407E-02  0.12505279311E-01  0.00000000000E+00 0.  1.
     999901    1    3    3    0    0 -0.76986899719E-01 -0.10259084883E-01 -0.10761493609E+00  0.88995123800E+00  0.88000000000E+00 0. -1.
        -11    1    4    4    0    0  0.41619239227E-01  0.18525220568E-02  0.26224238806E-01  0.49229713931E-01  0.51100000000E-03 0. -1.
         11    1    4    4    0    0  0.28951583054E-01 -0.36290590250E-03  0.87580396729E-01  0.92243768756E-01  0.51100000000E-03 0.  1.
</event>
<event>
 8    1  0.2924722E+004  0.1043930E+01  0.7957747E-01            NaN
         13   -1    0    0    0    0  0.00000000000E+00  0.00000000000E+00  0.74505805969E-08  0.10566000000E+00  0.10566000000E+00 0. -1.
     999900   -1    0    0    0    0 -0.00000000000E+00 -0.00000000000E+00 -0.74505805969E-08  0.93827000000E+00  0.93827000000E+00 0. -1.
     999902    2    1    2    0    0 -0.83008445876E-02  0.51820966258E-02  0.98283809983E-02  0.10300607816E+01  0.10299674065E+01 0.  0.
     999903    2    3    3    0    0 -0.74257430045E-01  0.86571040092E-01  0.77690660710E-01  0.14125274816E+00  0.30129540335E-01 0.  0.
         14    1    1    2    0    0  0.83008445876E-02 -0.51820966258E-02 -0.98283809983E-02  0.13869218412E-01  0.00000000000E+00 0.  1.
     999901    1    3    3    0    0  0.65956585458E-01 -0.81388943466E-01 -0.67862279712E-01  0.88880803343E+00  0.88000000000E+00 0.  1.
        -11    1    4    4    0    0 -0.38413358274E-01  0.26773092677E-01  0.42125225152E-01  0.62985556284E-01  0.51100000000E-03 0. -1.
         11    1    4    4    0    0 -0.35844071772E-01  0.59797947415E-01  0.35565435559E-01  0.78267191873E-01  0.51100000000E-03 0.  1.
</event>
<event>
 8    1  0.2924722E+004  0.1043930E+01  0.7957747E-01            NaN
         13   -1    0    0    0    0  0.00000000000E+00  0.00000000000E+00  0.74505805969E-08  0.10566000000E+00  0.10566000000E+00 0. -1.
     999900   -1    0    0    0    0 -0.00000000000E+00 -0.00000000000E+00 -0.74505805969E-08  0.93827000000E+00  0.93827000000E+00 0.  1.
     999902    2    1    2    0    0  0.91776963715E-03 -0.10420021223E-01  0.11276536301E-01  0.10285488617E+01  0.10284338489E+01 0.  0.
     999903    2    3    3    0    0  0.44132423629E-01  0.83882198941E-01  0.91234490990E-01  0.13885583065E+00  0.44422013055E-01 0.  0.
         14    1    1    2    0    0 -0.91776963715E-03  0.10420021223E-01 -0.11276536301E-01  0.15381138266E-01  0.00000000000E+00 0. -1.
     999901    1    3    3    0    0 -0.43214653992E-01 -0.94302220164E-01 -0.79957954689E-01  0.88969303109E+00  0.88000000000E+00 0.  1.
        -11    1    4    4    0    0  0.16734181368E-01  0.45426053064E-01  0.17865113184E-01  0.51604093957E-01  0.51100000000E-03 0. -1.
         11    1    4    4    0    0  0.27398242261E-01  0.38456145876E-01  0.73369377807E-01  0.87251736690E-01  0.51100000000E-03 0.  1.
</event>
<event>
 8    1  0.2924722E+004  0.1043930E+01  0.7957747E-01            NaN
         13   -1    0    0    0    0  0.00000000000E+00  0.00000000000E+00  0.74505805969E-08  0.10566000000E+00  0.10566000000E+00 0. -1.
     999900   -1    0    0    0    0 -0.00000000000E+00 -0.00000000000E+00 -0.74505805969E-08  0.93827000000E+00  0.93827000000E+00 0. -1.
     999902    2    1    2    0    0 -0.10092544849E-01 -0.72395204618E-02 -0.50214350887E-02  0.10305328015E+01  0.10304457142E+01 0.  0.
     999903    2    3    3    0    0 -0.26596742386E-01  0.10766291534E+00  0.71676334778E-01  0.13960210485E+00  0.45305194677E-01 0.  0.
         14    1    1    2    0    0  0.10092544849E-01  0.72395204618E-02  0.50214350887E-02  0.13397198528E-01  0.00000000000E+00 0. -1.
     999901    1    3    3    0    0  0.16504197537E-01 -0.11490243580E+00 -0.76697769867E-01  0.89093069663E+00  0.88000000000E+00 0.  1.
        -11    1    4    4    0    0  0.88854997989E-02  0.58452200480E-01  0.35355279730E-01  0.68890266173E-01  0.51100000000E-03 0. -1.
         11    1    4    4    0    0 -0.35482242185E-01  0.49210714861E-01  0.36321055048E-01  0.70711838672E-01  0.51100000000E-03 0.  1.
</event>
<event>
 8    1  0.2924722E+004  0.1043930E+01  0.7957747E-01            NaN
         13   -1    0    0    0    0  0.00000000000E+00  0.00000000000E+00  0.74505805969E-08  0.10566000000E+00  0.10566000000E+00 0.  1.
     999900   -1    0    0    0    0 -0.00000000000E+00 -0.00000000000E+00 -0.74505805969E-08  0.93827000000E+00  0.93827000000E+00 0.  1.
     999902    2    1    2    0    0 -0.21699219429E-02 -0.12253486537E-01 -0.83402718991E-03  0.10314579474E+01  0.10313825407E+01 0.  0.
     999903    2    3    3    0    0 -0.12383863181E+00 -0.46423377839E-01  0.20007341992E-01  0.14218564995E+00  0.48221660884E-01 0.  0.
         14    1    1    2    0    0  0.21699219429E-02  0.12253486537E-01  0.83402718991E-03  0.12472052554E-01  0.00000000000E+00 0. -1.
     999901    1    3    3    0    0  0.12166870987E+00  0.34169891302E-01 -0.20841369182E-01  0.88927229750E+00  0.88000000000E+00 0. -1.
        -11    1    4    4    0    0 -0.91058337678E-01 -0.98073441043E-02  0.11477058813E-01  0.92302702339E-01  0.51100000000E-03 0. -1.
         11    1    4    4    0    0 -0.32780294131E-01 -0.36616033735E-01  0.85302831784E-02  0.49882947606E-01  0.51100000000E-03 0.  1.
</event>
<event>
 8    1  0.2924722E+004  0.1043930E+01  0.7957747E-01            NaN
         13   -1    0    0    0    0  0.00000000000E+00  0.00000000000E+00  0.74505805969E-08  0.10566000000E+00  0.10566000000E+00 0. -1.
     999900   -1    0    0    0    0 -0.00000000000E+00 -0.00000000000E+00 -0.74505805969E-08  0.93827000000E+00  0.93827000000E+00 0. -1.
     999902    2    1    2    0    0  0.66564289116E-02  0.54633700983E-02  0.10972769405E-01  0.10299815905E+01  0.10298871388E+01 0.  0.
     999903    2    3    3    0    0  0.31191568109E-01 -0.10706963684E+00 -0.69500472032E-01  0.13883536610E+00  0.44812076657E-01 0.  0.
         14    1    1    2    0    0 -0.66564289116E-02 -0.54633700983E-02 -0.10972769405E-01  0.13948409483E-01  0.00000000000E+00 0.  1.
     999901    1    3    3    0    0 -0.24535139197E-01  0.11253300693E+00  0.80473241437E-01  0.89114622442E+00  0.88000000000E+00 0. -1.
        -11    1    4    4    0    0  0.17508810932E-01 -0.18377790016E-01 -0.33752419944E-01  0.42234921560E-01  0.51100000000E-03 0. -1.
         11    1    4    4    0    0  0.13682757177E-01 -0.88691846820E-01 -0.35748052088E-01  0.96600444540E-01  0.51100000000E-03 0.  1.
</event>
<event>
 8    1  0.2924722E+004  0.1043930E+01  0.7957747E-01            NaN
         13   -1    0    0    0    0  0.00000000000E+00  0.00000000000E+00  0.74505805969E-08  0.10566000000E+00  0.10566000000E+00 0. -1.
     999900   -1    0    0    0    0 -0.00000000000E+00 -0.00000000000E+00 -0.74505805969E-08  0.93827000000E+00  0.93827000000E+00 0.  1.
     999902    2    1    2    0    0 -0.74368510021E-02  0.17774444997E-02 -0.10562606875E-01  0.10308902636E+01  0.10308077904E+01 0.  0.
     999903    2    3    3    0    0 -0.12561200590E-01  0.12776966360E+00 -0.38588431964E-01  0.14146025223E+00  0.45156009376E-01 0.  0.
         14    1    1    2    0    0  0.74368510021E-02 -0.17774444997E-02  0.10562606875E-01  0.13039736415E-01  0.00000000000E+00 0. -1.
     999901    1    3    3    0    0  0.51243495882E-02 -0.12599221910E+00  0.28025825090E-01  0.88943001136E+00  0.88000000000E+00 0. -1.
        -11    1    4    4    0    0 -0.19988049690E-01  0.24481519469E-01 -0.21562039640E-02  0.31682444074E-01  0.51100000000E-03 0. -1.
         11    1    4    4    0    0  0.74268491002E-02  0.10328814413E+00 -0.36432228000E-01  0.10977780815E+00  0.51100000000E-03 0.  1.
</event>
<event>
 8    1  0.2924722E+004  0.1043930E+01  0.7957747E-01            NaN
         13   -1    0    0    0    0  0.00000000000E+00  0.00000000000E+00  0.74505805969E-08  0.10566000000E+00  0.10566000000E+00 0. -1.
     999900   -1    0    0    0    0 -0.00000000000E+00 -0.00000000000E+00 -0.74505805969E-08  0.93827000000E+00  0.93827000000E+00 0.  1.
     999902    2    1    2    0    0 -0.47204727688E-02 -0.34535663642E-02  0.18665201303E-01  0.10243698435E+01  0.10241830776E+01 0.  0.
     999903    2    3    3    0    0 -0.41099998333E-01  0.82793532412E-01 -0.87087969444E-01  0.13310907072E+00  0.39871436049E-01 0.  0.
         14    1    1    2    0    0  0.47204727688E-02  0.34535663642E-02 -0.18665201303E-01  0.19560156530E-01  0.00000000000E+00 0.  1.
     999901    1    3    3    0    0  0.36379525564E-01 -0.86247098776E-01  0.10575317075E+00  0.89126077275E+00  0.88000000000E+00 0. -1.
        -11    1    4    4    0    0 -0.46049927271E-02  0.16461396016E-01 -0.41124837640E-01  0.44538712473E-01  0.51100000000E-03 0. -1.
         11    1    4    4    0    0 -0.36495005606E-01  0.66332136396E-01 -0.45963131804E-01  0.88570358243E-01  0.51100000000E-03 0.  1.
</event>
<event>
 8    1  0.2924722E+004  0.1043930E+01  0.7957747E-01            NaN
         13   -1    0    0    0    0  0.00000000000E+00  0.00000000000E+00  0.74505805969E-08  0.10566000000E+00  0.10566000000E+00 0. -1.
     999900   -1    0    0    0    0 -0.00000000000E+00 -0.00000000000E+00 -0.74505805969E-08  0.93827000000E+00  0.93827000000E+00 0. -1.
     999902    2    1    2    0    0  0.12703825003E-01  0.57070697733E-02 -0.22990533060E-02  0.10298146374E+01  0.10297178953E+01 0.  0.
     999903    2    3    3    0    0 -0.85281314336E-01  0.15990518623E-01 -0.98953654804E-01  0.13905712335E+00  0.44904994098E-01 0.  0.
         14    1    1    2    0    0 -0.12703825003E-01 -0.57070697733E-02  0.22990533060E-02  0.14115362596E-01  0.00000000000E+00 0. -1.
     999901    1    3    3    0    0  0.97985139339E-01 -0.10283448850E-01  0.96654601498E-01  0.89075751405E+00  0.88000000000E+00 0.  1.
        -11    1    4    4    0    0 -0.15064920278E-01  0.22541264460E-01 -0.25346570688E-01  0.37118326916E-01  0.51100000000E-03 0.  1.
         11    1    4    4    0    0 -0.70216394058E-01 -0.65507458365E-02 -0.73607084116E-01  0.10193879644E+00  0.51100000000E-03 0. -1.
</event>
<event>
 8    1  0.2924722E+004  0.1043930E+01  0.7957747E-01            NaN
         13   -1    0    0    0    0  0.00000000000E+00  0.00000000000E+00  0.74505805969E-08  0.10566000000E+00  0.10566000000E+00 0. -1.
     999900   -1    0    0    0    0 -0.00000000000E+00 -0.00000000000E+00 -0.74505805969E-08  0.93827000000E+00  0.93827000000E+00 0. -1.
     999902    2    1    2    0    0 -0.10639505737E-01  0.10401653396E-01 -0.30230843531E-02  0.10287467028E+01  0.10286346513E+01 0.  0.
     999903    2    3    3    0    0  0.50003945462E-01  0.12190966731E+00  0.81973434874E-02  0.13956867597E+00  0.45275350115E-01 0.  0.
         14    1    1    2    0    0  0.10639505737E-01 -0.10401653396E-01  0.30230843531E-02  0.15183297228E-01  0.00000000000E+00 0. -1.
     999901    1    3    3    0    0 -0.60643451199E-01 -0.11150801391E+00 -0.11220427840E-01  0.88917802680E+00  0.88000000000E+00 0. -1.
        -11    1    4    4    0    0  0.36847433036E-01  0.33618334855E-01 -0.44436486679E-03  0.49883708171E-01  0.51100000000E-03 0.  1.
         11    1    4    4    0    0  0.13156512426E-01  0.88291332453E-01  0.86417083542E-02  0.89684967803E-01  0.51100000000E-03 0. -1.
</event>
<event>
 8    1  0.2924722E+004  0.1043930E+01  0.7957747E-01            NaN
         13   -1    0    0    0    0  0.00000000000E+00  0.00000000000E+00  0.74505805969E-08  0.10566000000E+00  0.10566000000E+00 0.  1.
     999900   -1    0    0    0    0 -0.00000000000E+00 -0.00000000000E+00 -0.74505805969E-08  0.93827000000E+00  0.93827000000E+00 0. -1.
     999902    2    1    2    0    0 -0.17166203966E-01 -0.92367126765E-02 -0.10390999545E-01  0.10218399957E+01  0.10216011983E+01 0.  0.
     999903    2    3    3    0    0  0.11572465855E+00  0.38741368899E-01 -0.10252856045E-01  0.13057017304E+00  0.45280887479E-01 0.  0.
         14    1    1    2    0    0  0.17166203966E-01  0.92367126765E-02  0.10390999545E-01  0.22090004328E-01  0.00000000000E+00 0.  1.
     999901    1    3    3    0    0 -0.13289086251E+00 -0.47978081576E-01 -0.13814349979E-03  0.89126982263E+00  0.88000000000E+00 0. -1.
        -11    1    4    4    0    0  0.53403452032E-01  0.35306257712E-01  0.10323340050E-01  0.64848230456E-01  0.51100000000E-03 0. -1.
         11    1    4    4    0    0  0.62321206514E-01  0.34351111876E-02 -0.20576196095E-01  0.65721942584E-01  0.51100000000E-03 0.  1.
</event>
<event>
 7    1  0.2924722E+004  0.1043930E+01  0.7957747E-01            NaN
         13   -1    0    0    0    0  0.00000000000E+00  0.00000000000E+00  0.74505805969E-08  0.10566000000E+00  0.10566000000E+00 0.  1.
     999900   -1    0    0    0    0 -0.00000000000E+00 -0.00000000000E+00 -0.74505805969E-08  0.93827000000E+00  0.93827000000E+00 0.  1.
     999903    2    1    2    0    0 -0.68323327840E-01  0.53684605048E-01 -0.73029212948E-01  0.12101098807E+00  0.41955683101E-01 0.  0.
         14    1    1    2    0    0 -0.13025880265E-01  0.28941679548E-01 -0.39414684236E-02  0.31981706413E-01  0.00000000000E+00 0. -1.
     999901    1    1    2    0    0  0.81349208105E-01 -0.82626284596E-01  0.76970681372E-01  0.89093730551E+00  0.88000000000E+00 0.  1.
        -11    1    3    3    0    0 -0.30067896887E-01 -0.57037658210E-03 -0.21503541393E-01  0.36973871397E-01  0.51100000000E-03 0. -1.
         11    1    3    3    0    0 -0.38255430952E-01  0.54254981630E-01 -0.51525671555E-01  0.84037116676E-01  0.51100000000E-03 0.  1.
</event>
<event>
 8    1  0.2924722E+004  0.1043930E+01  0.7957747E-01            NaN
         13   -1    0    0    0    0  0.00000000000E+00  0.00000000000E+00  0.74505805969E-08  0.10566000000E+00  0.10566000000E+00 0.  1.
     999900   -1    0    0    0    0 -0.00000000000E+00 -0.00000000000E+00 -0.74505805969E-08  0.93827000000E+00  0.93827000000E+00 0.  1.
     999902    2    1    2    0    0 -0.10738354748E-01 -0.56789548558E-02  0.80049394455E-03  0.10317561107E+01  0.10316842871E+01 0.  0.
     999903    2    3    3    0    0 -0.63882312099E-01 -0.69576706594E-01 -0.96732074908E-01  0.14247561225E+00  0.44948168706E-01 0.  0.
         14    1    1    2    0    0  0.10738354748E-01  0.56789548558E-02 -0.80049394455E-03  0.12173889333E-01  0.00000000000E+00 0.  1.
     999901    1    3    3    0    0  0.53143957351E-01  0.63897751738E-01  0.97532568853E-01  0.88928049842E+00  0.88000000000E+00 0. -1.
        -11    1    4    4    0    0 -0.10871062963E-01 -0.12445623185E-01 -0.47487548235E-01  0.50283216930E-01  0.51100000000E-03 0.  1.
         11    1    4    4    0    0 -0.53011249135E-01 -0.57131083409E-01 -0.49244526673E-01  0.92192395319E-01  0.51100000000E-03 0. -1.
</event>
<event>
 7    1  0.2924722E+004  0.1043930E+01  0.7957747E-01            NaN
         13   -1    0    0    0    0  0.00000000000E+00  0.00000000000E+00  0.74505805969E-08  0.10566000000E+00  0.10566000000E+00 0.  1.
     999900   -1    0    0    0    0 -0.00000000000E+00 -0.00000000000E+00 -0.74505805969E-08  0.93827000000E+00  0.93827000000E+00 0.  1.
     999903    2    1    2    0    0 -0.79160938992E-01  0.27388716019E-01  0.48178420435E-01  0.10663870042E+00  0.45100512242E-01 0.  0.
         14    1    1    2    0    0  0.29949105495E-01  0.29932074801E-01 -0.33401332794E-01  0.53930761670E-01  0.00000000000E+00 0. -1.
     999901    1    1    2    0    0  0.49211833497E-01 -0.57320790821E-01 -0.14777087641E-01  0.88336053791E+00  0.88000000000E+00 0. -1.
        -11    1    3    3    0    0 -0.41582138076E-01  0.27615315099E-01  0.62134667471E-02  0.50304553720E-01  0.51100000000E-03 0.  1.
         11    1    3    3    0    0 -0.37578800917E-01 -0.22659907946E-03  0.41964953688E-01  0.56334146701E-01  0.51100000000E-03 0. -1.
</event>
<event>
 8    1  0.2924722E+004  0.1043930E+01  0.7957747E-01            NaN
         13   -1    0    0    0    0  0.00000000000E+00  0.00000000000E+00  0.74505805969E-08  0.10566000000E+00  0.10566000000E+00 0.  1.
     999900   -1    0    0    0    0 -0.00000000000E+00 -0.00000000000E+00 -0.74505805969E-08  0.93827000000E+00  0.93827000000E+00 0.  1.
     999902    2    1    2    0    0 -0.10788216576E-01 -0.51339351393E-02  0.75895590309E-02  0.10297756963E+01  0.10296784160E+01 0.  0.
     999903    2    3    3    0    0 -0.66494483285E-01 -0.83643345140E-01 -0.78785352632E-01  0.14032218938E+00  0.45447327200E-01 0.  0.
         14    1    1    2    0    0  0.10788216576E-01  0.51339351393E-02 -0.75895590309E-02  0.14154303699E-01  0.00000000000E+00 0. -1.
     999901    1    3    3    0    0  0.55706266709E-01  0.78509410001E-01  0.86374911663E-01  0.88945350692E+00  0.88000000000E+00 0. -1.
        -11    1    4    4    0    0 -0.17823553405E-01 -0.24890881394E-03 -0.21937699265E-01  0.28271271313E-01  0.51100000000E-03 0.  1.
         11    1    4    4    0    0 -0.48670929880E-01 -0.83394436326E-01 -0.56847653367E-01  0.11205091807E+00  0.51100000000E-03 0. -1.
</event>
<event>
 8    1  0.2924722E+004  0.1043930E+01  0.7957747E-01            NaN
         13   -1    0    0    0    0  0.00000000000E+00  0.00000000000E+00  0.74505805969E-08  0.10566000000E+00  0.10566000000E+00 0. -1.
     999900   -1    0    0    0    0 -0.00000000000E+00 -0.00000000000E+00 -0.74505805969E-08  0.93827000000E+00  0.93827000000E+00 0.  1.
     999902    2    1    2    0    0  0.10592716475E-01  0.10578121201E-01  0.76850089733E-04  0.10289597563E+01  0.10288508502E+01 0.  0.
     999903    2    3    3    0    0  0.10203294809E+00  0.75660247353E-01 -0.40807112589E-01  0.14088965912E+00  0.45271183814E-01 0.  0.
         14    1    1    2    0    0 -0.10592716475E-01 -0.10578121201E-01 -0.76850089733E-04  0.14970243699E-01  0.00000000000E+00 0.  1.
     999901    1    3    3    0    0 -0.91440231615E-01 -0.65082126152E-01  0.40883962678E-01  0.88807009718E+00  0.88000000000E+00 0. -1.
        -11    1    4    4    0    0  0.39884430504E-01  0.57435505217E-01 -0.24561863829E-01  0.74115796777E-01  0.51100000000E-03 0.  1.
         11    1    4    4    0    0  0.62148517586E-01  0.18224742136E-01 -0.16245248760E-01  0.66773862344E-01  0.51100000000E-03 0. -1.
</event>
<event>
 8    1  0.2924722E+004  0.1043930E+01  0.7957747E-01            NaN
         13   -1    0    0    0    0  0.00000000000E+00  0.00000000000E+00  0.74505805969E-08  0.10566000000E+00  0.10566000000E+00 0.  1.
     999900   -1    0    0    0    0 -0.00000000000E+00 -0.00000000000E+00 -0.74505805969E-08  0.93827000000E+00  0.93827000000E+00 0.  1.
     999902    2    1    2    0    0 -0.94159473028E-02  0.87162204340E-02 -0.46283649231E-02  0.10302898268E+01  0.10301995306E+01 0.  0.
     999903    2    3    3    0    0 -0.10311447216E+00  0.85944866957E-01 -0.16312856287E-01  0.14187539384E+00  0.42934875930E-01 0.  0.
         14    1    1    2    0    0  0.94159473028E-02 -0.87162204340E-02  0.46283649231E-02  0.13640173171E-01  0.00000000000E+00 0.  1.
     999901    1    3    3    0    0  0.93698524861E-01 -0.77228646523E-01  0.11684491364E-01  0.88841443299E+00  0.88000000000E+00 0. -1.
        -11    1    4    4    0    0 -0.52444594319E-01  0.51990436469E-01  0.11671127834E-01  0.74765749534E-01  0.51100000000E-03 0.  1.
         11    1    4    4    0    0 -0.50669877845E-01  0.33954430488E-01 -0.27983984121E-01  0.67109644306E-01  0.51100000000E-03 0. -1.
</event>
<event>
 8    1  0.2924722E+004  0.1043930E+01  0.7957747E-01            NaN
         13   -1    0    0    0    0  0.00000000000E+00  0.00000000000E+00  0.74505805969E-08  0.10566000000E+00  0.10566000000E+00 0. -1.
     999900   -1    0    0    0    0 -0.00000000000E+00 -0.00000000000E+00 -0.74505805969E-08  0.93827000000E+00  0.93827000000E+00 0. -1.
     999902    2    1    2    0    0 -0.42976866595E-02 -0.11680614710E-01  0.61214401184E-02  0.10300599279E+01  0.10299665413E+01 0.  0.
     999903    2    3    3    0    0 -0.43691818762E-01  0.12011607751E+00  0.31477162899E-01  0.13901269100E+00  0.44686344357E-01 0.  0.
         14    1    1    2    0    0  0.42976866595E-02  0.11680614710E-01 -0.61214401184E-02  0.13870072089E-01  0.00000000000E+00 0.  1.
     999901    1    3    3    0    0  0.39394132103E-01 -0.13179669222E+00 -0.25355722781E-01  0.89104723691E+00  0.88000000000E+00 0.  1.
        -11    1    4    4    0    0 -0.58941995112E-02  0.80006117242E-01  0.16591135943E-01  0.81922202710E-01  0.51100000000E-03 0.  1.
         11    1    4    4    0    0 -0.37797619251E-01  0.40109960269E-01  0.14886026956E-01  0.57090488292E-01  0.51100000000E-03 0. -1.
</event>
<event>
 8    1  0.2924722E+004  0.1043930E+01  0.7957747E-01            NaN
         13   -1    0    0    0    0  0.00000000000E+00  0.00000000000E+00  0.74505805969E-08  0.10566000000E+00  0.10566000000E+00 0. -1.
     999900   -1    0    0    0    0 -0.00000000000E+00 -0.00000000000E+00 -0.74505805969E-08  0.93827000000E+00  0.93827000000E+00 0.  1.
     999902    2    1    2    0    0  0.12156530050E-01  0.47216969795E-02  0.70803318155E-02  0.10290906353E+01  0.10289836388E+01 0.  0.
     999903    2    3    3    0    0 -0.77220769171E-01  0.92558131762E-01  0.52203237372E-01  0.13906837859E+00  0.45659401922E-01 0.  0.
         14    1    1    2    0    0 -0.12156530050E-01 -0.47216969795E-02 -0.70803318155E-02  0.14839364671E-01  0.00000000000E+00 0.  1.
     999901    1    3    3    0    0  0.89377299221E-01 -0.87836434782E-01 -0.45122905557E-01  0.89002225674E+00  0.88000000000E+00 0. -1.
        -11    1    4    4    0    0 -0.31868017986E-01  0.68459861801E-01  0.42969738286E-01  0.86884882330E-01  0.51100000000E-03 0. -1.
         11    1    4    4    0    0 -0.45352751185E-01  0.24098269961E-01  0.92334990864E-02  0.52183496256E-01  0.51100000000E-03 0.  1.
</event>
<event>
 8    1  0.2924722E+004  0.1043930E+01  0.7957747E-01            NaN
         13   -1    0    0    0    0  0.00000000000E+00  0.00000000000E+00  0.74505805969E-08  0.10566000000E+00  0.10566000000E+00 0. -1.
     999900   -1    0    0    0    0 -0.00000000000E+00 -0.00000000000E+00 -0.74505805969E-08  0.93827000000E+00  0.93827000000E+00 0. -1.
     999902    2    1    2    0    0 -0.11349733318E-01  0.25793969855E-02 -0.72183173284E-02  0.10302342401E+01  0.10301432015E+01 0.  0.
     999903    2    3    3    0    0  0.43433833759E-01  0.66221078170E-01  0.10493328091E+00  0.13915091972E+00  0.45609822488E-01 0.  0.
         14    1    1    2    0    0  0.11349733318E-01 -0.25793969855E-02  0.72183173284E-02  0.13695759937E-01  0.00000000000E+00 0. -1.
     999901    1    3    3    0    0 -0.54783567076E-01 -0.63641681184E-01 -0.11215159824E+00  0.89108332034E+00  0.88000000000E+00 0. -1.
        -11    1    4    4    0    0  0.64380267958E-02  0.32250708181E-01  0.71808919042E-01  0.78983152268E-01  0.51100000000E-03 0. -1.
         11    1    4    4    0    0  0.36995806963E-01  0.33970369988E-01  0.33124361869E-01  0.60167767452E-01  0.51100000000E-03 0.  1.
</event>
<event>
 8    1  0.2924722E+004  0.1043930E+01  0.7957747E-01            NaN
         13   -1    0    0    0    0  0.00000000000E+00  0.00000000000E+00  0.74505805969E-08  0.10566000000E+00  0.10566000000E+00 0. -1.
     999900   -1    0    0    0    0 -0.00000000000E+00 -0.00000000000E+00 -0.74505805969E-08  0.93827000000E+00  0.93827000000E+00 0. -1.
     999902    2    1    2    0    0  0.15863209554E-02  0.13365868635E-01  0.42650157853E-02  0.10298107501E+01  0.10297139543E+01 0.  0.
     999903    2    3    3    0    0  0.27773320554E-01 -0.11263221283E-01 -0.12839011314E+00  0.13914261085E+00  0.44479517903E-01 0.  0.
         14    1    1    2    0    0 -0.15863209554E-02 -0.13365868635E-01 -0.42650157853E-02  0.14119249916E-01  0.00000000000E+00 0.  1.
     999901    1    3    3    0    0 -0.26186999599E-01  0.24629089918E-01  0.13265512893E+00  0.89066813924E+00  0.88000000000E+00 0.  1.
        -11    1    4    4    0    0  0.45859681408E-02 -0.21076776994E-01 -0.26430184703E-01  0.34118578761E-01  0.51100000000E-03 0.  1.
         11    1    4    4    0    0  0.23187352413E-01  0.98135557107E-02 -0.10195992844E+00  0.10502403209E+00  0.51100000000E-03 0. -1.
</event>
<event>
 8    1  0.2924722E+004  0.1043930E+01  0.7957747E-01            NaN
         13   -1    0    0    0    0  0.00000000000E+00  0.00000000000E+00  0.74505805969E-08  0.10566000000E+00  0.10566000000E+00 0.  1.
     999900   -1    0    0    0    0 -0.00000000000E+00 -0.00000000000E+00 -0.74505805969E-08  0.93827000000E+00  0.93827000000E+00 0.  1.
     999902    2    1    2    0    0 -0.80346381579E-02  0.16630128457E-02 -0.10342128878E-01  0.10307284602E+01  0.10306439143E+01 0.  0.
     999903    2    3    3    0    0 -0.79813827424E-01 -0.62768132331E-01  0.85568199152E-01  0.14027777913E+00  0.45231107963E-01 0.  0.
         14    1    1    2    0    0  0.80346381579E-02 -0.16630128457E-02  0.10342128878E-01  0.13201539751E-01  0.00000000000E+00 0.  1.
     999901    1    3    3    0    0  0.71779189266E-01  0.64431145177E-01 -0.95910328031E-01  0.89045068112E+00  0.88000000000E+00 0.  1.
        -11    1    4    4    0    0  0.30955697548E-03 -0.18424353010E-01  0.73573689416E-02  0.19848037891E-01  0.51100000000E-03 0. -1.
         11    1    4    4    0    0 -0.80123384399E-01 -0.44343779321E-01  0.78210830211E-01  0.12042974124E+00  0.51100000000E-03 0.  1.
</event>
<event>
 8    1  0.2924722E+004  0.1043930E+01  0.7957747E-01            NaN
         13   -1    0    0    0    0  0.00000000000E+00  0.00000000000E+00  0.74505805969E-08  0.10566000000E+00  0.10566000000E+00 0.  1.
     999900   -1    0    0    0    0 -0.00000000000E+00 -0.00000000000E+00 -0.74505805969E-08  0.93827000000E+00  0.93827000000E+00 0.  1.
     999902    2    1    2    0    0  0.34885669472E-03 -0.14873983969E-01 -0.55493854120E-03  0.10290415798E+01  0.10289338695E+01 0.  0.
     999903    2    3    3    0    0 -0.28859065701E-02 -0.13383463982E+00 -0.12235441546E-01  0.14095457081E+00  0.42408085655E-01 0.  0.
         14    1    1    2    0    0 -0.34885669472E-03  0.14873983969E-01  0.55493854120E-03  0.14888420228E-01  0.00000000000E+00 0. -1.
     999901    1    3    3    0    0  0.32347632649E-02  0.11896065586E+00  0.11680503005E-01  0.88808700896E+00  0.88000000000E+00 0.  1.
        -11    1    4    4    0    0 -0.59238056941E-02 -0.26663048813E-01  0.13824937494E-01  0.30616983255E-01  0.51100000000E-03 0. -1.
         11    1    4    4    0    0  0.30378991240E-02 -0.10717159101E+00 -0.26060379040E-01  0.11033758756E+00  0.51100000000E-03 0.  1.
</event>
<event>
 8    1  0.2924722E+004  0.1043930E+01  0.7957747E-01            NaN
         13   -1    0    0    0    0  0.00000000000E+00  0.00000000000E+00  0.74505805969E-08  0.10566000000E+00  0.10566000000E+00 0. -1.
     999900   -1    0    0    0    0 -0.00000000000E+00 -0.00000000000E+00 -0.74505805969E-08  0.93827000000E+00  0.93827000000E+00 0. -1.
     999902    2    1    2    0    0 -0.22725824367E-02  0.76361610017E-02 -0.12288528341E-01  0.10292847443E+01  0.10291805485E+01 0.  0.
     999903    2    3    3    0    0  0.60559400232E-01  0.65176474303E-01 -0.97837505535E-01  0.14104076138E+00  0.49039831983E-01 0.  0.
         14    1    1    2    0    0  0.22725824367E-02 -0.76361610017E-02  0.12288528341E-01  0.14645255701E-01  0.00000000000E+00 0. -1.
     999901    1    3    3    0    0 -0.62831982669E-01 -0.57540313301E-01  0.85548977194E-01  0.88824398292E+00  0.88000000000E+00 0.  1.
        -11    1    4    4    0    0  0.47549615766E-01  0.61219221961E-01 -0.52293755237E-01  0.93507524055E-01  0.51100000000E-03 0.  1.
         11    1    4    4    0    0  0.13009784466E-01  0.39572523416E-02 -0.45543750298E-01  0.47533237321E-01  0.51100000000E-03 0. -1.
</event>
<event>
 8    1  0.2924722E+004  0.1043930E+01  0.7957747E-01            NaN
         13   -1    0    0    0    0  0.00000000000E+00  0.00000000000E+00  0.74505805969E-08  0.10566000000E+00  0.10566000000E+00 0.  1.
     999900   -1    0    0    0    0 -0.00000000000E+00 -0.00000000000E+00 -0.74505805969E-08  0.93827000000E+00  0.93827000000E+00 0. -1.
     999902    2    1    2    0    0  0.10903645048E-01 -0.20093805004E-02 -0.74941035894E-02  0.10305475983E+01  0.10304607046E+01 0.  0.
     999903    2    3    3    0    0  0.22234121651E-01 -0.70256746981E-01  0.11080831992E+00  0.13994019543E+00  0.43294432334E-01 0.  0.
         14    1    1    2    0    0 -0.10903645048E-01  0.20093805004E-02  0.74941035894E-02  0.13382401650E-01  0.00000000000E+00 0.  1.
     999901    1    3    3    0    0 -0.11330476604E-01  0.68247366481E-01 -0.11830242351E+00  0.89060740292E+00  0.88000000000E+00 0.  1.
        -11    1    4    4    0    0  0.32654850242E-01 -0.33683449461E-01  0.53471219646E-01  0.71136112231E-01  0.51100000000E-03 0. -1.
         11    1    4    4    0    0 -0.10420728590E-01 -0.36573297520E-01  0.57337100273E-01  0.68804083197E-01  0.51100000000E-03 0.  1.
</event>
<event>
 8    1  0.2924722E+004  0.1043930E+01  0.7957747E-01            NaN
         13   -1    0    0    0    0  0.00000000000E+00  0.00000000000E+00  0.74505805969E-08  0.10566000000E+00  0.10566000000E+00 0. -1.
     999900   -1    0    0    0    0 -0.00000000000E+00 -0.00000000000E+00 -0.74505805969E-08  0.93827000000E+00  0.93827000000E+00 0.  1.
     999902    2    1    2    0    0  0.55043910532E-02  0.13097059161E-01 -0.26664050123E-02  0.10294752086E+01  0.10293737242E+01 0.  0.
     999903    2    3    3    0    0  0.50058985442E-01 -0.87403769189E-02  0.12150460267E+00  0.13937385218E+00  0.45600504290E-01 0.  0.
         14    1    1    2    0    0 -0.55043910532E-02 -0.13097059161E-01  0.26664050123E-02  0.14454791428E-01  0.00000000000E+00 0. -1.
     999901    1    3    3    0    0 -0.44554594389E-01  0.21837436080E-01 -0.12417100768E+00  0.89010135639E+00  0.88000000000E+00 0.  1.
        -11    1    4    4    0    0  0.38984001326E-01 -0.16435327002E-01  0.45308643666E-01  0.61991988554E-01  0.51100000000E-03 0.  1.
         11    1    4    4    0    0  0.11074984116E-01  0.76949500835E-02  0.76195958999E-01  0.77381863630E-01  0.51100000000E-03 0. -1.
</event>
<event>
 7    1  0.2924722E+004  0.1043930E+01  0.7957747E-01            NaN
         13   -1    0    0    0    0  0.00000000000E+00  0.00000000000E+00  0.74505805969E-08  0.10566000000E+00  0.10566000000E+00 0.  1.
     999900   -1    0    0    0    0 -0.00000000000E+00 -0.00000000000E+00 -0.74505805969E-08  0.93827000000E+00  0.93827000000E+00 0. -1.
     999903    2    1    2    0    0 -0.11241324504E-01  0.72465633059E-01  0.64030915853E-01  0.10859792725E+00  0.48123967684E-01 0.  0.
         14    1    1    2    0    0  0.19788326398E-01 -0.10802289950E-01 -0.47950862231E-01  0.52986342755E-01  0.00000000000E+00 0. -1.
     999901    1    1    2    0    0 -0.85470018936E-02 -0.61663343109E-01 -0.16080053621E-01  0.88234573000E+00  0.88000000000E+00 0. -1.
        -11    1    3    3    0    0 -0.68273483536E-02  0.13967755828E-01  0.43898806767E-01  0.46573353379E-01  0.51100000000E-03 0. -1.
         11    1    3    3    0    0 -0.44139761507E-02  0.58497877231E-01  0.20132109086E-01  0.62024573866E-01  0.51100000000E-03 0.  1.
</event>
<event>
 8    1  0.2924722E+004  0.1043930E+01  0.7957747E-01            NaN
         13   -1    0    0    0    0  0.00000000000E+00  0.00000000000E+00  0.74505805969E-08  0.10566000000E+00  0.10566000000E+00 0.  1.
     999900   -1    0    0    0    0 -0.00000000000E+00 -0.00000000000E+00 -0.74505805969E-08  0.93827000000E+00  0.93827000000E+00 0. -1.
     999902    2    1    2    0    0  0.49621120195E-02 -0.11022090213E-01  0.75035905479E-02  0.10297028113E+01  0.10296045195E+01 0.  0.
     999903    2    3    3    0    0  0.53858316233E-01  0.10262554618E+00  0.62781121495E-01  0.13933084996E+00  0.45154131342E-01 0.  0.
         14    1    1    2    0    0 -0.49621120195E-02  0.11022090213E-01 -0.75035905479E-02  0.14227188741E-01  0.00000000000E+00 0. -1.
     999901    1    3    3    0    0 -0.48896204214E-01 -0.11364763639E+00 -0.55277530947E-01  0.89037196130E+00  0.88000000000E+00 0. -1.
        -11    1    4    4    0    0  0.46136910359E-01  0.76788200105E-01  0.25177822783E-01  0.93054962544E-01  0.51100000000E-03 0. -1.
         11    1    4    4    0    0  0.77214058744E-02  0.25837346076E-01  0.37603298712E-01  0.46275887414E-01  0.51100000000E-03 0.  1.
</event>
<event>
 8    1  0.2924722E+004  0.1043930E+01  0.7957747E-01            NaN
         13   -1    0    0    0    0  0.00000000000E+00  0.00000000000E+00  0.74505805969E-08  0.10566000000E+00  0.10566000000E+00 0. -1.
     999900   -1    0    0    0    0 -0.00000000000E+00 -0.00000000000E+00 -0.74505805969E-08  0.93827000000E+00  0.93827000000E+00 0. -1.
     999902    2    1    2    0    0  0.13656245712E-01 -0.80600961864E-03 -0.79632266173E-04  0.10302497573E+01  0.10301589263E+01 0.  0.
     999903    2    3    3    0    0  0.10095646547E+00 -0.56191807034E-01  0.68699155192E-01  0.14153189628E+00  0.44294205528E-01 0.  0.
         14    1    1    2    0    0 -0.13656245712E-01  0.80600961864E-03  0.79632266173E-04  0.13680242679E-01  0.00000000000E+00 0. -1.
     999901    1    3    3    0    0 -0.87300219758E-01  0.55385797416E-01 -0.68778787458E-01  0.88871786104E+00  0.88000000000E+00 0.  1.
        -11    1    4    4    0    0  0.89213923975E-01 -0.50024862079E-01  0.75004898647E-01  0.12683693074E+00  0.51100000000E-03 0. -1.
         11    1    4    4    0    0  0.11742541494E-01 -0.61669449549E-02 -0.63057434549E-02  0.14694965544E-01  0.51100000000E-03 0.  1.
</event>
<event>
 8    1  0.2924722E+004  0.1043930E+01  0.7957747E-01            NaN
         13   -1    0    0    0    0  0.00000000000E+00  0.00000000000E+00  0.74505805969E-08  0.10566000000E+00  0.10566000000E+00 0.  1.
     999900   -1    0    0    0    0 -0.00000000000E+00 -0.00000000000E+00 -0.74505805969E-08  0.93827000000E+00  0.93827000000E+00 0. -1.
     999902    2    1    2    0    0 -0.85812251944E-02 -0.99342442766E-02 -0.41693337951E-02  0.10301564754E+01  0.10300643931E+01 0.  0.
     999903    2    3    3    0    0  0.31273073525E-01  0.43045826042E-02 -0.12932189658E+00  0.14029453484E+00  0.44292990545E-01 0.  0.
         14    1    1    2    0    0  0.85812251944E-02  0.99342442766E-02  0.41693337951E-02  0.13773524584E-01  0.00000000000E+00 0.  1.
     999901    1    3    3    0    0 -0.39854298719E-01 -0.14238826881E-01  0.12515256278E+00  0.88986194058E+00  0.88000000000E+00 0.  1.
        -11    1    4    4    0    0  0.27705113295E-01 -0.85907745213E-02 -0.37052685122E-01  0.47058870634E-01  0.51100000000E-03 0.  1.
         11    1    4    4    0    0  0.35679602293E-02  0.12895357125E-01 -0.92269211458E-01  0.93235664204E-01  0.51100000000E-03 0. -1.
</event>
<event>
 8    1  0.2924722E+004  0.1043930E+01  0.7957747E-01            NaN
         13   -1    0    0    0    0  0.00000000000E+00  0.00000000000E+00  0.74505805969E-08  0.10566000000E+00  0.10566000000E+00 0. -1.
     999900   -1    0    0    0    0 -0.00000000000E+00 -0.00000000000E+00 -0.74505805969E-08  0.93827000000E+00  0.93827000000E+00 0. -1.
     999902    2    1    2    0    0  0.12487083186E-01 -0.51739402199E-03 -0.78581102441E-02  0.10291670450E+01  0.10290611555E+01 0.  0.
     999903    2    3    3    0    0  0.15646995787E-01 -0.13033294697E+00  0.13687371960E-01  0.13937703011E+00  0.44800745850E-01 0.  0.
         14    1    1    2    0    0 -0.12487083186E-01  0.51739402199E-03  0.78581102441E-02  0.14762954978E-01  0.00000000000E+00 0.  1.
     999901    1    3    3    0    0 -0.31599126007E-02  0.12981555295E+00 -0.21545482204E-01  0.88979001491E+00  0.88000000000E+00 0.  1.
        -11    1    4    4    0    0  0.92180474093E-02 -0.87626811517E-01 -0.12307638301E-01  0.88967238781E-01  0.51100000000E-03 0.  1.
         11    1    4    4    0    0  0.64289483774E-02 -0.42706135450E-01  0.25995010262E-01  0.50409791329E-01  0.51100000000E-03 0. -1.
</event>
<event>
 8    1  0.2924722E+004  0.1043930E+01  0.7957747E-01            NaN
         13   -1    0    0    0    0  0.00000000000E+00  0.00000000000E+00  0.74505805969E-08  0.10566000000E+00  0.10566000000E+00 0.  1.
     999900   -1    0    0    0    0 -0.00000000000E+00 -0.00000000000E+00 -0.74505805969E-08  0.93827000000E+00  0.93827000000E+00 0.  1.
     999902    2    1    2    0    0 -0.39957992604E-02 -0.12688896670E-01  0.35008891929E-02  0.10301738837E+01  0.10300820355E+01 0.  0.
     999903    2    3    3    0    0 -0.11526829863E-01  0.11072394483E+00 -0.68873685103E-01  0.13858792325E+00  0.45501298946E-01 0.  0.
         14    1    1    2    0    0  0.39957992604E-02  0.12688896670E-01 -0.35008891929E-02  0.13756116297E-01  0.00000000000E+00 0.  1.
     999901    1    3    3    0    0  0.75310306022E-02 -0.12341284150E+00  0.72374574296E-01  0.89158596045E+00  0.88000000000E+00 0. -1.
        -11    1    4    4    0    0  0.71039365473E-02  0.39369968722E-01 -0.37195717898E-02  0.40181546597E-01  0.51100000000E-03 0. -1.
         11    1    4    4    0    0 -0.18630766410E-01  0.71353976110E-01 -0.65154113313E-01  0.98406376655E-01  0.51100000000E-03 0.  1.
</event>
<event>
 8    1  0.2924722E+004  0.1043930E+01  0.7957747E-01            NaN
         13   -1    0    0    0    0  0.00000000000E+00  0.00000000000E+00  0.74505805969E-08  0.10566000000E+00  0.10566000000E+00 0.  1.
     999900   -1    0    0    0    0 -0.00000000000E+00 -0.00000000000E+00 -0.74505805969E-08  0.93827000000E+00  0.93827000000E+00 0. -1.
     999902    2    1    2    0    0  0.64856630270E-02  0.58463478960E-02  0.10417025667E-01  0.10303374273E+01  0.10302477644E+01 0.  0.
     999903    2    3    3    0    0 -0.64428042830E-01 -0.68594016974E-01 -0.91426537406E-01  0.13851780825E+00  0.44410129389E-01 0.  0.
         14    1    1    2    0    0 -0.64856630270E-02 -0.58463478960E-02 -0.10417025667E-01  0.13592572691E-01  0.00000000000E+00 0. -1.
     999901    1    3    3    0    0  0.70913705857E-01  0.74440364870E-01  0.10184356307E+00  0.89181961906E+00  0.88000000000E+00 0.  1.
        -11    1    4    4    0    0 -0.52809642608E-01 -0.39538274290E-01 -0.83154345856E-01  0.10614631337E+00  0.51100000000E-03 0.  1.
         11    1    4    4    0    0 -0.11618400223E-01 -0.29055742685E-01 -0.82721915500E-02  0.32371494879E-01  0.51100000000E-03 0. -1.
</event>
<event>
 8    1  0.2924722E+004  0.1043930E+01  0.7957747E-01            NaN
         13   -1    0    0    0    0  0.00000000000E+00  0.00000000000E+00  0.74505805969E-08  0.10566000000E+00  0.10566000000E+00 0. -1.
     999900   -1    0    0    0    0 -0.00000000000E+00 -0.00000000000E+00 -0.74505805969E-08  0.93827000000E+00  0.93827000000E+00 0.  1.
     999902    2    1    2    0    0  0.14170755907E-01 -0.14072832394E-02  0.16083908387E-02  0.10295989955E+01  0.10294992539E+01 0.  0.
     999903    2    3    3    0    0  0.60083699494E-01 -0.11719380733E+00 -0.20901952245E-01  0.14054262321E+00  0.44394795969E-01 0.  0.
         14    1    1    2    0    0 -0.14170755907E-01  0.14072832394E-02 -0.16083908387E-02  0.14331004507E-01  0.00000000000E+00 0.  1.
     999901    1    3    3    0    0 -0.45912943587E-01  0.11578652409E+00  0.22510343083E-01  0.88905637228E+00  0.88000000000E+00 0. -1.
        -11    1    4    4    0    0  0.22129795487E-01 -0.47054615684E-01  0.13442462575E-01  0.53710572763E-01  0.51100000000E-03 0.  1.
         11    1    4    4    0    0  0.37953904007E-01 -0.70139191649E-01 -0.34344414820E-01  0.86832050447E-01  0.51100000000E-03 0. -1.
</event>
<event>
 8    1  0.2924722E+004  0.1043930E+01  0.7957747E-01            NaN
         13   -1    0    0    0    0  0.00000000000E+00  0.00000000000E+00  0.74505805969E-08  0.10566000000E+00  0.10566000000E+00 0.  1.
     999900   -1    0    0    0    0 -0.00000000000E+00 -0.00000000000E+00 -0.74505805969E-08  0.93827000000E+00  0.93827000000E+00 0. -1.
     999902    2    1    2    0    0 -0.18775629610E-02 -0.22970537517E-02 -0.98518978557E-02  0.10336410938E+01  0.10335898845E+01 0.  0.
     999903    2    3    3    0    0 -0.11776989856E+00  0.63488234529E-01  0.17150708053E-01  0.14319857558E+00  0.48074736931E-01 0.  0.
         14    1    1    2    0    0  0.18775629610E-02  0.22970537517E-02  0.98518978557E-02  0.10288906160E-01  0.00000000000E+00 0.  1.
     999901    1    3    3    0    0  0.11589233560E+00 -0.65785288280E-01 -0.27002605909E-01  0.89044251826E+00  0.88000000000E+00 0. -1.
        -11    1    4    4    0    0 -0.48084234792E-01  0.18426554790E-01 -0.15864779273E-01  0.53884913467E-01  0.51100000000E-03 0.  1.
         11    1    4    4    0    0 -0.69685663765E-01  0.45061679739E-01  0.33015487326E-01  0.89313662110E-01  0.51100000000E-03 0. -1.
</event>
<event>
 8    1  0.2924722E+004  0.1043930E+01  0.7957747E-01            NaN
         13   -1    0    0    0    0  0.00000000000E+00  0.00000000000E+00  0.74505805969E-08  0.10566000000E+00  0.10566000000E+00 0.  1.
     999900   -1    0    0    0    0 -0.00000000000E+00 -0.00000000000E+00 -0.74505805969E-08  0.93827000000E+00  0.93827000000E+00 0. -1.
     999902    2    1    2    0    0  0.40372240313E-02 -0.13809451867E-01 -0.13421604529E-02  0.10294800334E+01  0.10293786173E+01 0.  0.
     999903    2    3    3    0    0 -0.10410065430E+00  0.10801357250E-01 -0.79531147125E-01  0.13907955597E+00  0.45434612151E-01 0.  0.
         14    1    1    2    0    0 -0.40372240313E-02  0.13809451867E-01  0.13421604529E-02  0.14449966554E-01  0.00000000000E+00 0. -1.
     999901    1    3    3    0    0  0.10813787833E+00 -0.24610809117E-01  0.78188986673E-01  0.89040047748E+00  0.88000000000E+00 0.  1.
        -11    1    4    4    0    0 -0.34340717490E-01 -0.58099201621E-02 -0.51305399754E-01  0.62012460158E-01  0.51100000000E-03 0.  1.
         11    1    4    4    0    0 -0.69759936809E-01  0.16611277412E-01 -0.28225747372E-01  0.77067095810E-01  0.51100000000E-03 0. -1.
</event>
<event>
 8    1  0.2924722E+004  0.1043930E+01  0.7957747E-01            NaN
         13   -1    0    0    0    0  0.00000000000E+00  0.00000000000E+00  0.74505805969E-08  0.10566000000E+00  0.10566000000E+00 0.  1.
     999900   -1    0    0    0    0 -0.00000000000E+00 -0.00000000000E+00 -0.74505805969E-08  0.93827000000E+00  0.93827000000E+00 0.  1.
     999902    2    1    2    0    0 -0.19270759056E-02  0.10331670146E-01  0.86626689947E-02  0.10303102032E+01  0.10302201784E+01 0.  0.
     999903    2    3    3    0    0  0.10446943373E+00  0.77592458798E-01 -0.28086926518E-01  0.14059408913E+00  0.45203652617E-01 0.  0.
         14    1    1    2    0    0  0.19270759056E-02 -0.10331670146E-01 -0.86626689947E-02  0.13619796755E-01  0.00000000000E+00 0. -1.
     999901    1    3    3    0    0 -0.10639650963E+00 -0.67260788652E-01  0.36749595513E-01  0.88971611412E+00  0.88000000000E+00 0. -1.
        -11    1    4    4    0    0  0.44162662333E-01  0.11654643011E-01 -0.22870880689E-01  0.51083360819E-01  0.51100000000E-03 0.  1.
         11    1    4    4    0    0  0.60306771396E-01  0.65937815787E-01 -0.52160458295E-02  0.89510728307E-01  0.51100000000E-03 0. -1.
</event>
<event>
 8    1  0.2924722E+004  0.1043930E+01  0.7957747E-01            NaN
         13   -1    0    0    0    0  0.00000000000E+00  0.00000000000E+00  0.74505805969E-08  0.10566000000E+00  0.10566000000E+00 0.  1.
     999900   -1    0    0    0    0 -0.00000000000E+00 -0.00000000000E+00 -0.74505805969E-08  0.93827000000E+00  0.93827000000E+00 0. -1.
     999902    2    1    2    0    0 -0.13960844049E-01  0.21173131222E-02 -0.22445783930E-02  0.10296322270E+01  0.10295329507E+01 0.  0.
     999903    2    3    3    0    0 -0.84784617052E-01  0.21152699908E-01  0.10037229589E+00  0.14063921482E+00  0.45485414794E-01 0.  0.
         14    1    1    2    0    0  0.13960844049E-01 -0.21173131222E-02  0.22445783930E-02  0.14297773029E-01  0.00000000000E+00 0. -1.
     999901    1    3    3    0    0  0.70823773003E-01 -0.19035386786E-01 -0.10261687429E+00  0.88899301216E+00  0.88000000000E+00 0. -1.
        -11    1    4    4    0    0 -0.31097029584E-01  0.23757463980E-01  0.66322976762E-01  0.77009354700E-01  0.51100000000E-03 0. -1.
         11    1    4    4    0    0 -0.53687587469E-01 -0.26047640715E-02  0.34049319131E-01  0.63629860116E-01  0.51100000000E-03 0.  1.
</event>
<event>
 8    1  0.2924722E+004  0.1043930E+01  0.7957747E-01            NaN
         13   -1    0    0    0    0  0.00000000000E+00  0.00000000000E+00  0.74505805969E-08  0.10566000000E+00  0.10566000000E+00 0.  1.
     999900   -1    0    0    0    0 -0.00000000000E+00 -0.00000000000E+00 -0.74505805969E-08  0.93827000000E+00  0.93827000000E+00 0. -1.
     999902    2    1    2    0    0  0.42585137677E-02  0.11420240767E-01  0.59041304545E-02  0.10303868986E+01  0.10302978915E+01 0.  0.
     999903    2    3    3    0    0 -0.32494950853E-01  0.90719346659E-01  0.94163507717E-01  0.14166372291E+00  0.43771252151E-01 0.  0.
         14    1    1    2    0    0 -0.42585137677E-02 -0.11420240767E-01 -0.59041304545E-02  0.13543101384E-01  0.00000000000E+00 0. -1.
     999901    1    3    3    0    0  0.36753464621E-01 -0.79299105892E-01 -0.88259377262E-01  0.88872317570E+00  0.88000000000E+00 0. -1.
        -11    1    4    4    0    0  0.92660454963E-02  0.23108671724E-01  0.33212616321E-01  0.41511556365E-01  0.51100000000E-03 0. -1.
         11    1    4    4    0    0 -0.41760996349E-01  0.67610674934E-01  0.60950891396E-01  0.10015216655E+00  0.51100000000E-03 0.  1.
</event>
<event>
 8    1  0.2924722E+004  0.1043930E+01  0.7957747E-01            NaN
         13   -1    0    0    0    0  0.00000000000E+00  0.00000000000E+00  0.74505805969E-08  0.10566000000E+00  0.10566000000E+00 0. -1.
     999900   -1    0    0    0    0 -0.00000000000E+00 -0.00000000000E+00 -0.74505805969E-08  0.93827000000E+00  0.93827000000E+00 0. -1.
     999902    2    1    2    0    0 -0.23358676637E-02 -0.12745712353E-01 -0.20803505539E-02  0.10308060783E+01  0.10307225300E+01 0.  0.
     999903    2    3    3    0    0  0.18629476075E-01 -0.91046504862E-01 -0.97257831732E-01  0.14197014710E+00  0.45386268950E-01 0.  0.
         14    1    1    2    0    0  0.23358676637E-02  0.12745712353E-01  0.20803505539E-02  0.13123921653E-01  0.00000000000E+00 0. -1.
     999901    1    3    3    0    0 -0.20965343738E-01  0.78300792509E-01  0.95177481178E-01  0.88883593124E+00  0.88000000000E+00 0.  1.
        -11    1    4    4    0    0 -0.60570992677E-02 -0.67190373003E-01 -0.75835849630E-01  0.10150158563E+00  0.51100000000E-03 0. -1.
         11    1    4    4    0    0  0.24686575342E-01 -0.23856131859E-01 -0.21421982103E-01  0.40468561472E-01  0.51100000000E-03 0.  1.
</event>
<event>
 8    1  0.2924722E+004  0.1043930E+01  0.7957747E-01            NaN
         13   -1    0    0    0    0  0.00000000000E+00  0.00000000000E+00  0.74505805969E-08  0.10566000000E+00  0.10566000000E+00 0.  1.
     999900   -1    0    0    0    0 -0.00000000000E+00 -0.00000000000E+00 -0.74505805969E-08  0.93827000000E+00  0.93827000000E+00 0.  1.
     999902    2    1    2    0    0  0.58496936559E-02  0.12607481582E-01 -0.16008000529E-02  0.10299396437E+01  0.10298446192E+01 0.  0.
     999903    2    3    3    0    0 -0.10631044154E+00 -0.39931453517E-01 -0.65718120130E-01  0.13895632943E+00  0.45755428260E-01 0.  0.
         14    1    1    2    0    0 -0.58496936559E-02 -0.12607481582E-01  0.16008000529E-02  0.13990356269E-01  0.00000000000E+00 0.  1.
     999901    1    3    3    0    0  0.11216013519E+00  0.52538935099E-01  0.64117320077E-01  0.89098331430E+00  0.88000000000E+00 0. -1.
        -11    1    4    4    0    0 -0.74585954754E-01 -0.12323651457E-01 -0.23027677680E-01  0.79028299311E-01  0.51100000000E-03 0.  1.
         11    1    4    4    0    0 -0.31724486785E-01 -0.27607802060E-01 -0.42690442450E-01  0.59928030119E-01  0.51100000000E-03 0. -1.
</event>
<event>
 8    1  0.2924722E+004  0.1043930E+01  0.7957747E-01            NaN
         13   -1    0    0    0    0  0.00000000000E+00  0.00000000000E+00  0.74505805969E-08  0.10566000000E+00  0.10566000000E+00 0. -1.
     999900   -1    0    0    0    0 -0.00000000000E+00 -0.00000000000E+00 -0.74505805969E-08  0.93827000000E+00  0.93827000000E+00 0.  1.
     999902    2    1    2    0    0  0.11544845067E-01 -0.52411174953E-02 -0.61543831687E-02  0.10298364131E+01  0.10297399713E+01 0.  0.
     999903    2    3    3    0    0  0.23726053619E-01  0.12537090599E+00  0.33324906479E-01  0.13923745909E+00  0.44673604431E-01 0.  0.
         14    1    1    2    0    0 -0.11544845067E-01  0.52411174953E-02  0.61543831687E-02  0.14093586925E-01  0.00000000000E+00 0. -1.
     999901    1    3    3    0    0 -0.12181208552E-01 -0.13061202349E+00 -0.39479289647E-01  0.89059895398E+00  0.88000000000E+00 0.  1.
        -11    1    4    4    0    0  0.47266355642E-02  0.92893656422E-01  0.39589088770E-01  0.10108971044E+00  0.51100000000E-03 0.  1.
         11    1    4    4    0    0  0.18999418055E-01  0.32477249573E-01 -0.62641822910E-02  0.38147748649E-01  0.51100000000E-03 0. -1.
</event>
<event>
 8    1  0.2924722E+004  0.1043930E+01  0.7957747E-01            NaN
         13   -1    0    0    0    0  0.00000000000E+00  0.00000000000E+00  0.74505805969E-08  0.10566000000E+00  0.10566000000E+00 0.  1.
     999900   -1    0    0    0    0 -0.00000000000E+00 -0.00000000000E+00 -0.74505805969E-08  0.93827000000E+00  0.93827000000E+00 0. -1.
     999902    2    1    2    0    0 -0.36230246142E-02 -0.10172415685E-01  0.87274765236E-02  0.10300457213E+01  0.10299521420E+01 0.  0.
     999903    2    3    3    0    0  0.58840071020E-02 -0.41221473648E-02  0.13312909786E+00  0.14122473102E+00  0.46577401321E-01 0.  0.
         14    1    1    2    0    0  0.36230246142E-02  0.10172415685E-01 -0.87274765236E-02  0.13884278688E-01  0.00000000000E+00 0. -1.
     999901    1    3    3    0    0 -0.95070317162E-02 -0.60502683200E-02 -0.12440162134E+00  0.88882099030E+00  0.88000000000E+00 0. -1.
        -11    1    4    4    0    0 -0.92243331822E-02  0.17102373734E-01  0.39297888273E-01  0.43842498260E-01  0.51100000000E-03 0. -1.
         11    1    4    4    0    0  0.15108340284E-01 -0.21224521099E-01  0.93831209591E-01  0.97382232755E-01  0.51100000000E-03 0.  1.
</event>
<event>
 8    1  0.2924722E+004  0.1043930E+01  0.7957747E-01            NaN
         13   -1    0    0    0    0  0.00000000000E+00  0.00000000000E+00  0.74505805969E-08  0.10566000000E+00  0.10566000000E+00 0. -1.
     999900   -1    0    0    0    0 -0.00000000000E+00 -0.00000000000E+00 -0.74505805969E-08  0.93827000000E+00  0.93827000000E+00 0.  1.
     999902    2    1    2    0    0  0.67309451383E-04  0.60680221509E-03 -0.14446594427E-01  0.10294705107E+01  0.10293689599E+01 0.  0.
     999903    2    3    3    0    0  0.50737346790E-01  0.82097080917E-02  0.11919411035E+00  0.13790722367E+00  0.46577770776E-01 0.  0.
         14    1    1    2    0    0 -0.67309451383E-04 -0.60680221509E-03  0.14446594427E-01  0.14459489273E-01  0.00000000000E+00 0. -1.
     999901    1    3    3    0    0 -0.50670037339E-01 -0.76029058767E-02 -0.13364070478E+00  0.89156328706E+00  0.88000000000E+00 0.  1.
        -11    1    4    4    0    0  0.53188410953E-01 -0.45647066671E-02  0.76600750304E-01  0.93369050948E-01  0.51100000000E-03 0.  1.
         11    1    4    4    0    0 -0.24510641633E-02  0.12774414759E-01  0.42593360047E-01  0.44538172718E-01  0.51100000000E-03 0. -1.
</event>
<event>
 8    1  0.2924722E+004  0.1043930E+01  0.7957747E-01            NaN
         13   -1    0    0    0    0  0.00000000000E+00  0.00000000000E+00  0.74505805969E-08  0.10566000000E+00  0.10566000000E+00 0.  1.
     999900   -1    0    0    0    0 -0.00000000000E+00 -0.00000000000E+00 -0.74505805969E-08  0.93827000000E+00  0.93827000000E+00 0. -1.
     999902    2    1    2    0    0 -0.14064668941E-01  0.14575296962E-02  0.78393743504E-03  0.10297682959E+01  0.10296709131E+01 0.  0.
     999903    2    3    3    0    0  0.37428052453E-01 -0.10298712014E+00 -0.73279736869E-01  0.13901265427E+00  0.44129266786E-01 0.  0.
         14    1    1    2    0    0  0.14064668941E-01 -0.14575296962E-02 -0.78393743504E-03  0.14161704104E-01  0.00000000000E+00 0.  1.
     999901    1    3    3    0    0 -0.51492721394E-01  0.10444464983E+00  0.74063674304E-01  0.89075564163E+00  0.88000000000E+00 0.  1.
        -11    1    4    4    0    0  0.24661499052E-01 -0.10238982049E+00 -0.64545427245E-01  0.12352424124E+00  0.51100000000E-03 0. -1.
         11    1    4    4    0    0  0.12766553401E-01 -0.59729965250E-03 -0.87343096240E-02  0.15488413031E-01  0.51100000000E-03 0.  1.
</event>
<event>
 8    1  0.2924722E+004  0.1043930E+01  0.7957747E-01            NaN
         13   -1    0    0    0    0  0.00000000000E+00  0.00000000000E+00  0.74505805969E-08  0.10566000000E+00  0.10566000000E+00 0.  1.
     999900   -1    0    0    0    0 -0.00000000000E+00 -0.00000000000E+00 -0.74505805969E-08  0.93827000000E+00  0.93827000000E+00 0.  1.
     999902    2    1    2    0    0  0.56277386296E-02  0.81147431828E-02  0.78488866396E-02  0.10313155036E+01  0.10312383538E+01 0.  0.
     999903    2    3    3    0    0 -0.11758197799E+00  0.59975023935E-01  0.20354810206E-01  0.14113208363E+00  0.45622600630E-01 0.  0.
         14    1    1    2    0    0 -0.56277386296E-02 -0.81147431828E-02 -0.78488866396E-02  0.12614496442E-01  0.00000000000E+00 0. -1.
     999901    1    3    3    0    0  0.12320971662E+00 -0.51860280752E-01 -0.12505923567E-01  0.89018341993E+00  0.88000000000E+00 0.  1.
        -11    1    4    4    0    0 -0.48762173868E-01  0.49127270024E-01  0.27712755387E-02  0.69276109515E-01  0.51100000000E-03 0. -1.
         11    1    4    4    0    0 -0.68819804119E-01  0.10847753911E-01  0.17583534667E-01  0.71855974117E-01  0.51100000000E-03 0.  1.
</event>
<event>
 8    1  0.2924722E+004  0.1043930E+01  0.7957747E-01            NaN
         13   -1    0    0    0    0  0.00000000000E+00  0.00000000000E+00  0.74505805969E-08  0.10566000000E+00  0.10566000000E+00 0. -1.
     999900   -1    0    0    0    0 -0.00000000000E+00 -0.00000000000E+00 -0.74505805969E-08  0.93827000000E+00  0.93827000000E+00 0. -1.
     999902    2    1    2    0    0  0.10641918404E-01 -0.67777421762E-02 -0.22646960538E-02  0.10311113782E+01  0.10310316955E+01 0.  0.
     999903    2    3    3    0    0 -0.83917249255E-01  0.65357379907E-01 -0.81273465781E-01  0.13960293870E+00  0.39622120372E-01 0.  0.
         14    1    1    2    0    0 -0.10641918404E-01  0.67777421762E-02  0.22646960538E-02  0.12818621788E-01  0.00000000000E+00 0. -1.
     999901    1    3    3    0    0  0.94559167659E-01 -0.72135122084E-01  0.79008769728E-01  0.89150843951E+00  0.88000000000E+00 0.  1.
        -11    1    4    4    0    0 -0.67009336704E-01  0.34151861711E-01 -0.40075002003E-01  0.85222460481E-01  0.51100000000E-03 0.  1.
         11    1    4    4    0    0 -0.16907912552E-01  0.31205518197E-01 -0.41198463778E-01  0.54380478220E-01  0.51100000000E-03 0. -1.
</event>
<event>
 8    1  0.2924722E+004  0.1043930E+01  0.7957747E-01            NaN
         13   -1    0    0    0    0  0.00000000000E+00  0.00000000000E+00  0.74505805969E-08  0.10566000000E+00  0.10566000000E+00 0.  1.
     999900   -1    0    0    0    0 -0.00000000000E+00 -0.00000000000E+00 -0.74505805969E-08  0.93827000000E+00  0.93827000000E+00 0.  1.
     999902    2    1    2    0    0 -0.28793696969E-03  0.63952117345E-02 -0.13114646561E-01  0.10293363166E+01  0.10292328585E+01 0.  0.
     999903    2    3    3    0    0 -0.47301555635E-01  0.52320129766E-01  0.11035638847E+00  0.13828947443E+00  0.44391588374E-01 0.  0.
         14    1    1    2    0    0  0.28793696969E-03 -0.63952117345E-02  0.13114646561E-01  0.14593683403E-01  0.00000000000E+00 0.  1.
     999901    1    3    3    0    0  0.47013618666E-01 -0.45924918031E-01 -0.12347103503E+00  0.89104684216E+00  0.88000000000E+00 0. -1.
        -11    1    4    4    0    0 -0.14563757021E-01  0.37400966809E-01  0.85807924955E-01  0.94732235501E-01  0.51100000000E-03 0.  1.
         11    1    4    4    0    0 -0.32737798615E-01  0.14919162957E-01  0.24548463517E-01  0.43557238934E-01  0.51100000000E-03 0. -1.
</event>
<event>
 7    1  0.2924722E+004  0.1043930E+01  0.7957747E-01            NaN
         13   -1    0    0    0    0  0.00000000000E+00  0.00000000000E+00  0.74505805969E-08  0.10566000000E+00  0.10566000000E+00 0. -1.
     999900   -1    0    0    0    0 -0.00000000000E+00 -0.00000000000E+00 -0.74505805969E-08  0.93827000000E+00  0.93827000000E+00 0. -1.
     999902    2    1    2    0    0 -0.12072067729E-01 -0.35736599529E-02  0.42133529288E-02  0.10306537728E+01  0.10305682613E+01 0.  0.
         14    1    1    2    0    0  0.12072067729E-01  0.35736599529E-02 -0.42133529288E-02  0.13276227160E-01  0.00000000000E+00 0.  1.
     999901    1    3    3    0    0  0.24637433048E-01  0.68031643154E-01  0.10035120330E+00  0.88865385363E+00  0.88000000000E+00 0.  1.
        -11    1    3    3    0    0 -0.13054813885E-02 -0.88134252035E-02 -0.61281932063E-01  0.61928321985E-01  0.51100000000E-03 0.  1.
         11    1    3    3    0    0 -0.35404019389E-01 -0.62791877904E-01 -0.34855918303E-01  0.80071597220E-01  0.51100000000E-03 0. -1.
</event>
<event>
 7    1  0.2924722E+004  0.1043930E+01  0.7957747E-01            NaN
         13   -1    0    0    0    0  0.00000000000E+00  0.00000000000E+00  0.74505805969E-08  0.10566000000E+00  0.10566000000E+00 0. -1.
     999900   -1    0    0    0    0 -0.00000000000E+00 -0.00000000000E+00 -0.74505805969E-08  0.93827000000E+00  0.93827000000E+00 0. -1.
     999902    2    1    2    0    0  0.62942131334E-02 -0.54142616746E-02  0.11775957984E-01  0.10295215117E+01  0.10294206810E+01 0.  0.
         14    1    1    2    0    0 -0.62942131334E-02  0.54142616746E-02 -0.11775957984E-01  0.14408488293E-01  0.00000000000E+00 0.  1.
     999901    1    3    3    0    0 -0.16097178003E-01 -0.12242134332E+00  0.74539134399E-01  0.89174109864E+00  0.88000000000E+00 0.  1.
        -11    1    3    3    0    0  0.25650488221E-01  0.10377745417E+00 -0.46552445705E-01  0.11659802255E+00  0.51100000000E-03 0. -1.
         11    1    3    3    0    0 -0.32590970845E-02  0.13229627478E-01 -0.16210730710E-01  0.21182390521E-01  0.51100000000E-03 0.  1.
</event>
<event>
 8    1  0.2924722E+004  0.1043930E+01  0.7957747E-01            NaN
         13   -1    0    0    0    0  0.00000000000E+00  0.00000000000E+00  0.74505805969E-08  0.10566000000E+00  0.10566000000E+00 0.  1.
     999900   -1    0    0    0    0 -0.00000000000E+00 -0.00000000000E+00 -0.74505805969E-08  0.93827000000E+00  0.93827000000E+00 0. -1.
     999902    2    1    2    0    0  0.69848682356E-02  0.11849407678E-01  0.23202707192E-02  0.10299807885E+01  0.10298863258E+01 0.  0.
     999903    2    3    3    0    0 -0.12173859672E+00  0.31634151980E-01 -0.41017616375E-01  0.13934094037E+00  0.43731536762E-01 0.  0.
         14    1    1    2    0    0 -0.69848682356E-02 -0.11849407678E-01 -0.23202707192E-02  0.13949211547E-01  0.00000000000E+00 0. -1.
     999901    1    3    3    0    0  0.12872346495E+00 -0.19784744302E-01  0.43337887094E-01  0.89063984808E+00  0.88000000000E+00 0.  1.
        -11    1    4    4    0    0 -0.63345882627E-01 -0.16365619421E-02 -0.33597242622E-01  0.71724577472E-01  0.51100000000E-03 0.  1.
         11    1    4    4    0    0 -0.58392714091E-01  0.33270713922E-01 -0.74203737526E-02  0.67616362897E-01  0.51100000000E-03 0. -1.
</event>
<event>
 8    1  0.2924722E+004  0.1043930E+01  0.7957747E-01            NaN
         13   -1    0    0    0    0  0.00000000000E+00  0.00000000000E+00  0.74505805969E-08  0.10566000000E+00  0.10566000000E+00 0. -1.
     999900   -1    0    0    0    0 -0.00000000000E+00 -0.00000000000E+00 -0.74505805969E-08  0.93827000000E+00  0.93827000000E+00 0. -1.
     999902    2    1    2    0    0  0.94621086630E-03  0.13982120087E-01 -0.38901553321E-03  0.10299105018E+01  0.10298150782E+01 0.  0.
     999903    2    3    3    0    0 -0.48972881634E-01 -0.64975425392E-02 -0.12256537130E+00  0.13983275558E+00  0.45720543496E-01 0.  0.
         14    1    1    2    0    0 -0.94621086630E-03 -0.13982120087E-01  0.38901553321E-03  0.14019498216E-01  0.00000000000E+00 0. -1.
     999901    1    3    3    0    0  0.49919092500E-01  0.20479662626E-01  0.12217635576E+00  0.89007774620E+00  0.88000000000E+00 0.  1.
        -11    1    4    4    0    0 -0.12925002000E-01  0.56779561336E-02 -0.31121328904E-02  0.14465177312E-01  0.51100000000E-03 0.  1.
         11    1    4    4    0    0 -0.36047879634E-01 -0.12175498673E-01 -0.11945323841E+00  0.12536757827E+00  0.51100000000E-03 0. -1.
</event>
<event>
 8    1  0.2924722E+004  0.1043930E+01  0.7957747E-01            NaN
         13   -1    0    0    0    0  0.00000000000E+00  0.00000000000E+00  0.74505805969E-08  0.10566000000E+00  0.10566000000E+00 0.  1.
     999900   -1    0    0    0    0 -0.00000000000E+00 -0.00000000000E+00 -0.74505805969E-08  0.93827000000E+00  0.93827000000E+00 0. -1.
     999902    2    1    2    0    0  0.58367657177E-02 -0.73895818753E-02 -0.55505593865E-02  0.10329991966E+01  0.10329413621E+01 0.  0.
     999903    2    3    3    0    0  0.49094685788E-01 -0.14272239359E-01  0.12478026535E+00  0.14232263209E+00  0.45515184222E-01 0.  0.
         14    1    1    2    0    0 -0.58367657177E-02  0.73895818753E-02  0.55505593865E-02  0.10930803440E-01  0.00000000000E+00 0.  1.
     999901    1    3    3    0    0 -0.43257920070E-01  0.68826574832E-02 -0.13033082474E+00  0.89067656447E+00  0.88000000000E+00 0. -1.
        -11    1    4    4    0    0  0.83052042529E-02 -0.12477409803E-01  0.81314277283E-01  0.82685760468E-01  0.51100000000E-03 0. -1.
         11    1    4    4    0    0  0.40789481535E-01 -0.17948295552E-02  0.43465988067E-01  0.59636871620E-01  0.51100000000E-03 0.  1.
</event>
<event>
 8    1  0.2924722E+004  0.1043930E+01  0.7957747E-01            NaN
         13   -1    0    0    0    0  0.00000000000E+00  0.00000000000E+00  0.74505805969E-08  0.10566000000E+00  0.10566000000E+00 0. -1.
     999900   -1    0    0    0    0 -0.00000000000E+00 -0.00000000000E+00 -0.74505805969E-08  0.93827000000E+00  0.93827000000E+00 0.  1.
     999902    2    1    2    0    0 -0.61674616610E-02 -0.21755743468E-02 -0.12117714677E-01  0.10301601156E+01  0.10300680823E+01 0.  0.
     999903    2    3    3    0    0 -0.11583802626E+00  0.60504794878E-01  0.19318327724E-01  0.14058455042E+00  0.48078472311E-01 0.  0.
         14    1    1    2    0    0  0.61674616610E-02  0.21755743468E-02  0.12117714677E-01  0.13769884389E-01  0.00000000000E+00 0. -1.
     999901    1    3    3    0    0  0.10967056460E+00 -0.62680369225E-01 -0.31436042401E-01  0.88957556519E+00  0.88000000000E+00 0. -1.
        -11    1    4    4    0    0 -0.62517874355E-01  0.55244057525E-01  0.23958769783E-01  0.86802501555E-01  0.51100000000E-03 0. -1.
         11    1    4    4    0    0 -0.53320151903E-01  0.52607373531E-02 -0.46404420591E-02  0.53782048864E-01  0.51100000000E-03 0.  1.
</event>
<event>
 8    1  0.2924722E+004  0.1043930E+01  0.7957747E-01            NaN
         13   -1    0    0    0    0  0.00000000000E+00  0.00000000000E+00  0.74505805969E-08  0.10566000000E+00  0.10566000000E+00 0.  1.
     999900   -1    0    0    0    0 -0.00000000000E+00 -0.00000000000E+00 -0.74505805969E-08  0.93827000000E+00  0.93827000000E+00 0.  1.
     999902    2    1    2    0    0 -0.65487146732E-02 -0.11259303404E-01 -0.62220132325E-02  0.10294949376E+01  0.10293937320E+01 0.  0.
     999903    2    3    3    0    0  0.12214632023E-01 -0.13210233935E+00  0.12144395569E-01  0.14084853580E+00  0.45723061946E-01 0.  0.
         14    1    1    2    0    0  0.65487146732E-02  0.11259303404E-01  0.62220132325E-02  0.14435062372E-01  0.00000000000E+00 0. -1.
     999901    1    3    3    0    0 -0.18763346697E-01  0.12084303595E+00 -0.18366408801E-01  0.88864640183E+00  0.88000000000E+00 0. -1.
        -11    1    4    4    0    0  0.22106405957E-01 -0.27666936641E-01  0.34105578955E-02  0.35581534447E-01  0.51100000000E-03 0. -1.
         11    1    4    4    0    0 -0.98917739338E-02 -0.10443540271E+00  0.87338376734E-02  0.10526700135E+00  0.51100000000E-03 0.  1.
</event>
<event>
 8    1  0.2924722E+004  0.1043930E+01  0.7957747E-01            NaN
         13   -1    0    0    0    0  0.00000000000E+00  0.00000000000E+00  0.74505805969E-08  0.10566000000E+00  0.10566000000E+00 0. -1.
     999900   -1    0    0    0    0 -0.00000000000E+00 -0.00000000000E+00 -0.74505805969E-08  0.93827000000E+00  0.93827000000E+00 0. -1.
     999902    2    1    2    0    0 -0.32517949772E-02 -0.95002719187E-02 -0.93554814961E-02  0.10302057743E+01  0.10301143543E+01 0.  0.
     999903    2    3    3    0    0 -0.42372275448E-01 -0.20453105132E-02  0.12473150259E+00  0.13915846481E+00  0.44805552883E-01 0.  0.
         14    1    1    2    0    0  0.32517949772E-02  0.95002719187E-02  0.93554814961E-02  0.13724225702E-01  0.00000000000E+00 0. -1.
     999901    1    3    3    0    0  0.39120480471E-01 -0.74549614054E-02 -0.13408698408E+00  0.89104730949E+00  0.88000000000E+00 0. -1.
        -11    1    4    4    0    0  0.74848887623E-03 -0.11066902976E-01  0.58946545671E-01  0.59983272207E-01  0.51100000000E-03 0. -1.
         11    1    4    4    0    0 -0.43120764324E-01  0.90215924623E-02  0.65784956917E-01  0.79175192605E-01  0.51100000000E-03 0.  1.
</event>
<event>
 8    1  0.2924722E+004  0.1043930E+01  0.7957747E-01            NaN
         13   -1    0    0    0    0  0.00000000000E+00  0.00000000000E+00  0.74505805969E-08  0.10566000000E+00  0.10566000000E+00 0.  1.
     999900   -1    0    0    0    0 -0.00000000000E+00 -0.00000000000E+00 -0.74505805969E-08  0.93827000000E+00  0.93827000000E+00 0. -1.
     999902    2    1    2    0    0  0.23808720061E-02 -0.11364061368E-01  0.79498781481E-02  0.10298583617E+01  0.10297622221E+01 0.  0.
     999903    2    3    3    0    0 -0.25509312213E-01 -0.11554236136E+00 -0.61107615528E-01  0.14058904477E+00  0.45059699907E-01 0.  0.
         14    1    1    2    0    0 -0.23808720061E-02  0.11364061368E-01 -0.79498781481E-02  0.14071638315E-01  0.00000000000E+00 0. -1.
     999901    1    3    3    0    0  0.27890184219E-01  0.10417830000E+00  0.69057493676E-01  0.88926931691E+00  0.88000000000E+00 0.  1.
        -11    1    4    4    0    0 -0.38365978400E-01 -0.91883038440E-01 -0.50465115624E-01  0.11163077563E+00  0.51100000000E-03 0.  1.
         11    1    4    4    0    0  0.12856666187E-01 -0.23659322925E-01 -0.10642499904E-01  0.28958269146E-01  0.51100000000E-03 0. -1.
</event>
<event>
 8    1  0.2924722E+004  0.1043930E+01  0.7957747E-01            NaN
         13   -1    0    0    0    0  0.00000000000E+00  0.00000000000E+00  0.74505805969E-08  0.10566000000E+00  0.10566000000E+00 0. -1.
     999900   -1    0    0    0    0 -0.00000000000E+00 -0.00000000000E+00 -0.74505805969E-08  0.93827000000E+00  0.93827000000E+00 0.  1.
     999902    2    1    2    0    0  0.24478949304E-02  0.70864296587E-03 -0.13551429159E-01  0.10301410335E+01  0.10300487432E+01 0.  0.
     999903    2    3    3    0    0 -0.42614464095E-02 -0.27940410971E-01 -0.13144448126E+00  0.14179169047E+00  0.45037821255E-01 0.  0.
         14    1    1    2    0    0 -0.24478949304E-02 -0.70864296587E-03  0.13551429159E-01  0.13788966484E-01  0.00000000000E+00 0. -1.
     999901    1    3    3    0    0  0.67093413398E-02  0.28649053937E-01  0.11789305210E+00  0.88834934304E+00  0.88000000000E+00 0. -1.
        -11    1    4    4    0    0 -0.13217107894E-01 -0.37447564374E-01 -0.91038528519E-01  0.99324150208E-01  0.51100000000E-03 0. -1.
         11    1    4    4    0    0  0.89556614843E-02  0.95071534035E-02 -0.40405952737E-01  0.42467540264E-01  0.51100000000E-03 0.  1.
</event>
<event>
 8    1  0.2924722E+004  0.1043930E+01  0.7957747E-01            NaN
         13   -1    0    0    0    0  0.00000000000E+00  0.00000000000E+00  0.74505805969E-08  0.10566000000E+00  0.10566000000E+00 0. -1.
     999900   -1    0    0    0    0 -0.00000000000E+00 -0.00000000000E+00 -0.74505805969E-08  0.93827000000E+00  0.93827000000E+00 0.  1.
     999902    2    1    2    0    0 -0.13269070722E-01 -0.39868399806E-03 -0.36508228425E-02  0.10301620773E+01  0.10300700704E+01 0.  0.
     999903    2    3    3    0    0  0.96652291139E-01 -0.37568195622E-02 -0.81684988944E-01  0.13989059406E+00  0.59507661800E-01 0.  0.
         14    1    1    2    0    0  0.13269070722E-01  0.39868399806E-03  0.36508228425E-02  0.13767922654E-01  0.00000000000E+00 0. -1.
     999901    1    3    3    0    0 -0.10992136186E+00  0.33581355642E-02  0.78034166101E-01  0.89027148328E+00  0.88000000000E+00 0.  1.
        -11    1    4    4    0    0  0.37213430448E-01 -0.19851568857E-01 -0.64572207584E-02  0.42671782394E-01  0.51100000000E-03 0. -1.
         11    1    4    4    0    0  0.59438860692E-01  0.16094749295E-01 -0.75227768185E-01  0.97218811669E-01  0.51100000000E-03 0.  1.
</event>
<event>
 8    1  0.2924722E+004  0.1043930E+01  0.7957747E-01            NaN
         13   -1    0    0    0    0  0.00000000000E+00  0.00000000000E+00  0.74505805969E-08  0.10566000000E+00  0.10566000000E+00 0. -1.
     999900   -1    0    0    0    0 -0.00000000000E+00 -0.00000000000E+00 -0.74505805969E-08  0.93827000000E+00  0.93827000000E+00 0. -1.
     999902    2    1    2    0    0  0.12907542241E-01  0.11923042716E-02 -0.44907551182E-02  0.10302116503E+01  0.10301203092E+01 0.  0.
     999903    2    3    3    0    0 -0.98997107534E-01 -0.13018330541E-01  0.84075433592E-01  0.13860155473E+00  0.46602663131E-01 0.  0.
         14    1    1    2    0    0 -0.12907542241E-01 -0.11923042716E-02  0.44907551182E-02  0.13718349672E-01  0.00000000000E+00 0. -1.
     999901    1    3    3    0    0  0.11190464977E+00  0.14210634813E-01 -0.88566188710E-01  0.89161009559E+00  0.88000000000E+00 0. -1.
        -11    1    4    4    0    0 -0.61077410262E-01  0.12420065015E-01  0.34663319453E-01  0.71319807177E-01  0.51100000000E-03 0. -1.
         11    1    4    4    0    0 -0.37919697272E-01 -0.25438395557E-01  0.49412114138E-01  0.67281747557E-01  0.51100000000E-03 0.  1.
</event>
<event>
 8    1  0.2924722E+004  0.1043930E+01  0.7957747E-01            NaN
         13   -1    0    0    0    0  0.00000000000E+00  0.00000000000E+00  0.74505805969E-08  0.10566000000E+00  0.10566000000E+00 0.  1.
     999900   -1    0    0    0    0 -0.00000000000E+00 -0.00000000000E+00 -0.74505805969E-08  0.93827000000E+00  0.93827000000E+00 0.  1.
     999902    2    1    2    0    0 -0.67510001911E-02 -0.97738327832E-02 -0.32436079788E-02  0.10316163976E+01  0.10315429061E+01 0.  0.
     999903    2    3    3    0    0  0.13091072588E+00  0.51561390168E-02  0.20573174875E-01  0.14047056554E+00  0.46308966098E-01 0.  0.
         14    1    1    2    0    0  0.67510001911E-02  0.97738327832E-02  0.32436079788E-02  0.12313602380E-01  0.00000000000E+00 0. -1.
     999901    1    3    3    0    0 -0.13766172607E+00 -0.14929971800E-01 -0.23816782853E-01  0.89114583208E+00  0.88000000000E+00 0.  1.
        -11    1    4    4    0    0  0.43971566924E-01 -0.19805139693E-01  0.11368463752E-01  0.49550432340E-01  0.51100000000E-03 0.  1.
         11    1    4    4    0    0  0.86939158951E-01  0.24961278709E-01  0.92047111225E-02  0.90920133203E-01  0.51100000000E-03 0. -1.
</event>
<event>
 7    1  0.2924722E+004  0.1043930E+01  0.7957747E-01            NaN
         13   -1    0    0    0    0  0.00000000000E+00  0.00000000000E+00  0.74505805969E-08  0.10566000000E+00  0.10566000000E+00 0. -1.
     999900   -1    0    0    0    0 -0.00000000000E+00 -0.00000000000E+00 -0.74505805969E-08  0.93827000000E+00  0.93827000000E+00 0. -1.
     999903    2    1    2    0    0  0.69520594587E-01  0.59939529371E-01  0.75412965078E-01  0.12696414720E+00  0.44798650874E-01 0.  0.
         14    1    1    2    0    0  0.79624724932E-03 -0.29326627019E-01  0.57986714612E-02  0.29905010495E-01  0.00000000000E+00 0.  1.
     999901    1    1    2    0    0 -0.70316841837E-01 -0.30612902352E-01 -0.81211636540E-01  0.88706084230E+00  0.88000000000E+00 0. -1.
        -11    1    3    3    0    0  0.20602124387E-01  0.12623346259E-01 -0.15595271085E-02  0.24217548303E-01  0.51100000000E-03 0.  1.
         11    1    3    3    0    0  0.48918470201E-01  0.47316183112E-01  0.76972492187E-01  0.10274659890E+00  0.51100000000E-03 0. -1.
</event>
<event>
 8    1  0.2924722E+004  0.1043930E+01  0.7957747E-01            NaN
         13   -1    0    0    0    0  0.00000000000E+00  0.00000000000E+00  0.74505805969E-08  0.10566000000E+00  0.10566000000E+00 0. -1.
     999900   -1    0    0    0    0 -0.00000000000E+00 -0.00000000000E+00 -0.74505805969E-08  0.93827000000E+00  0.93827000000E+00 0. -1.
     999902    2    1    2    0    0  0.69355402998E-02 -0.73299621903E-02 -0.12155137017E-01  0.10281319805E+01  0.10280105991E+01 0.  0.
     999903    2    3    3    0    0 -0.10087019692E+00 -0.46735053923E-01 -0.69393590010E-01  0.13883389843E+00  0.45830329762E-01 0.  0.
         14    1    1    2    0    0 -0.69355402998E-02  0.73299621903E-02  0.12155137017E-01  0.15798019524E-01  0.00000000000E+00 0. -1.
     999901    1    3    3    0    0  0.10780573722E+00  0.39405091733E-01  0.57238452993E-01  0.88929808205E+00  0.88000000000E+00 0.  1.
        -11    1    4    4    0    0 -0.46263505777E-01  0.37606562073E-03 -0.15483176836E-01  0.48789786616E-01  0.51100000000E-03 0.  1.
         11    1    4    4    0    0 -0.54606691145E-01 -0.47111119544E-01 -0.53910413174E-01  0.90044111812E-01  0.51100000000E-03 0. -1.
</event>
<event>
 8    1  0.2924722E+004  0.1043930E+01  0.7957747E-01            NaN
         13   -1    0    0    0    0  0.00000000000E+00  0.00000000000E+00  0.74505805969E-08  0.10566000000E+00  0.10566000000E+00 0. -1.
     999900   -1    0    0    0    0 -0.00000000000E+00 -0.00000000000E+00 -0.74505805969E-08  0.93827000000E+00  0.93827000000E+00 0.  1.
     999902    2    1    2    0    0  0.96156886868E-05  0.18467326438E-01 -0.43869615526E-02  0.10249487548E+01  0.10247729808E+01 0.  0.
     999903    2    3    3    0    0 -0.12852043449E-01  0.75163739894E-02 -0.12769534669E+00  0.13619102431E+00  0.44946886849E-01 0.  0.
         14    1    1    2    0    0 -0.96156886868E-05 -0.18467326438E-01  0.43869615526E-02  0.18981245214E-01  0.00000000000E+00 0.  1.
     999901    1    3    3    0    0  0.12861659138E-01  0.10950952448E-01  0.12330838514E+00  0.88875773048E+00  0.88000000000E+00 0. -1.
        -11    1    4    4    0    0  0.19051175300E-02 -0.17745527782E-01 -0.41994909649E-01  0.45632957240E-01  0.51100000000E-03 0. -1.
         11    1    4    4    0    0 -0.14757160979E-01  0.25261901771E-01 -0.85700437042E-01  0.90558067070E-01  0.51100000000E-03 0.  1.
</event>
<event>
 8    1  0.2924722E+004  0.1043930E+01  0.7957747E-01            NaN
         13   -1    0    0    0    0  0.00000000000E+00  0.00000000000E+00  0.74505805969E-08  0.10566000000E+00  0.10566000000E+00 0. -1.
     999900   -1    0    0    0    0 -0.00000000000E+00 -0.00000000000E+00 -0.74505805969E-08  0.93827000000E+00  0.93827000000E+00 0.  1.
     999902    2    1    2    0    0 -0.35953575209E-02 -0.11332384781E-01  0.14861679672E-01  0.10248979464E+01  0.10247212214E+01 0.  0.
     999903    2    3    3    0    0 -0.69879663374E-01  0.48008043629E-01 -0.93358299539E-01  0.13381632304E+00  0.44755967329E-01 0.  0.
         14    1    1    2    0    0  0.35953575209E-02  0.11332384781E-01 -0.14861679672E-01  0.19032053573E-01  0.00000000000E+00 0.  1.
     999901    1    3    3    0    0  0.66284305853E-01 -0.59340428410E-01  0.10821997921E+00  0.89108162339E+00  0.88000000000E+00 0. -1.
        -11    1    4    4    0    0 -0.28093569551E-01  0.32182654969E-01 -0.73286325298E-01  0.84829938864E-01  0.51100000000E-03 0.  1.
         11    1    4    4    0    0 -0.41786093823E-01  0.15825388660E-01 -0.20071974241E-01  0.48986384171E-01  0.51100000000E-03 0. -1.
</event>
<event>
 8    1  0.2924722E+004  0.1043930E+01  0.7957747E-01            NaN
         13   -1    0    0    0    0  0.00000000000E+00  0.00000000000E+00  0.74505805969E-08  0.10566000000E+00  0.10566000000E+00 0.  1.
     999900   -1    0    0    0    0 -0.00000000000E+00 -0.00000000000E+00 -0.74505805969E-08  0.93827000000E+00  0.93827000000E+00 0.  1.
     999902    2    1    2    0    0  0.77545951378E-02  0.38865850463E-02  0.10857026534E-01  0.10300334424E+01  0.10299396963E+01 0.  0.
     999903    2    3    3    0    0 -0.12486129627E+00  0.38304133444E-01  0.17539692573E-01  0.13940658429E+00  0.45486316417E-01 0.  0.
         14    1    1    2    0    0 -0.77545951378E-02 -0.38865850463E-02 -0.10857026534E-01  0.13896557640E-01  0.00000000000E+00 0. -1.
     999901    1    3    3    0    0  0.13261589141E+00 -0.34417548397E-01 -0.66826660392E-02  0.89062685807E+00  0.88000000000E+00 0. -1.
        -11    1    4    4    0    0 -0.19565964077E-01  0.21335457505E-01 -0.73799819637E-02  0.29878988470E-01  0.51100000000E-03 0. -1.
         11    1    4    4    0    0 -0.10529533220E+00  0.16968675939E-01  0.24919674537E-01  0.10952759582E+00  0.51100000000E-03 0.  1.
</event>
<event>
 8    1  0.2924722E+004  0.1043930E+01  0.7957747E-01            NaN
         13   -1    0    0    0    0  0.00000000000E+00  0.00000000000E+00  0.74505805969E-08  0.10566000000E+00  0.10566000000E+00 0. -1.
     999900   -1    0    0    0    0 -0.00000000000E+00 -0.00000000000E+00 -0.74505805969E-08  0.93827000000E+00  0.93827000000E+00 0. -1.
     999902    2    1    2    0    0  0.12896082460E-01  0.12159835851E-02 -0.73226024310E-02  0.10290502129E+01  0.10289426284E+01 0.  0.
     999903    2    3    3    0    0 -0.86361951570E-01 -0.97543197393E-01 -0.42848172757E-02  0.13797515357E+00  0.45229650761E-01 0.  0.
         14    1    1    2    0    0 -0.12896082460E-01 -0.12159835851E-02  0.73226024310E-02  0.14879787138E-01  0.00000000000E+00 0. -1.
     999901    1    3    3    0    0  0.99258034030E-01  0.98759180979E-01 -0.30377851553E-02  0.89107505929E+00  0.88000000000E+00 0.  1.
        -11    1    4    4    0    0 -0.59333608539E-01 -0.32919907355E-01 -0.25426057288E-02  0.67903780215E-01  0.51100000000E-03 0.  1.
         11    1    4    4    0    0 -0.27028343030E-01 -0.64623290038E-01 -0.17422115469E-02  0.70071373359E-01  0.51100000000E-03 0. -1.
</event>
<event>
 8    1  0.2924722E+004  0.1043930E+01  0.7957747E-01            NaN
         13   -1    0    0    0    0  0.00000000000E+00  0.00000000000E+00  0.74505805969E-08  0.10566000000E+00  0.10566000000E+00 0.  1.
     999900   -1    0    0    0    0 -0.00000000000E+00 -0.00000000000E+00 -0.74505805969E-08  0.93827000000E+00  0.93827000000E+00 0. -1.
     999902    2    1    2    0    0 -0.11507059499E-01 -0.10760553638E-02 -0.58653877420E-02  0.10309695568E+01  0.10308880900E+01 0.  0.
     999903    2    3    3    0    0  0.44173316289E-01 -0.69599858328E-01 -0.10458938249E+00  0.14105818881E+00  0.46508618016E-01 0.  0.
         14    1    1    2    0    0  0.11507059499E-01  0.10760553638E-02  0.58653877420E-02  0.12960443157E-01  0.00000000000E+00 0. -1.
     999901    1    3    3    0    0 -0.55680375788E-01  0.68523802964E-01  0.98723994743E-01  0.88991136804E+00  0.88000000000E+00 0.  1.
        -11    1    4    4    0    0  0.21516965149E-01 -0.65447377693E-01 -0.62234481151E-01  0.92842505359E-01  0.51100000000E-03 0. -1.
         11    1    4    4    0    0  0.22656351140E-01 -0.41524806344E-02 -0.42354901334E-01  0.48215683449E-01  0.51100000000E-03 0.  1.
</event>
<event>
 8    1  0.2924722E+004  0.1043930E+01  0.7957747E-01            NaN
         13   -1    0    0    0    0  0.00000000000E+00  0.00000000000E+00  0.74505805969E-08  0.10566000000E+00  0.10566000000E+00 0.  1.
     999900   -1    0    0    0    0 -0.00000000000E+00 -0.00000000000E+00 -0.74505805969E-08  0.93827000000E+00  0.93827000000E+00 0. -1.
     999902    2    1    2    0    0  0.13428208929E-01 -0.99477407702E-03 -0.94137086347E-03  0.10304321280E+01  0.10303437183E+01 0.  0.
     999903    2    3    3    0    0 -0.34802499612E-01 -0.10314650233E+00  0.76613279969E-01  0.13982789448E+00  0.42799888839E-01 0.  0.
         14    1    1    2    0    0 -0.13428208929E-01  0.99477407702E-03  0.94137086347E-03  0.13497872040E-01  0.00000000000E+00 0.  1.
     999901    1    3    3    0    0  0.48230708541E-01  0.10215172825E+00 -0.77554650832E-01  0.89060423348E+00  0.88000000000E+00 0. -1.
        -11    1    4    4    0    0 -0.38152484073E-01 -0.60966606092E-01  0.33239915629E-01  0.79231888853E-01  0.51100000000E-03 0.  1.
         11    1    4    4    0    0  0.33499844610E-02 -0.42179896237E-01  0.43373364340E-01  0.60596005624E-01  0.51100000000E-03 0. -1.
</event>
<event>
 8    1  0.2924722E+004  0.1043930E+01  0.7957747E-01            NaN
         13   -1    0    0    0    0  0.00000000000E+00  0.00000000000E+00  0.74505805969E-08  0.10566000000E+00  0.10566000000E+00 0.  1.
     999900   -1    0    0    0    0 -0.00000000000E+00 -0.00000000000E+00 -0.74505805969E-08  0.93827000000E+00  0.93827000000E+00 0. -1.
     999902    2    1    2    0    0 -0.80726675743E-02  0.12262943493E-01 -0.16388638634E-02  0.10291572677E+01  0.10290512368E+01 0.  0.
     999903    2    3    3    0    0  0.78122696919E-01 -0.71206940510E-01  0.74961419562E-01  0.13771772078E+00  0.46619438462E-01 0.  0.
         14    1    1    2    0    0  0.80726675743E-02 -0.12262943493E-01  0.16388638634E-02  0.14772732301E-01  0.00000000000E+00 0. -1.
     999901    1    3    3    0    0 -0.86195364493E-01  0.83469884003E-01 -0.76600283426E-01  0.89143954692E+00  0.88000000000E+00 0. -1.
        -11    1    4    4    0    0  0.68413979228E-01 -0.34574245072E-01  0.58346614639E-01  0.96335037950E-01  0.51100000000E-03 0.  1.
         11    1    4    4    0    0  0.97087176908E-02 -0.36632695438E-01  0.16614804923E-01  0.41382682827E-01  0.51100000000E-03 0. -1.
</event>
<event>
 8    1  0.2924722E+004  0.1043930E+01  0.7957747E-01            NaN
         13   -1    0    0    0    0  0.00000000000E+00  0.00000000000E+00  0.74505805969E-08  0.10566000000E+00  0.10566000000E+00 0. -1.
     999900   -1    0    0    0    0 -0.00000000000E+00 -0.00000000000E+00 -0.74505805969E-08  0.93827000000E+00  0.93827000000E+00 0.  1.
     999902    2    1    2    0    0 -0.87005370147E-02 -0.10410737238E-01  0.60708423355E-02  0.10290660193E+01  0.10289586650E+01 0.  0.
     999903    2    3    3    0    0 -0.99481188693E-01 -0.64362929227E-01 -0.60055885495E-01  0.14028893263E+00  0.45112987857E-01 0.  0.
         14    1    1    2    0    0  0.87005370147E-02  0.10410737238E-01 -0.60708423355E-02  0.14863980653E-01  0.00000000000E+00 0.  1.
     999901    1    3    3    0    0  0.90780651678E-01  0.53952191990E-01  0.66126727831E-01  0.88877708672E+00  0.88000000000E+00 0. -1.
        -11    1    4    4    0    0 -0.19525540050E-01 -0.21333385794E-01 -0.36333691281E-01  0.46440911993E-01  0.51100000000E-03 0.  1.
         11    1    4    4    0    0 -0.79955648643E-01 -0.43029543434E-01 -0.23722194214E-01  0.93848020637E-01  0.51100000000E-03 0. -1.
</event>
<event>
 8    1  0.2924722E+004  0.1043930E+01  0.7957747E-01            NaN
         13   -1    0    0    0    0  0.00000000000E+00  0.00000000000E+00  0.74505805969E-08  0.10566000000E+00  0.10566000000E+00 0. -1.
     999900   -1    0    0    0    0 -0.00000000000E+00 -0.00000000000E+00 -0.74505805969E-08  0.93827000000E+00  0.93827000000E+00 0.  1.
     999902    2    1    2    0    0  0.11041515117E-01 -0.91409811859E-02  0.21038014465E-02  0.10294421232E+01  0.10293401704E+01 0.  0.
     999903    2    3    3    0    0  0.12655780154E+00  0.23355624959E-01 -0.34100581775E-01  0.14056035425E+00  0.45077723555E-01 0.  0.
         14    1    1    2    0    0 -0.11041515117E-01  0.91409811859E-02 -0.21038014465E-02  0.14487876782E-01  0.00000000000E+00 0.  1.
     999901    1    3    3    0    0 -0.11551628643E+00 -0.32496606145E-01  0.36204383221E-01  0.88888176897E+00  0.88000000000E+00 0. -1.
        -11    1    4    4    0    0  0.71022243671E-01  0.13799668384E-01  0.41173714408E-02  0.72469330148E-01  0.51100000000E-03 0. -1.
         11    1    4    4    0    0  0.55535557871E-01  0.95559565756E-02 -0.38217953216E-01  0.68091024101E-01  0.51100000000E-03 0.  1.
</event>
<event>
 8    1  0.2924722E+004  0.1043930E+01  0.7957747E-01            NaN
         13   -1    0    0    0    0  0.00000000000E+00  0.00000000000E+00  0.74505805969E-08  0.10566000000E+00  0.10566000000E+00 0.  1.
     999900   -1    0    0    0    0 -0.00000000000E+00 -0.00000000000E+00 -0.74505805969E-08  0.93827000000E+00  0.93827000000E+00 0. -1.
     999902    2    1    2    0    0 -0.91253721516E-02  0.13668382262E-02  0.11382549947E-01  0.10292772492E+01  0.10291729459E+01 0.  0.
     999903    2    3    3    0    0  0.11497509487E+00 -0.46615159436E-01  0.42449271764E-01  0.13873340453E+00  0.45307519570E-01 0.  0.
         14    1    1    2    0    0  0.91253721516E-02 -0.13668382262E-02 -0.11382549947E-01  0.14652750831E-01  0.00000000000E+00 0. -1.
     999901    1    3    3    0    0 -0.12410046702E+00  0.47981997662E-01 -0.31066721817E-01  0.89054384464E+00  0.88000000000E+00 0.  1.
        -11    1    4    4    0    0  0.50966838062E-01  0.27321482668E-02  0.12607622136E-01  0.52576577229E-01  0.51100000000E-03 0.  1.
         11    1    4    4    0    0  0.64008256811E-01 -0.49347307703E-01  0.29841649628E-01  0.86156827303E-01  0.51100000000E-03 0. -1.
</event>
<event>
 8    1  0.2924722E+004  0.1043930E+01  0.7957747E-01            NaN
         13   -1    0    0    0    0  0.00000000000E+00  0.00000000000E+00  0.74505805969E-08  0.10566000000E+00  0.10566000000E+00 0. -1.
     999900   -1    0    0    0    0 -0.00000000000E+00 -0.00000000000E+00 -0.74505805969E-08  0.93827000000E+00  0.93827000000E+00 0.  1.
     999902    2    1    2    0    0 -0.62203543253E-02  0.30608654241E-02  0.12480809553E-01  0.10296530146E+01  0.10295540288E+01 0.  0.
     999903    2    3    3    0    0 -0.89527044066E-01  0.40568385196E-01  0.91163537149E-01  0.14143131355E+00  0.45068175572E-01 0.  0.
         14    1    1    2    0    0  0.62203543253E-02 -0.30608654241E-02 -0.12480809553E-01  0.14276985402E-01  0.00000000000E+00 0.  1.
     999901    1    3    3    0    0  0.83306689741E-01 -0.37507519772E-01 -0.78682727596E-01  0.88822170105E+00  0.88000000000E+00 0. -1.
        -11    1    4    4    0    0 -0.76337500841E-01  0.43561677667E-01  0.92777939815E-01  0.12780078651E+00  0.51100000000E-03 0. -1.
         11    1    4    4    0    0 -0.13189543225E-01 -0.29932924705E-02 -0.16144026651E-02  0.13630527035E-01  0.51100000000E-03 0.  1.
</event>
<event>
 8    1  0.2924722E+004  0.1043930E+01  0.7957747E-01            NaN
         13   -1    0    0    0    0  0.00000000000E+00  0.00000000000E+00  0.74505805969E-08  0.10566000000E+00  0.10566000000E+00 0. -1.
     999900   -1    0    0    0    0 -0.00000000000E+00 -0.00000000000E+00 -0.74505805969E-08  0.93827000000E+00  0.93827000000E+00 0.  1.
     999902    2    1    2    0    0  0.76444171109E-02  0.37878431501E-02 -0.10910177484E-01  0.10300802043E+01  0.10299870924E+01 0.  0.
     999903    2    3    3    0    0 -0.95166526323E-01  0.33556008317E-01 -0.86986752200E-01  0.14033648895E+00  0.44101719320E-01 0.  0.
         14    1    1    2    0    0 -0.76444171109E-02 -0.37878431501E-02  0.10910177484E-01  0.13849795718E-01  0.00000000000E+00 0. -1.
     999901    1    3    3    0    0  0.10281094343E+00 -0.29768165167E-01  0.76076574716E-01  0.88974371533E+00  0.88000000000E+00 0. -1.
        -11    1    4    4    0    0 -0.42078325083E-01  0.14220280185E-01 -0.67033137238E-01  0.80414578401E-01  0.51100000000E-03 0. -1.
         11    1    4    4    0    0 -0.53088201239E-01  0.19335728132E-01 -0.19953614961E-01  0.59921910552E-01  0.51100000000E-03 0.  1.
</event>
<event>
 8    1  0.2924722E+004  0.1043930E+01  0.7957747E-01            NaN
         13   -1    0    0    0    0  0.00000000000E+00  0.00000000000E+00  0.74505805969E-08  0.10566000000E+00  0.10566000000E+00 0. -1.
     999900   -1    0    0    0    0 -0.00000000000E+00 -0.00000000000E+00 -0.74505805969E-08  0.93827000000E+00  0.93827000000E+00 0.  1.
     999902    2    1    2    0    0  0.11104378707E-01  0.87510924278E-02 -0.25710240784E-03  0.10297894573E+01  0.10296923674E+01 0.  0.
     999903    2    3    3    0    0  0.12241227948E+00  0.35114957073E-01 -0.42557557163E-01  0.14137861172E+00  0.44259911935E-01 0.  0.
         14    1    1    2    0    0 -0.11104378707E-01 -0.87510924278E-02  0.25710240784E-03  0.14140542663E-01  0.00000000000E+00 0.  1.
     999901    1    3    3    0    0 -0.11130790077E+00 -0.26363864646E-01  0.42300454755E-01  0.88841084561E+00  0.88000000000E+00 0. -1.
        -11    1    4    4    0    0  0.44698414278E-01  0.41856083755E-02 -0.35872271162E-01  0.57467804167E-01  0.51100000000E-03 0. -1.
         11    1    4    4    0    0  0.77713865197E-01  0.30929348698E-01 -0.66852860004E-02  0.83910807556E-01  0.51100000000E-03 0.  1.
</event>
<event>
 8    1  0.2924722E+004  0.1043930E+01  0.7957747E-01            NaN
         13   -1    0    0    0    0  0.00000000000E+00  0.00000000000E+00  0.74505805969E-08  0.10566000000E+00  0.10566000000E+00 0.  1.
     999900   -1    0    0    0    0 -0.00000000000E+00 -0.00000000000E+00 -0.74505805969E-08  0.93827000000E+00  0.93827000000E+00 0.  1.
     999902    2    1    2    0    0  0.18756219931E-02  0.13710359737E-01 -0.14316869876E-01  0.10240185790E+01  0.10238249780E+01 0.  0.
     999903    2    3    3    0    0  0.11970882637E+00 -0.31229112207E-01  0.23124969240E-01  0.13423989222E+00  0.46691796935E-01 0.  0.
         14    1    1    2    0    0 -0.18756219931E-02 -0.13710359737E-01  0.14316869876E-01  0.19911420969E-01  0.00000000000E+00 0.  1.
     999901    1    3    3    0    0 -0.11783320437E+00  0.44939471944E-01 -0.37441839116E-01  0.88977868681E+00  0.88000000000E+00 0.  1.
        -11    1    4    4    0    0  0.56032489342E-01  0.11451438496E-02  0.27974222409E-01  0.62639998856E-01  0.51100000000E-03 0.  1.
         11    1    4    4    0    0  0.63676337023E-01 -0.32374256057E-01 -0.48492531691E-02  0.71599893361E-01  0.51100000000E-03 0. -1.
</event>
<event>
 8    1  0.2924722E+004  0.1043930E+01  0.7957747E-01            NaN
         13   -1    0    0    0    0  0.00000000000E+00  0.00000000000E+00  0.74505805969E-08  0.10566000000E+00  0.10566000000E+00 0. -1.
     999900   -1    0    0    0    0 -0.00000000000E+00 -0.00000000000E+00 -0.74505805969E-08  0.93827000000E+00  0.93827000000E+00 0. -1.
     999902    2    1    2    0    0  0.63442784755E-02  0.48806849809E-02  0.10616825097E-01  0.10306338378E+01  0.10305480676E+01 0.  0.
     999903    2    3    3    0    0 -0.75472306555E-01 -0.75386615463E-01 -0.77640180231E-01  0.13882326813E+00  0.43182071984E-01 0.  0.
         14    1    1    2    0    0 -0.63442784755E-02 -0.48806849809E-02 -0.10616825097E-01  0.13296162243E-01  0.00000000000E+00 0.  1.
     999901    1    3    3    0    0  0.81816585030E-01  0.80267300444E-01  0.88257005327E-01  0.89181056963E+00  0.88000000000E+00 0.  1.
        -11    1    4    4    0    0 -0.17946870061E-01 -0.46341283583E-01 -0.25105265558E-01  0.55678902547E-01  0.51100000000E-03 0.  1.
         11    1    4    4    0    0 -0.57525436494E-01 -0.29045331880E-01 -0.52534914673E-01  0.83144365585E-01  0.51100000000E-03 0. -1.
</event>
<event>
 8    1  0.2924722E+004  0.1043930E+01  0.7957747E-01            NaN
         13   -1    0    0    0    0  0.00000000000E+00  0.00000000000E+00  0.74505805969E-08  0.10566000000E+00  0.10566000000E+00 0.  1.
     999900   -1    0    0    0    0 -0.00000000000E+00 -0.00000000000E+00 -0.74505805969E-08  0.93827000000E+00  0.93827000000E+00 0. -1.
     999902    2    1    2    0    0 -0.84188895673E-02 -0.72776139285E-02  0.83157566207E-02  0.10300378017E+01  0.10299441148E+01 0.  0.
     999903    2    3    3    0    0 -0.46789148984E-01  0.12193154622E+00 -0.18139444553E-01  0.13938233432E+00  0.45187047310E-01 0.  0.
         14    1    1    2    0    0  0.84188895673E-02  0.72776139285E-02 -0.83157566207E-02  0.13892198322E-01  0.00000000000E+00 0. -1.
     999901    1    3    3    0    0  0.38370259417E-01 -0.12920916015E+00  0.26455201174E-01  0.89065546736E+00  0.88000000000E+00 0.  1.
        -11    1    4    4    0    0 -0.61446397398E-02  0.71075091675E-01  0.15712558567E-02  0.71359338703E-01  0.51100000000E-03 0. -1.
         11    1    4    4    0    0 -0.40644509244E-01  0.50856454543E-01 -0.19710700410E-01  0.68022995612E-01  0.51100000000E-03 0.  1.
</event>
<event>
 8    1  0.2924722E+004  0.1043930E+01  0.7957747E-01            NaN
         13   -1    0    0    0    0  0.00000000000E+00  0.00000000000E+00  0.74505805969E-08  0.10566000000E+00  0.10566000000E+00 0. -1.
     999900   -1    0    0    0    0 -0.00000000000E+00 -0.00000000000E+00 -0.74505805969E-08  0.93827000000E+00  0.93827000000E+00 0. -1.
     999902    2    1    2    0    0 -0.13676926782E-01 -0.43328773277E-02 -0.27305432134E-02  0.10293256165E+01  0.10292220055E+01 0.  0.
     999903    2    3    3    0    0 -0.37227962628E-01 -0.73172621403E-01 -0.10490785282E+00  0.14043092965E+00  0.44441362420E-01 0.  0.
         14    1    1    2    0    0  0.13676926782E-01  0.43328773277E-02  0.27305432134E-02  0.14604383533E-01  0.00000000000E+00 0. -1.
     999901    1    3    3    0    0  0.23551035846E-01  0.68839744075E-01  0.10217730961E+00  0.88889468682E+00  0.88000000000E+00 0.  1.
        -11    1    4    4    0    0  0.30713437187E-02 -0.41924255105E-01 -0.41675285082E-01  0.59196003463E-01  0.51100000000E-03 0.  1.
         11    1    4    4    0    0 -0.40299306346E-01 -0.31248366298E-01 -0.63232567742E-01  0.81234926186E-01  0.51100000000E-03 0. -1.
</event>
<event>
 8    1  0.2924722E+004  0.1043930E+01  0.7957747E-01            NaN
         13   -1    0    0    0    0  0.00000000000E+00  0.00000000000E+00  0.74505805969E-08  0.10566000000E+00  0.10566000000E+00 0. -1.
     999900   -1    0    0    0    0 -0.00000000000E+00 -0.00000000000E+00 -0.74505805969E-08  0.93827000000E+00  0.93827000000E+00 0.  1.
     999902    2    1    2    0    0  0.13227506715E-02 -0.45058063318E-02 -0.20291488729E-01  0.10231022187E+01  0.10228901962E+01 0.  0.
     999903    2    3    3    0    0 -0.52256891627E-01 -0.34308387918E-01  0.10686866312E+00  0.13185103289E+00  0.45342425091E-01 0.  0.
         14    1    1    2    0    0 -0.13227506715E-02  0.45058063318E-02  0.20291488729E-01  0.20827781324E-01  0.00000000000E+00 0. -1.
     999901    1    3    3    0    0  0.53579642298E-01  0.29802581586E-01 -0.12716015185E+00  0.89125118578E+00  0.88000000000E+00 0.  1.
        -11    1    4    4    0    0 -0.10570079435E-01  0.86540214899E-02  0.39134082442E-01  0.41453060162E-01  0.51100000000E-03 0.  1.
         11    1    4    4    0    0 -0.41686812191E-01 -0.42962409407E-01  0.67734580682E-01  0.90397972732E-01  0.51100000000E-03 0. -1.
</event>
<event>
 7    1  0.2924722E+004  0.1043930E+01  0.7957747E-01            NaN
         13   -1    0    0    0    0  0.00000000000E+00  0.00000000000E+00  0.74505805969E-08  0.10566000000E+00  0.10566000000E+00 0.  1.
     999900   -1    0    0    0    0 -0.00000000000E+00 -0.00000000000E+00 -0.74505805969E-08  0.93827000000E+00  0.93827000000E+00 0.  1.
     999902    2    1    2    0    0 -0.13453605235E-01 -0.23624712249E-02 -0.36317918270E-02  0.10297959745E+01  0.10296989747E+01 0.  0.
         14    1    1    2    0    0  0.13453605235E-01  0.23624712249E-02  0.36317918270E-02  0.14134025470E-01  0.00000000000E+00 0. -1.
     999901    1    3    3    0    0 -0.13375149614E+00  0.43008806306E-01  0.36335802202E-01  0.89188536857E+00  0.88000000000E+00 0. -1.
        -11    1    3    3    0    0  0.99933510968E-01 -0.45117839558E-01 -0.42045418237E-01  0.11743255246E+00  0.51100000000E-03 0. -1.
         11    1    3    3    0    0  0.20364379937E-01 -0.25343797337E-03  0.20778242080E-02  0.20478053508E-01  0.51100000000E-03 0.  1.
</event>
<event>
 8    1  0.2924722E+004  0.1043930E+01  0.7957747E-01            NaN
         13   -1    0    0    0    0  0.00000000000E+00  0.00000000000E+00  0.74505805969E-08  0.10566000000E+00  0.10566000000E+00 0.  1.
     999900   -1    0    0    0    0 -0.00000000000E+00 -0.00000000000E+00 -0.74505805969E-08  0.93827000000E+00  0.93827000000E+00 0.  1.
     999902    2    1    2    0    0  0.10035910653E-01 -0.10453466715E-01  0.17055591182E-02  0.10293387903E+01  0.10292353675E+01 0.  0.
     999903    2    3    3    0    0  0.64988141945E-01  0.32994143374E-01 -0.11000392776E+00  0.13951495828E+00  0.45293347984E-01 0.  0.
         14    1    1    2    0    0 -0.10035910653E-01  0.10453466715E-01 -0.17055591182E-02  0.14591209714E-01  0.00000000000E+00 0.  1.
     999901    1    3    3    0    0 -0.54952231293E-01 -0.43447610090E-01  0.11170948688E+00  0.88982383201E+00  0.88000000000E+00 0. -1.
        -11    1    4    4    0    0  0.79758174537E-02 -0.38267038182E-02  0.14922985493E-02  0.89858445417E-02  0.51100000000E-03 0.  1.
         11    1    4    4    0    0  0.57012324492E-01  0.36820847192E-01 -0.11149622631E+00  0.13052911374E+00  0.51100000000E-03 0. -1.
</event>
<event>
 8    1  0.2924722E+004  0.1043930E+01  0.7957747E-01            NaN
         13   -1    0    0    0    0  0.00000000000E+00  0.00000000000E+00  0.74505805969E-08  0.10566000000E+00  0.10566000000E+00 0. -1.
     999900   -1    0    0    0    0 -0.00000000000E+00 -0.00000000000E+00 -0.74505805969E-08  0.93827000000E+00  0.93827000000E+00 0.  1.
     999902    2    1    2    0    0  0.11469800450E-01  0.62764925899E-02  0.57854576750E-02  0.10296323708E+01  0.10295330965E+01 0.  0.
     999903    2    3    3    0    0 -0.84824838799E-01 -0.86753008002E-01  0.50356422084E-01  0.13838957757E+00  0.43526638517E-01 0.  0.
         14    1    1    2    0    0 -0.11469800450E-01 -0.62764925899E-02 -0.57854576750E-02  0.14297629248E-01  0.00000000000E+00 0.  1.
     999901    1    3    3    0    0  0.96294639249E-01  0.93029500592E-01 -0.44570964409E-01  0.89124279318E+00  0.88000000000E+00 0. -1.
        -11    1    4    4    0    0 -0.24050218440E-01 -0.27730572593E-01  0.37890481446E-01  0.52757438987E-01  0.51100000000E-03 0. -1.
         11    1    4    4    0    0 -0.60774620359E-01 -0.59022435410E-01  0.12465940638E-01  0.85632138584E-01  0.51100000000E-03 0.  1.
</event>
<event>
 8    1  0.2924722E+004  0.1043930E+01  0.7957747E-01            NaN
         13   -1    0    0    0    0  0.00000000000E+00  0.00000000000E+00  0.74505805969E-08  0.10566000000E+00  0.10566000000E+00 0. -1.
     999900   -1    0    0    0    0 -0.00000000000E+00 -0.00000000000E+00 -0.74505805969E-08  0.93827000000E+00  0.93827000000E+00 0. -1.
     999902    2    1    2    0    0 -0.55497207332E-02  0.28345891618E-03  0.49610603822E-02  0.10364807135E+01  0.10364539438E+01 0.  0.
     999903    2    3    3    0    0 -0.10549595192E+00 -0.65618621299E-01  0.62931564884E-01  0.14648469514E+00  0.45411284053E-01 0.  0.
         14    1    1    2    0    0  0.55497207332E-02 -0.28345891618E-03 -0.49610603822E-02  0.74492864953E-02  0.00000000000E+00 0.  1.
     999901    1    3    3    0    0  0.99946231190E-01  0.65902080216E-01 -0.57970504502E-01  0.88999601836E+00  0.88000000000E+00 0. -1.
        -11    1    4    4    0    0 -0.55889864367E-01 -0.91858129362E-02  0.33369009797E-01  0.65740459643E-01  0.51100000000E-03 0.  1.
         11    1    4    4    0    0 -0.49606087556E-01 -0.56432808363E-01  0.29562555088E-01  0.80744235501E-01  0.51100000000E-03 0. -1.
</event>
<event>
 8    1  0.2924722E+004  0.1043930E+01  0.7957747E-01            NaN
         13   -1    0    0    0    0  0.00000000000E+00  0.00000000000E+00  0.74505805969E-08  0.10566000000E+00  0.10566000000E+00 0.  1.
     999900   -1    0    0    0    0 -0.00000000000E+00 -0.00000000000E+00 -0.74505805969E-08  0.93827000000E+00  0.93827000000E+00 0. -1.
     999902    2    1    2    0    0  0.94881330394E-02  0.10059666794E-01 -0.30564800797E-02  0.10297679509E+01  0.10296705634E+01 0.  0.
     999903    2    3    3    0    0  0.83326659866E-02  0.38649113443E-01  0.12633693844E+00  0.13984584850E+00  0.45084942455E-01 0.  0.
         14    1    1    2    0    0 -0.94881330394E-02 -0.10059666794E-01  0.30564800797E-02  0.14162049112E-01  0.00000000000E+00 0. -1.
     999901    1    3    3    0    0  0.11554670528E-02 -0.28589446649E-01 -0.12939341852E+00  0.88992210239E+00  0.88000000000E+00 0. -1.
        -11    1    4    4    0    0  0.20605909763E-01  0.21836810976E-01  0.34772718063E-01  0.45944018906E-01  0.51100000000E-03 0.  1.
         11    1    4    4    0    0 -0.12273243776E-01  0.16812302466E-01  0.91564220375E-01  0.93901829593E-01  0.51100000000E-03 0. -1.
</event>
<event>
 8    1  0.2924722E+004  0.1043930E+01  0.7957747E-01            NaN
         13   -1    0    0    0    0  0.00000000000E+00  0.00000000000E+00  0.74505805969E-08  0.10566000000E+00  0.10566000000E+00 0. -1.
     999900   -1    0    0    0    0 -0.00000000000E+00 -0.00000000000E+00 -0.74505805969E-08  0.93827000000E+00  0.93827000000E+00 0. -1.
     999902    2    1    2    0    0  0.11362536239E-01  0.12758395149E-02  0.79461661566E-02  0.10300060439E+01  0.10299119253E+01 0.  0.
     999903    2    3    3    0    0  0.10414136552E-02 -0.70617892998E-01 -0.11095391199E+00  0.13904450551E+00  0.45106901616E-01 0.  0.
         14    1    1    2    0    0 -0.11362536239E-01 -0.12758395149E-02 -0.79461661566E-02  0.13923956077E-01  0.00000000000E+00 0. -1.
     999901    1    3    3    0    0  0.10321122584E-01  0.71893732513E-01  0.11890007814E+00  0.89096153841E+00  0.88000000000E+00 0.  1.
        -11    1    4    4    0    0 -0.11479308727E-01 -0.16374151549E-01 -0.61176212752E-01  0.64363634884E-01  0.51100000000E-03 0. -1.
         11    1    4    4    0    0  0.12520722382E-01 -0.54243741449E-01 -0.49777699236E-01  0.74680870627E-01  0.51100000000E-03 0.  1.
</event>
<event>
 8    1  0.2924722E+004  0.1043930E+01  0.7957747E-01            NaN
         13   -1    0    0    0    0  0.00000000000E+00  0.00000000000E+00  0.74505805969E-08  0.10566000000E+00  0.10566000000E+00 0. -1.
     999900   -1    0    0    0    0 -0.00000000000E+00 -0.00000000000E+00 -0.74505805969E-08  0.93827000000E+00  0.93827000000E+00 0.  1.
     999902    2    1    2    0    0  0.60174130337E-02 -0.10782248847E-01  0.77522508914E-02  0.10293504409E+01  0.10292471844E+01 0.  0.
     999903    2    3    3    0    0 -0.42712083894E-01  0.50513139916E-01 -0.11478876400E+00  0.13741547192E+00  0.36478105298E-01 0.  0.
         14    1    1    2    0    0 -0.60174130337E-02  0.10782248847E-01 -0.77522508914E-02  0.14579559105E-01  0.00000000000E+00 0.  1.
     999901    1    3    3    0    0  0.48729496928E-01 -0.61295388764E-01  0.12254101489E+00  0.89193496898E+00  0.88000000000E+00 0. -1.
        -11    1    4    4    0    0 -0.16844783693E-01  0.23755744405E-01 -0.19329672676E-01  0.34956823321E-01  0.51100000000E-03 0.  1.
         11    1    4    4    0    0 -0.25867300201E-01  0.26757395511E-01 -0.95459091327E-01  0.10245864860E+00  0.51100000000E-03 0. -1.
</event>
<event>
 8    1  0.2924722E+004  0.1043930E+01  0.7957747E-01            NaN
         13   -1    0    0    0    0  0.00000000000E+00  0.00000000000E+00  0.74505805969E-08  0.10566000000E+00  0.10566000000E+00 0. -1.
     999900   -1    0    0    0    0 -0.00000000000E+00 -0.00000000000E+00 -0.74505805969E-08  0.93827000000E+00  0.93827000000E+00 0. -1.
     999902    2    1    2    0    0  0.79721098973E-02  0.39455131008E-02  0.11517009103E-01  0.10293779174E+01  0.10292750525E+01 0.  0.
     999903    2    3    3    0    0 -0.98496153844E-03  0.12934312893E+00 -0.26398444614E-01  0.13963504845E+00  0.45502238712E-01 0.  0.
         14    1    1    2    0    0 -0.79721098973E-02 -0.39455131008E-02 -0.11517009103E-01  0.14552082618E-01  0.00000000000E+00 0.  1.
     999901    1    3    3    0    0  0.89570714357E-02 -0.12539761583E+00  0.37915453718E-01  0.88974286893E+00  0.88000000000E+00 0. -1.
        -11    1    4    4    0    0 -0.60128653660E-02  0.88963899737E-01 -0.38580069964E-01  0.97156641182E-01  0.51100000000E-03 0. -1.
         11    1    4    4    0    0  0.50279038275E-02  0.40379229190E-01  0.12181625350E-01  0.42478407269E-01  0.51100000000E-03 0.  1.
</event>
<event>
 8    1  0.2924722E+004  0.1043930E+01  0.7957747E-01            NaN
         13   -1    0    0    0    0  0.00000000000E+00  0.00000000000E+00  0.74505805969E-08  0.10566000000E+00  0.10566000000E+00 0.  1.
     999900   -1    0    0    0    0 -0.00000000000E+00 -0.00000000000E+00 -0.74505805969E-08  0.93827000000E+00  0.93827000000E+00 0.  1.
     999902    2    1    2    0    0 -0.73568578150E-02  0.29298763334E-03  0.84422393873E-02  0.10327281874E+01  0.10326674337E+01 0.  0.
     999903    2    3    3    0    0 -0.11384144150E+00  0.66143913984E-02 -0.72624764298E-01  0.14258730770E+00  0.45311808083E-01 0.  0.
         14    1    1    2    0    0  0.73568578150E-02 -0.29298763334E-03 -0.84422393873E-02  0.11201812556E-01  0.00000000000E+00 0. -1.
     999901    1    3    3    0    0  0.10648458368E+00 -0.63214037651E-02  0.81067003685E-01  0.89014087975E+00  0.88000000000E+00 0. -1.
        -11    1    4    4    0    0 -0.10383693516E+00 -0.82763856282E-02 -0.66680733964E-01  0.12368180572E+00  0.51100000000E-03 0.  1.
         11    1    4    4    0    0 -0.10004506332E-01  0.14890777027E-01 -0.59440303334E-02  0.18905501977E-01  0.51100000000E-03 0. -1.
</event>
<event>
 8    1  0.2924722E+004  0.1043930E+01  0.7957747E-01            NaN
         13   -1    0    0    0    0  0.00000000000E+00  0.00000000000E+00  0.74505805969E-08  0.10566000000E+00  0.10566000000E+00 0.  1.
     999900   -1    0    0    0    0 -0.00000000000E+00 -0.00000000000E+00 -0.74505805969E-08  0.93827000000E+00  0.93827000000E+00 0.  1.
     999902    2    1    2    0    0  0.76562171835E-02  0.96282695009E-02 -0.54271927449E-02  0.10304847162E+01  0.10303969986E+01 0.  0.
     999903    2    3    3    0    0 -0.82824083559E-01  0.10449894964E+00 -0.94623419200E-03  0.14076160773E+00  0.45089639149E-01 0.  0.
         14    1    1    2    0    0 -0.76562171835E-02 -0.96282695009E-02  0.54271927449E-02  0.13445283791E-01  0.00000000000E+00 0.  1.
     999901    1    3    3    0    0  0.90480300743E-01 -0.94870680137E-01 -0.44809585529E-02  0.88972310848E+00  0.88000000000E+00 0.  1.
        -11    1    4    4    0    0 -0.23397525141E-01  0.36961931908E-02 -0.15391719408E-02  0.23743129492E-01  0.51100000000E-03 0.  1.
         11    1    4    4    0    0 -0.59426558418E-01  0.10080275645E+00  0.59293774877E-03  0.11701847824E+00  0.51100000000E-03 0. -1.
</event>
<event>
 8    1  0.2924722E+004  0.1043930E+01  0.7957747E-01            NaN
         13   -1    0    0    0    0  0.00000000000E+00  0.00000000000E+00  0.74505805969E-08  0.10566000000E+00  0.10566000000E+00 0. -1.
     999900   -1    0    0    0    0 -0.00000000000E+00 -0.00000000000E+00 -0.74505805969E-08  0.93827000000E+00  0.93827000000E+00 0. -1.
     999902    2    1    2    0    0  0.52726354383E-02 -0.11375056476E-01  0.55216485189E-02  0.10302303213E+01  0.10301392303E+01 0.  0.
     999903    2    3    3    0    0  0.11567363212E+00 -0.63010458236E-01 -0.25408831132E-01  0.14129202796E+00  0.44352242919E-01 0.  0.
         14    1    1    2    0    0 -0.52726354383E-02  0.11375056476E-01 -0.55216485189E-02  0.13699678706E-01  0.00000000000E+00 0.  1.
     999901    1    3    3    0    0 -0.11040099668E+00  0.51635401760E-01  0.30930479651E-01  0.88893829333E+00  0.88000000000E+00 0.  1.
        -11    1    4    4    0    0  0.89815235821E-01 -0.25982009775E-01 -0.21623454678E-01  0.95967058571E-01  0.51100000000E-03 0. -1.
         11    1    4    4    0    0  0.25858396295E-01 -0.37028448460E-01 -0.37853764542E-02  0.45324969390E-01  0.51100000000E-03 0.  1.
</event>
<event>
 8    1  0.2924722E+004  0.1043930E+01  0.7957747E-01            NaN
         13   -1    0    0    0    0  0.00000000000E+00  0.00000000000E+00  0.74505805969E-08  0.10566000000E+00  0.10566000000E+00 0.  1.
     999900   -1    0    0    0    0 -0.00000000000E+00 -0.00000000000E+00 -0.74505805969E-08  0.93827000000E+00  0.93827000000E+00 0. -1.
     999902    2    1    2    0    0  0.45538384872E-02 -0.83651453959E-02 -0.10079838836E-01  0.10300621864E+01  0.10299688304E+01 0.  0.
     999903    2    3    3    0    0  0.15879580918E-01 -0.13219403574E+00  0.15444683039E-01  0.14095399967E+00  0.43612700150E-01 0.  0.
         14    1    1    2    0    0 -0.45538384872E-02  0.83651453959E-02  0.10079838836E-01  0.13867813578E-01  0.00000000000E+00 0.  1.
     999901    1    3    3    0    0 -0.11325742431E-01  0.12382889034E+00 -0.25524521876E-01  0.88910818675E+00  0.88000000000E+00 0.  1.
        -11    1    4    4    0    0  0.67815759162E-02 -0.12934013082E+00  0.18708065600E-01  0.13086295141E+00  0.51100000000E-03 0.  1.
         11    1    4    4    0    0  0.90980050019E-02 -0.28539049203E-02 -0.32633825603E-02  0.10091048263E-01  0.51100000000E-03 0. -1.
</event>
<event>
 8    1  0.2924722E+004  0.1043930E+01  0.7957747E-01            NaN
         13   -1    0    0    0    0  0.00000000000E+00  0.00000000000E+00  0.74505805969E-08  0.10566000000E+00  0.10566000000E+00 0.  1.
     999900   -1    0    0    0    0 -0.00000000000E+00 -0.00000000000E+00 -0.74505805969E-08  0.93827000000E+00  0.93827000000E+00 0. -1.
     999902    2    1    2    0    0 -0.10770875285E-01  0.45740899812E-02 -0.14939254156E-01  0.10249532941E+01  0.10247776050E+01 0.  0.
     999903    2    3    3    0    0 -0.41807904491E-02 -0.86253913980E-02  0.12586914583E+00  0.13363704209E+00  0.43862749131E-01 0.  0.
         14    1    1    2    0    0  0.10770875285E-01 -0.45740899812E-02  0.14939254156E-01  0.18976705939E-01  0.00000000000E+00 0.  1.
     999901    1    3    3    0    0 -0.65900848361E-02  0.13199481379E-01 -0.14080839998E+00  0.89131625197E+00  0.88000000000E+00 0. -1.
        -11    1    4    4    0    0 -0.14275623387E-01 -0.22399319856E-01  0.60573614483E-01  0.66143380966E-01  0.51100000000E-03 0.  1.
         11    1    4    4    0    0  0.10094832938E-01  0.13773928458E-01  0.65295531342E-01  0.67493661121E-01  0.51100000000E-03 0. -1.
</event>
<event>
 8    1  0.2924722E+004  0.1043930E+01  0.7957747E-01            NaN
         13   -1    0    0    0    0  0.00000000000E+00  0.00000000000E+00  0.74505805969E-08  0.10566000000E+00  0.10566000000E+00 0. -1.
     999900   -1    0    0    0    0 -0.00000000000E+00 -0.00000000000E+00 -0.74505805969E-08  0.93827000000E+00  0.93827000000E+00 0.  1.
     999902    2    1    2    0    0  0.15533711652E-02 -0.41564380679E-03 -0.13705189925E-01  0.10301307988E+01  0.10300383705E+01 0.  0.
     999903    2    3    3    0    0  0.13208132090E+00  0.13585230607E-01 -0.81244274819E-02  0.14037537455E+00  0.44824163538E-01 0.  0.
         14    1    1    2    0    0 -0.15533711652E-02  0.41564380679E-03  0.13705189925E-01  0.13799201159E-01  0.00000000000E+00 0. -1.
     999901    1    3    3    0    0 -0.13052794973E+00 -0.14000874414E-01 -0.55807624429E-02  0.88975542429E+00  0.88000000000E+00 0.  1.
        -11    1    4    4    0    0  0.20401988214E-01  0.10719343561E-01 -0.16493523549E-01  0.28345068169E-01  0.51100000000E-03 0.  1.
         11    1    4    4    0    0  0.11167933269E+00  0.28658870462E-02  0.83690960675E-02  0.11203030638E+00  0.51100000000E-03 0. -1.
</event>
<event>
 8    1  0.2924722E+004  0.1043930E+01  0.7957747E-01            NaN
         13   -1    0    0    0    0  0.00000000000E+00  0.00000000000E+00  0.74505805969E-08  0.10566000000E+00  0.10566000000E+00 0. -1.
     999900   -1    0    0    0    0 -0.00000000000E+00 -0.00000000000E+00 -0.74505805969E-08  0.93827000000E+00  0.93827000000E+00 0.  1.
     999902    2    1    2    0    0  0.20210621369E-02 -0.13547827170E-01  0.72911966906E-02  0.10284125949E+01  0.10282955195E+01 0.  0.
     999903    2    3    3    0    0  0.11783844598E+00 -0.56879941957E-01 -0.13600291531E-01  0.13952126694E+00  0.46475680204E-01 0.  0.
         14    1    1    2    0    0 -0.20210621369E-02  0.13547827170E-01 -0.72911966906E-02  0.15517405143E-01  0.00000000000E+00 0.  1.
     999901    1    3    3    0    0 -0.11581738384E+00  0.43332114787E-01  0.20891488222E-01  0.88889132792E+00  0.88000000000E+00 0.  1.
        -11    1    4    4    0    0  0.96640710843E-01 -0.24717087905E-01 -0.40665028218E-02  0.99835659927E-01  0.51100000000E-03 0.  1.
         11    1    4    4    0    0  0.21197735134E-01 -0.32162854052E-01 -0.95337887096E-02  0.39685607010E-01  0.51100000000E-03 0. -1.
</event>
<event>
 8    1  0.2924722E+004  0.1043930E+01  0.7957747E-01            NaN
         13   -1    0    0    0    0  0.00000000000E+00  0.00000000000E+00  0.74505805969E-08  0.10566000000E+00  0.10566000000E+00 0. -1.
     999900   -1    0    0    0    0 -0.00000000000E+00 -0.00000000000E+00 -0.74505805969E-08  0.93827000000E+00  0.93827000000E+00 0. -1.
     999902    2    1    2    0    0  0.13035036077E-01  0.90837937474E-03 -0.44730874691E-02  0.10301189236E+01  0.10300263351E+01 0.  0.
     999903    2    3    3    0    0 -0.16141880084E-01  0.10915117054E+00 -0.75071990752E-01  0.14020207392E+00  0.42968353629E-01 0.  0.
         14    1    1    2    0    0 -0.13035036077E-01 -0.90837937474E-03  0.44730874691E-02  0.13811076356E-01  0.00000000000E+00 0. -1.
     999901    1    3    3    0    0  0.29176916161E-01 -0.10824279116E+00  0.70598903282E-01  0.88991684972E+00  0.88000000000E+00 0.  1.
        -11    1    4    4    0    0 -0.23503579685E-01  0.60782111730E-01 -0.61062553841E-01  0.89307222368E-01  0.51100000000E-03 0. -1.
         11    1    4    4    0    0  0.73616996007E-02  0.48369058809E-01 -0.14009436910E-01  0.50894851553E-01  0.51100000000E-03 0.  1.
</event>
<event>
 8    1  0.2924722E+004  0.1043930E+01  0.7957747E-01            NaN
         13   -1    0    0    0    0  0.00000000000E+00  0.00000000000E+00  0.74505805969E-08  0.10566000000E+00  0.10566000000E+00 0.  1.
     999900   -1    0    0    0    0 -0.00000000000E+00 -0.00000000000E+00 -0.74505805969E-08  0.93827000000E+00  0.93827000000E+00 0.  1.
     999902    2    1    2    0    0 -0.88687086759E-02  0.10801726679E-01  0.16634611857E-02  0.10298552568E+01  0.10297590745E+01 0.  0.
     999903    2    3    3    0    0  0.72279444917E-01  0.20186041159E-01  0.10896042778E+00  0.13958241816E+00  0.44486876977E-01 0.  0.
         14    1    1    2    0    0  0.88687086759E-02 -0.10801726679E-01 -0.16634611857E-02  0.14074743193E-01  0.00000000000E+00 0. -1.
     999901    1    3    3    0    0 -0.81148153593E-01 -0.93843144799E-02 -0.10729696659E+00  0.89027283865E+00  0.88000000000E+00 0.  1.
        -11    1    4    4    0    0  0.65959445935E-01  0.15475297433E-01  0.61605130695E-01  0.91572848528E-01  0.51100000000E-03 0.  1.
         11    1    4    4    0    0  0.63199989828E-02  0.47107437260E-02  0.47355297083E-01  0.48009569634E-01  0.51100000000E-03 0. -1.
</event>
<event>
 8    1  0.2924722E+004  0.1043930E+01  0.7957747E-01            NaN
         13   -1    0    0    0    0  0.00000000000E+00  0.00000000000E+00  0.74505805969E-08  0.10566000000E+00  0.10566000000E+00 0.  1.
     999900   -1    0    0    0    0 -0.00000000000E+00 -0.00000000000E+00 -0.74505805969E-08  0.93827000000E+00  0.93827000000E+00 0.  1.
     999902    2    1    2    0    0  0.79580754791E-02  0.86900590481E-02 -0.11071552091E-02  0.10320947187E+01  0.10320268574E+01 0.  0.
     999903    2    3    3    0    0  0.10331226230E-01  0.60505607636E-01 -0.12047013087E+00  0.14252290994E+00  0.45078427591E-01 0.  0.
         14    1    1    2    0    0 -0.79580754791E-02 -0.86900590481E-02  0.11071552091E-02  0.11835281334E-01  0.00000000000E+00 0.  1.
     999901    1    3    3    0    0 -0.23731507513E-02 -0.51815548588E-01  0.11936297567E+00  0.88957180873E+00  0.88000000000E+00 0. -1.
        -11    1    4    4    0    0  0.55611028347E-02  0.48123951406E-01 -0.45758324204E-01  0.66640272498E-01  0.51100000000E-03 0.  1.
         11    1    4    4    0    0  0.47701233957E-02  0.12381656231E-01 -0.74711806671E-01  0.75882637443E-01  0.51100000000E-03 0. -1.
</event>
<event>
 8    1  0.2924722E+004  0.1043930E+01  0.7957747E-01            NaN
         13   -1    0    0    0    0  0.00000000000E+00  0.00000000000E+00  0.74505805969E-08  0.10566000000E+00  0.10566000000E+00 0.  1.
     999900   -1    0    0    0    0 -0.00000000000E+00 -0.00000000000E+00 -0.74505805969E-08  0.93827000000E+00  0.93827000000E+00 0.  1.
     999902    2    1    2    0    0 -0.12275600463E-02  0.95317638572E-02  0.10521107249E-01  0.10296802588E+01  0.10295816530E+01 0.  0.
     999903    2    3    3    0    0  0.81316720967E-01 -0.92668367831E-01  0.48337715013E-01  0.13912508306E+00  0.42654642652E-01 0.  0.
         14    1    1    2    0    0  0.12275600463E-02 -0.95317638572E-02 -0.10521107249E-01  0.14249741178E-01  0.00000000000E+00 0. -1.
     999901    1    3    3    0    0 -0.82544281013E-01  0.10220013169E+00 -0.37816607764E-01  0.89055517576E+00  0.88000000000E+00 0.  1.
        -11    1    4    4    0    0  0.32035660090E-01 -0.18316704341E-01 -0.15155404652E-02  0.36937016111E-01  0.51100000000E-03 0. -1.
         11    1    4    4    0    0  0.49281060877E-01 -0.74351663490E-01  0.49853255478E-01  0.10218806695E+00  0.51100000000E-03 0.  1.
</event>
<event>
 8    1  0.2924722E+004  0.1043930E+01  0.7957747E-01            NaN
         13   -1    0    0    0    0  0.00000000000E+00  0.00000000000E+00  0.74505805969E-08  0.10566000000E+00  0.10566000000E+00 0.  1.
     999900   -1    0    0    0    0 -0.00000000000E+00 -0.00000000000E+00 -0.74505805969E-08  0.93827000000E+00  0.93827000000E+00 0.  1.
     999902    2    1    2    0    0 -0.35514787039E-02 -0.85693331624E-02  0.19215507167E-02  0.10344569419E+01  0.10344135662E+01 0.  0.
     999903    2    3    3    0    0  0.92874564967E-01  0.93845552902E-01 -0.30475056793E-01  0.14269669896E+00  0.44731937022E-01 0.  0.
         14    1    1    2    0    0  0.35514787039E-02  0.85693331624E-02 -0.19215507167E-02  0.94730580590E-02  0.00000000000E+00 0. -1.
     999901    1    3    3    0    0 -0.96426043671E-01 -0.10241488606E+00  0.32396607509E-01  0.89176024298E+00  0.88000000000E+00 0.  1.
        -11    1    4    4    0    0  0.28116062190E-01  0.53663433324E-01 -0.27205423920E-01  0.66412899657E-01  0.51100000000E-03 0.  1.
         11    1    4    4    0    0  0.64758502777E-01  0.40182119579E-01 -0.32696328724E-02  0.76283799302E-01  0.51100000000E-03 0. -1.
</event>
<event>
 8    1  0.2924722E+004  0.1043930E+01  0.7957747E-01            NaN
         13   -1    0    0    0    0  0.00000000000E+00  0.00000000000E+00  0.74505805969E-08  0.10566000000E+00  0.10566000000E+00 0. -1.
     999900   -1    0    0    0    0 -0.00000000000E+00 -0.00000000000E+00 -0.74505805969E-08  0.93827000000E+00  0.93827000000E+00 0. -1.
     999902    2    1    2    0    0 -0.94089157797E-03  0.39489251872E-02 -0.12949136718E-01  0.10303594647E+01  0.10302700942E+01 0.  0.
     999903    2    3    3    0    0 -0.51984973651E-01  0.36858595664E-01  0.11569419078E+00  0.13893495838E+00  0.43090408689E-01 0.  0.
         14    1    1    2    0    0  0.94089157797E-03 -0.39489251872E-02  0.12949136718E-01  0.13570535319E-01  0.00000000000E+00 0. -1.
     999901    1    3    3    0    0  0.51044082073E-01 -0.32909670477E-01 -0.12864332749E+00  0.89142450630E+00  0.88000000000E+00 0. -1.
        -11    1    4    4    0    0 -0.18829712368E-01  0.33566429299E-01  0.36625190502E-01  0.53131242637E-01  0.51100000000E-03 0.  1.
         11    1    4    4    0    0 -0.33155261283E-01  0.32921663644E-02  0.79069000274E-01  0.85803715744E-01  0.51100000000E-03 0. -1.
</event>
<event>
 7    1  0.2924722E+004  0.1043930E+01  0.7957747E-01            NaN
         13   -1    0    0    0    0  0.00000000000E+00  0.00000000000E+00  0.74505805969E-08  0.10566000000E+00  0.10566000000E+00 0.  1.
     999900   -1    0    0    0    0 -0.00000000000E+00 -0.00000000000E+00 -0.74505805969E-08  0.93827000000E+00  0.93827000000E+00 0. -1.
     999903    2    1    2    0    0  0.38824269677E-01  0.63413817350E-01 -0.87540135257E-01  0.12489066816E+00  0.49048624501E-01 0.  0.
         14    1    1    2    0    0 -0.16415951121E-01  0.20407574136E-01  0.18531272609E-01  0.32083650008E-01  0.00000000000E+00 0.  1.
     999901    1    1    2    0    0 -0.22408318556E-01 -0.83821391487E-01  0.69008862648E-01  0.88695568183E+00  0.88000000000E+00 0.  1.
        -11    1    3    3    0    0  0.27234298569E-01  0.70397569227E-01 -0.75701081742E-01  0.10690388052E+00  0.51100000000E-03 0. -1.
         11    1    3    3    0    0  0.11589971108E-01 -0.69837518767E-02 -0.11839053515E-01  0.17986787642E-01  0.51100000000E-03 0.  1.
</event>
<event>
 8    1  0.2924722E+004  0.1043930E+01  0.7957747E-01            NaN
         13   -1    0    0    0    0  0.00000000000E+00  0.00000000000E+00  0.74505805969E-08  0.10566000000E+00  0.10566000000E+00 0. -1.
     999900   -1    0    0    0    0 -0.00000000000E+00 -0.00000000000E+00 -0.74505805969E-08  0.93827000000E+00  0.93827000000E+00 0. -1.
     999902    2    1    2    0    0  0.75170257603E-02 -0.10892398830E-01 -0.55982275754E-02  0.10295602338E+01  0.10294599482E+01 0.  0.
     999903    2    3    3    0    0  0.11698671653E+00 -0.23440408523E-01  0.58679208729E-01  0.14036247483E+00  0.44978108091E-01 0.  0.
         14    1    1    2    0    0 -0.75170257603E-02  0.10892398830E-01  0.55982275754E-02  0.14369766197E-01  0.00000000000E+00 0.  1.
     999901    1    3    3    0    0 -0.10946969077E+00  0.12548009693E-01 -0.64277436304E-01  0.88919775897E+00  0.88000000000E+00 0. -1.
        -11    1    4    4    0    0  0.39581721984E-01 -0.50551606730E-02 -0.25221116880E-02  0.39986116753E-01  0.51100000000E-03 0. -1.
         11    1    4    4    0    0  0.77404994546E-01 -0.18385247850E-01  0.61201320417E-01  0.10037635808E+00  0.51100000000E-03 0.  1.
</event>
<event>
 8    1  0.2924722E+004  0.1043930E+01  0.7957747E-01            NaN
         13   -1    0    0    0    0  0.00000000000E+00  0.00000000000E+00  0.74505805969E-08  0.10566000000E+00  0.10566000000E+00 0. -1.
     999900   -1    0    0    0    0 -0.00000000000E+00 -0.00000000000E+00 -0.74505805969E-08  0.93827000000E+00  0.93827000000E+00 0. -1.
     999902    2    1    2    0    0 -0.19316017578E-02 -0.13276176366E-01 -0.10325783451E-01  0.10270004475E+01  0.10268609007E+01 0.  0.
     999903    2    3    3    0    0  0.11941239414E+00  0.43627963443E-01  0.11871030396E-01  0.13657630978E+00  0.48471104414E-01 0.  0.
         14    1    1    2    0    0  0.19316017578E-02  0.13276176366E-01  0.10325783451E-01  0.16929552508E-01  0.00000000000E+00 0. -1.
     999901    1    3    3    0    0 -0.12134399590E+00 -0.56904139809E-01 -0.22196813847E-01  0.89042413771E+00  0.88000000000E+00 0. -1.
        -11    1    4    4    0    0  0.47357557547E-01  0.37753470574E-01 -0.92257819099E-02  0.61265316208E-01  0.51100000000E-03 0. -1.
         11    1    4    4    0    0  0.72054836594E-01  0.58744928688E-02  0.21096812306E-01  0.75310993576E-01  0.51100000000E-03 0.  1.
</event>
<event>
 8    1  0.2924722E+004  0.1043930E+01  0.7957747E-01            NaN
         13   -1    0    0    0    0  0.00000000000E+00  0.00000000000E+00  0.74505805969E-08  0.10566000000E+00  0.10566000000E+00 0. -1.
     999900   -1    0    0    0    0 -0.00000000000E+00 -0.00000000000E+00 -0.74505805969E-08  0.93827000000E+00  0.93827000000E+00 0.  1.
     999902    2    1    2    0    0 -0.70199882788E-02  0.64475729268E-02 -0.13364852839E-01  0.10275144365E+01  0.10273833007E+01 0.  0.
     999903    2    3    3    0    0 -0.46684842580E-01 -0.10601746563E+00 -0.60490067314E-01  0.13822119391E+00  0.45020802481E-01 0.  0.
         14    1    1    2    0    0  0.70199882788E-02 -0.64475729268E-02  0.13364852839E-01  0.16415563453E-01  0.00000000000E+00 0. -1.
     999901    1    3    3    0    0  0.39664854301E-01  0.11246503856E+00  0.47125214476E-01  0.88929324264E+00  0.88000000000E+00 0.  1.
        -11    1    4    4    0    0 -0.45144576602E-01 -0.64476475442E-01 -0.22398813831E-01  0.81836524022E-01  0.51100000000E-03 0.  1.
         11    1    4    4    0    0 -0.15402659782E-02 -0.41540990189E-01 -0.38091253484E-01  0.56384669886E-01  0.51100000000E-03 0. -1.
</event>
<event>
 8    1  0.2924722E+004  0.1043930E+01  0.7957747E-01            NaN
         13   -1    0    0    0    0  0.00000000000E+00  0.00000000000E+00  0.74505805969E-08  0.10566000000E+00  0.10566000000E+00 0. -1.
     999900   -1    0    0    0    0 -0.00000000000E+00 -0.00000000000E+00 -0.74505805969E-08  0.93827000000E+00  0.93827000000E+00 0.  1.
     999902    2    1    2    0    0  0.33877151910E-02  0.72759631006E-02 -0.10860745740E-01  0.10304254803E+01  0.10303369830E+01 0.  0.
     999903    2    3    3    0    0 -0.48964890339E-01  0.74199308048E-01  0.97811478550E-01  0.13967906203E+00  0.45166992722E-01 0.  0.
         14    1    1    2    0    0 -0.33877151910E-02 -0.72759631006E-02  0.10860745740E-01  0.13504519661E-01  0.00000000000E+00 0. -1.
     999901    1    3    3    0    0  0.52352605530E-01 -0.66923344948E-01 -0.10867222429E+00  0.89074641831E+00  0.88000000000E+00 0.  1.
        -11    1    4    4    0    0 -0.39947992258E-01  0.34937041214E-01  0.30445140325E-01  0.61185019609E-01  0.51100000000E-03 0.  1.
         11    1    4    4    0    0 -0.90168980806E-02  0.39262266835E-01  0.67366338225E-01  0.78494042417E-01  0.51100000000E-03 0. -1.
</event>
<event>
 8    1  0.2924722E+004  0.1043930E+01  0.7957747E-01            NaN
         13   -1    0    0    0    0  0.00000000000E+00  0.00000000000E+00  0.74505805969E-08  0.10566000000E+00  0.10566000000E+00 0.  1.
     999900   -1    0    0    0    0 -0.00000000000E+00 -0.00000000000E+00 -0.74505805969E-08  0.93827000000E+00  0.93827000000E+00 0.  1.
     999902    2    1    2    0    0  0.29388373213E-02 -0.37264181592E-02  0.16884067095E-01  0.10263916227E+01  0.10262417690E+01 0.  0.
     999903    2    3    3    0    0 -0.84204077055E-01  0.90815789208E-01 -0.33066845190E-01  0.13564631109E+00  0.44369711497E-01 0.  0.
         14    1    1    2    0    0 -0.29388373213E-02  0.37264181592E-02 -0.16884067095E-01  0.17538377313E-01  0.00000000000E+00 0. -1.
     999901    1    3    3    0    0  0.87142914377E-01 -0.94542207367E-01  0.49950912285E-01  0.89074531160E+00  0.88000000000E+00 0. -1.
        -11    1    4    4    0    0 -0.45687508710E-01  0.62546952301E-01 -0.40312382152E-01  0.87320209402E-01  0.51100000000E-03 0.  1.
         11    1    4    4    0    0 -0.38516568345E-01  0.28268836908E-01  0.72455369617E-02  0.48326101685E-01  0.51100000000E-03 0. -1.
</event>
<event>
 8    1  0.2924722E+004  0.1043930E+01  0.7957747E-01            NaN
         13   -1    0    0    0    0  0.00000000000E+00  0.00000000000E+00  0.74505805969E-08  0.10566000000E+00  0.10566000000E+00 0. -1.
     999900   -1    0    0    0    0 -0.00000000000E+00 -0.00000000000E+00 -0.74505805969E-08  0.93827000000E+00  0.93827000000E+00 0.  1.
     999902    2    1    2    0    0 -0.67530221065E-02 -0.89868527851E-02 -0.83427668423E-02  0.10299311219E+01  0.10298359807E+01 0.  0.
     999903    2    3    3    0    0 -0.11113964968E+00 -0.36138321370E-01 -0.65413485766E-01  0.14151070493E+00  0.45698528277E-01 0.  0.
         14    1    1    2    0    0  0.67530221065E-02  0.89868527851E-02  0.83427668423E-02  0.13998878139E-01  0.00000000000E+00 0. -1.
     999901    1    3    3    0    0  0.10438662758E+00  0.27151468585E-01  0.57070718924E-01  0.88842041693E+00  0.88000000000E+00 0.  1.
        -11    1    4    4    0    0 -0.85830393504E-02  0.57747118262E-02 -0.18486866822E-01  0.21190592891E-01  0.51100000000E-03 0.  1.
         11    1    4    4    0    0 -0.10255661033E+00 -0.41913033197E-01 -0.46926618944E-01  0.12032011204E+00  0.51100000000E-03 0. -1.
</event>
<event>
 8    1  0.2924722E+004  0.1043930E+01  0.7957747E-01            NaN
         13   -1    0    0    0    0  0.00000000000E+00  0.00000000000E+00  0.74505805969E-08  0.10566000000E+00  0.10566000000E+00 0. -1.
     999900   -1    0    0    0    0 -0.00000000000E+00 -0.00000000000E+00 -0.74505805969E-08  0.93827000000E+00  0.93827000000E+00 0.  1.
     999902    2    1    2    0    0 -0.22877014334E-02  0.81687233411E-02  0.10048422756E-01  0.10307796229E+01  0.10306957352E+01 0.  0.
     999903    2    3    3    0    0 -0.46092377961E-01  0.10049802291E+00  0.75089549541E-01  0.14248130731E+00  0.49377348745E-01 0.  0.
         14    1    1    2    0    0  0.22877014334E-02 -0.81687233411E-02 -0.10048422756E-01  0.13150377134E-01  0.00000000000E+00 0.  1.
     999901    1    3    3    0    0  0.43804676528E-01 -0.92329299564E-01 -0.65041126785E-01  0.88829831555E+00  0.88000000000E+00 0.  1.
        -11    1    4    4    0    0 -0.48669106865E-01  0.50678935783E-01  0.52522142331E-01  0.87726125249E-01  0.51100000000E-03 0. -1.
         11    1    4    4    0    0  0.25767289042E-02  0.49819087122E-01  0.22567407210E-01  0.54755182063E-01  0.51100000000E-03 0.  1.
</event>
<event>
 8    1  0.2924722E+004  0.1043930E+01  0.7957747E-01            NaN
         13   -1    0    0    0    0  0.00000000000E+00  0.00000000000E+00  0.74505805969E-08  0.10566000000E+00  0.10566000000E+00 0.  1.
     999900   -1    0    0    0    0 -0.00000000000E+00 -0.00000000000E+00 -0.74505805969E-08  0.93827000000E+00  0.93827000000E+00 0.  1.
     999902    2    1    2    0    0  0.10152145340E-01 -0.21377030128E-02 -0.90479831549E-02  0.10301640337E+01  0.10300720531E+01 0.  0.
     999903    2    3    3    0    0  0.56802356939E-01  0.67312524084E-01  0.98505766764E-01  0.13967687185E+00  0.45263216764E-01 0.  0.
         14    1    1    2    0    0 -0.10152145340E-01  0.21377030128E-02  0.90479831549E-02  0.13765966306E-01  0.00000000000E+00 0.  1.
     999901    1    3    3    0    0 -0.46650211598E-01 -0.69450227097E-01 -0.10755374992E+00  0.89048716184E+00  0.88000000000E+00 0.  1.
        -11    1    4    4    0    0  0.45606619779E-01  0.42094891192E-01  0.92567444432E-01  0.11144925537E+00  0.51100000000E-03 0.  1.
         11    1    4    4    0    0  0.11195737160E-01  0.25217632892E-01  0.59383223317E-02  0.28227616484E-01  0.51100000000E-03 0. -1.
</event>
<event>
 8    1  0.2924722E+004  0.1043930E+01  0.7957747E-01            NaN
         13   -1    0    0    0    0  0.00000000000E+00  0.00000000000E+00  0.74505805969E-08  0.10566000000E+00  0.10566000000E+00 0. -1.
     999900   -1    0    0    0    0 -0.00000000000E+00 -0.00000000000E+00 -0.74505805969E-08  0.93827000000E+00  0.93827000000E+00 0. -1.
     999902    2    1    2    0    0 -0.10157323844E-01  0.10211500849E-01 -0.33911520282E-02  0.10291331798E+01  0.10290268003E+01 0.  0.
     999903    2    3    3    0    0  0.88950516297E-01  0.14833575744E-01  0.94780555048E-01  0.13813294877E+00  0.44329771042E-01 0.  0.
         14    1    1    2    0    0  0.10157323844E-01 -0.10211500849E-01  0.33911520282E-02  0.14796820244E-01  0.00000000000E+00 0.  1.
     999901    1    3    3    0    0 -0.99107840141E-01 -0.46220748952E-02 -0.98171707076E-01  0.89100023099E+00  0.88000000000E+00 0.  1.
        -11    1    4    4    0    0  0.11101371558E-01 -0.11385862135E-01  0.28254474256E-01  0.32426142902E-01  0.51100000000E-03 0. -1.
         11    1    4    4    0    0  0.77849144739E-01  0.26219437879E-01  0.66526080792E-01  0.10570680586E+00  0.51100000000E-03 0.  1.
</event>
<event>
 8    1  0.2924722E+004  0.1043930E+01  0.7957747E-01            NaN
         13   -1    0    0    0    0  0.00000000000E+00  0.00000000000E+00  0.74505805969E-08  0.10566000000E+00  0.10566000000E+00 0. -1.
     999900   -1    0    0    0    0 -0.00000000000E+00 -0.00000000000E+00 -0.74505805969E-08  0.93827000000E+00  0.93827000000E+00 0. -1.
     999902    2    1    2    0    0  0.13714332668E-01 -0.13712332683E-02 -0.10964856197E-02  0.10301037394E+01  0.10300109458E+01 0.  0.
     999903    2    3    3    0    0 -0.59984105181E-01 -0.11585231882E+00  0.18960446765E-01  0.13940757391E+00  0.45333436581E-01 0.  0.
         14    1    1    2    0    0 -0.13714332668E-01  0.13712332683E-02  0.10964856197E-02  0.13826260591E-01  0.00000000000E+00 0.  1.
     999901    1    3    3    0    0  0.73698437849E-01  0.11448108555E+00 -0.20056932385E-01  0.89069616550E+00  0.88000000000E+00 0. -1.
        -11    1    4    4    0    0 -0.21003090109E-01 -0.46255467137E-01 -0.14606746649E-01  0.52861292103E-01  0.51100000000E-03 0. -1.
         11    1    4    4    0    0 -0.38981015072E-01 -0.69596851685E-01  0.33567193414E-01  0.86546281811E-01  0.51100000000E-03 0.  1.
</event>
<event>
 8    1  0.2924722E+004  0.1043930E+01  0.7957747E-01            NaN
         13   -1    0    0    0    0  0.00000000000E+00  0.00000000000E+00  0.74505805969E-08  0.10566000000E+00  0.10566000000E+00 0. -1.
     999900   -1    0    0    0    0 -0.00000000000E+00 -0.00000000000E+00 -0.74505805969E-08  0.93827000000E+00  0.93827000000E+00 0. -1.
     999902    2    1    2    0    0  0.71666153046E-02 -0.29852840430E-02  0.11652914392E-01  0.10299277606E+01  0.10298325734E+01 0.  0.
     999903    2    3    3    0    0 -0.78821202024E-01  0.82032095552E-01  0.67704524872E-01  0.13989200700E+00  0.45208675553E-01 0.  0.
         14    1    1    2    0    0 -0.71666153046E-02  0.29852840430E-02 -0.11652914392E-01  0.14002239448E-01  0.00000000000E+00 0.  1.
     999901    1    3    3    0    0  0.85987817329E-01 -0.85017379595E-01 -0.56051610480E-01  0.89003575355E+00  0.88000000000E+00 0. -1.
        -11    1    4    4    0    0 -0.51763784517E-01  0.30898653223E-01  0.52825328367E-01  0.80156051529E-01  0.51100000000E-03 0. -1.
         11    1    4    4    0    0 -0.27057417507E-01  0.51133442328E-01  0.14879196505E-01  0.59735955472E-01  0.51100000000E-03 0.  1.
</event>
<event>
 8    1  0.2924722E+004  0.1043930E+01  0.7957747E-01            NaN
         13   -1    0    0    0    0  0.00000000000E+00  0.00000000000E+00  0.74505805969E-08  0.10566000000E+00  0.10566000000E+00 0. -1.
     999900   -1    0    0    0    0 -0.00000000000E+00 -0.00000000000E+00 -0.74505805969E-08  0.93827000000E+00  0.93827000000E+00 0. -1.
     999902    2    1    2    0    0 -0.90114102296E-02  0.37402943779E-02  0.10507192774E-01  0.10295913663E+01  0.10294915178E+01 0.  0.
     999903    2    3    3    0    0  0.81226022329E-01  0.88731707147E-02 -0.10138262060E+00  0.13791403061E+00  0.45447158512E-01 0.  0.
         14    1    1    2    0    0  0.90114102296E-02 -0.37402943779E-02 -0.10507192774E-01  0.14338633699E-01  0.00000000000E+00 0.  1.
     999901    1    3    3    0    0 -0.90237432558E-01 -0.51328763368E-02  0.11188981337E+00  0.89167733569E+00  0.88000000000E+00 0.  1.
        -11    1    4    4    0    0  0.47680944503E-01 -0.17471009781E-01 -0.57516292116E-01  0.76727398178E-01  0.51100000000E-03 0.  1.
         11    1    4    4    0    0  0.33545077826E-01  0.26344180496E-01 -0.43866328483E-01  0.61186632428E-01  0.51100000000E-03 0. -1.
</event>
<event>
 8    1  0.2924722E+004  0.1043930E+01  0.7957747E-01            NaN
         13   -1    0    0    0    0  0.00000000000E+00  0.00000000000E+00  0.74505805969E-08  0.10566000000E+00  0.10566000000E+00 0.  1.
     999900   -1    0    0    0    0 -0.00000000000E+00 -0.00000000000E+00 -0.74505805969E-08  0.93827000000E+00  0.93827000000E+00 0.  1.
     999902    2    1    2    0    0  0.36960462719E-02 -0.78675878129E-02  0.10797958164E-01  0.10300679801E+01  0.10299747026E+01 0.  0.
     999903    2    3    3    0    0  0.18115591960E-01  0.10750724421E+00 -0.71737096945E-01  0.13859094140E+00  0.46639636899E-01 0.  0.
         14    1    1    2    0    0 -0.36960462719E-02  0.78675878129E-02 -0.10797958164E-01  0.13862019930E-01  0.00000000000E+00 0. -1.
     999901    1    3    3    0    0 -0.14419545688E-01 -0.11537483202E+00  0.82535055108E-01  0.89147703867E+00  0.88000000000E+00 0. -1.
        -11    1    4    4    0    0 -0.15931646963E-01  0.33638705818E-01 -0.21441514590E-01  0.42957881384E-01  0.51100000000E-03 0. -1.
         11    1    4    4    0    0  0.34047238923E-01  0.73868538388E-01 -0.50295582355E-01  0.95633060012E-01  0.51100000000E-03 0.  1.
</event>
<event>
 8    1  0.2924722E+004  0.1043930E+01  0.7957747E-01            NaN
         13   -1    0    0    0    0  0.00000000000E+00  0.00000000000E+00  0.74505805969E-08  0.10566000000E+00  0.10566000000E+00 0.  1.
     999900   -1    0    0    0    0 -0.00000000000E+00 -0.00000000000E+00 -0.74505805969E-08  0.93827000000E+00  0.93827000000E+00 0. -1.
     999902    2    1    2    0    0  0.55613282261E-02 -0.96114984275E-02  0.75315535253E-02  0.10305123410E+01  0.10304249858E+01 0.  0.
     999903    2    3    3    0    0  0.94578311891E-01  0.80273306809E-01 -0.45344408124E-01  0.13989504448E+00  0.46104742235E-01 0.  0.
         14    1    1    2    0    0 -0.55613282261E-02  0.96114984275E-02 -0.75315535253E-02  0.13417658967E-01  0.00000000000E+00 0. -1.
     999901    1    3    3    0    0 -0.89016983665E-01 -0.89884805237E-01  0.52875961650E-01  0.89061729655E+00  0.88000000000E+00 0.  1.
        -11    1    4    4    0    0  0.86351448611E-01  0.47648071543E-01 -0.35716108476E-01  0.10489429405E+00  0.51100000000E-03 0. -1.
         11    1    4    4    0    0  0.82268632796E-02  0.32625235266E-01 -0.96282996486E-02  0.35000750431E-01  0.51100000000E-03 0.  1.
</event>
<event>
 8    1  0.2924722E+004  0.1043930E+01  0.7957747E-01            NaN
         13   -1    0    0    0    0  0.00000000000E+00  0.00000000000E+00  0.74505805969E-08  0.10566000000E+00  0.10566000000E+00 0.  1.
     999900   -1    0    0    0    0 -0.00000000000E+00 -0.00000000000E+00 -0.74505805969E-08  0.93827000000E+00  0.93827000000E+00 0.  1.
     999902    2    1    2    0    0  0.63686278078E-02 -0.12942857639E-01  0.42750868452E-02  0.10288849559E+01  0.10287749507E+01 0.  0.
     999903    2    3    3    0    0 -0.11139100129E+00  0.45800527076E-01  0.49673322174E-01  0.13794213212E+00  0.45331550045E-01 0.  0.
         14    1    1    2    0    0 -0.63686278078E-02  0.12942857639E-01 -0.42750868452E-02  0.15045044086E-01  0.00000000000E+00 0.  1.
     999901    1    3    3    0    0  0.11775962910E+00 -0.58743384716E-01 -0.45398235329E-01  0.89094282379E+00  0.88000000000E+00 0.  1.
        -11    1    4    4    0    0 -0.72697635267E-01  0.34771865008E-01  0.54690755134E-01  0.97392856965E-01  0.51100000000E-03 0.  1.
         11    1    4    4    0    0 -0.38693366025E-01  0.11028662068E-01 -0.50174329602E-02  0.40549275158E-01  0.51100000000E-03 0. -1.
</event>
<event>
 8    1  0.2924722E+004  0.1043930E+01  0.7957747E-01            NaN
         13   -1    0    0    0    0  0.00000000000E+00  0.00000000000E+00  0.74505805969E-08  0.10566000000E+00  0.10566000000E+00 0.  1.
     999900   -1    0    0    0    0 -0.00000000000E+00 -0.00000000000E+00 -0.74505805969E-08  0.93827000000E+00  0.93827000000E+00 0. -1.
     999902    2    1    2    0    0  0.39124364938E-02  0.15242601116E-01  0.75223395114E-02  0.10264878201E+01  0.10263396198E+01 0.  0.
     999903    2    3    3    0    0  0.11678097632E+00 -0.46811063583E-01 -0.27124276869E-01  0.13643706165E+00  0.45279943590E-01 0.  0.
         14    1    1    2    0    0 -0.39124364938E-02 -0.15242601116E-01 -0.75223395114E-02  0.17442179905E-01  0.00000000000E+00 0. -1.
     999901    1    3    3    0    0 -0.11286853983E+00  0.62053664700E-01  0.34646616380E-01  0.89005075845E+00  0.88000000000E+00 0.  1.
        -11    1    4    4    0    0  0.56075398682E-01 -0.98081343412E-02  0.73891738916E-02  0.57406540119E-01  0.51100000000E-03 0.  1.
         11    1    4    4    0    0  0.60705577637E-01 -0.37002929242E-01 -0.34513450760E-01  0.79030521529E-01  0.51100000000E-03 0. -1.
</event>
<event>
 8    1  0.2924722E+004  0.1043930E+01  0.7957747E-01            NaN
         13   -1    0    0    0    0  0.00000000000E+00  0.00000000000E+00  0.74505805969E-08  0.10566000000E+00  0.10566000000E+00 0. -1.
     999900   -1    0    0    0    0 -0.00000000000E+00 -0.00000000000E+00 -0.74505805969E-08  0.93827000000E+00  0.93827000000E+00 0.  1.
     999902    2    1    2    0    0 -0.28172833384E-02 -0.11121709702E-01  0.75195139935E-02  0.10302123981E+01  0.10301210669E+01 0.  0.
     999903    2    3    3    0    0 -0.44301052424E-01  0.12352265679E+00  0.71602180586E-02  0.13900527421E+00  0.45285401048E-01 0.  0.
         14    1    1    2    0    0  0.28172833384E-02  0.11121709702E-01 -0.75195139935E-02  0.13717601933E-01  0.00000000000E+00 0. -1.
     999901    1    3    3    0    0  0.41483769086E-01 -0.13464436649E+00  0.35929593491E-03  0.89120712386E+00  0.88000000000E+00 0. -1.
        -11    1    4    4    0    0 -0.43523621964E-01  0.73211604595E-01  0.19099547190E-01  0.87288593413E-01  0.51100000000E-03 0.  1.
         11    1    4    4    0    0 -0.77743046011E-03  0.50311052196E-01 -0.11939329131E-01  0.51716680793E-01  0.51100000000E-03 0. -1.
</event>
<event>
 8    1  0.2924722E+004  0.1043930E+01  0.7957747E-01            NaN
         13   -1    0    0    0    0  0.00000000000E+00  0.00000000000E+00  0.74505805969E-08  0.10566000000E+00  0.10566000000E+00 0. -1.
     999900   -1    0    0    0    0 -0.00000000000E+00 -0.00000000000E+00 -0.74505805969E-08  0.93827000000E+00  0.93827000000E+00 0.  1.
     999902    2    1    2    0    0  0.11424799195E-01  0.62762382613E-02  0.14569287466E-02  0.10308136040E+01  0.10307301520E+01 0.  0.
     999903    2    3    3    0    0  0.62103782633E-01  0.10798036571E+00 -0.50620383213E-01  0.14198058517E+00  0.45600703631E-01 0.  0.
         14    1    1    2    0    0 -0.11424799195E-01 -0.62762382613E-02 -0.14569287466E-02  0.13116396027E-01  0.00000000000E+00 0.  1.
     999901    1    3    3    0    0 -0.50678983438E-01 -0.10170412745E+00  0.52077311960E-01  0.88883301881E+00  0.88000000000E+00 0.  1.
        -11    1    4    4    0    0  0.40944051439E-03  0.42720629988E-01 -0.19128495721E-01  0.46812181509E-01  0.51100000000E-03 0.  1.
         11    1    4    4    0    0  0.61694342119E-01  0.65259735719E-01 -0.31491887492E-01  0.95168403656E-01  0.51100000000E-03 0. -1.
</event>
<event>
 8    1  0.2924722E+004  0.1043930E+01  0.7957747E-01            NaN
         13   -1    0    0    0    0  0.00000000000E+00  0.00000000000E+00  0.74505805969E-08  0.10566000000E+00  0.10566000000E+00 0.  1.
     999900   -1    0    0    0    0 -0.00000000000E+00 -0.00000000000E+00 -0.74505805969E-08  0.93827000000E+00  0.93827000000E+00 0. -1.
     999902    2    1    2    0    0  0.65411875466E-02 -0.10130382287E-01 -0.61556221250E-02  0.10303910391E+01  0.10303020867E+01 0.  0.
     999903    2    3    3    0    0  0.22681496257E-01 -0.55416883013E-01 -0.12016457556E+00  0.14173507740E+00  0.45429349011E-01 0.  0.
         14    1    1    2    0    0 -0.65411875466E-02  0.10130382287E-01  0.61556221250E-02  0.13538960947E-01  0.00000000000E+00 0.  1.
     999901    1    3    3    0    0 -0.16140308710E-01  0.45286500726E-01  0.11400895343E+00  0.88865596165E+00  0.88000000000E+00 0.  1.
        -11    1    4    4    0    0  0.30414768249E-01 -0.20363466803E-01 -0.79298649846E-01  0.87339944449E-01  0.51100000000E-03 0. -1.
         11    1    4    4    0    0 -0.77332719918E-02 -0.35053416209E-01 -0.40865925713E-01  0.54395132953E-01  0.51100000000E-03 0.  1.
</event>
<event>
 8    1  0.2924722E+004  0.1043930E+01  0.7957747E-01            NaN
         13   -1    0    0    0    0  0.00000000000E+00  0.00000000000E+00  0.74505805969E-08  0.10566000000E+00  0.10566000000E+00 0. -1.
     999900   -1    0    0    0    0 -0.00000000000E+00 -0.00000000000E+00 -0.74505805969E-08  0.93827000000E+00  0.93827000000E+00 0. -1.
     999902    2    1    2    0    0 -0.45520940433E-02 -0.13059513731E-01 -0.19549943024E-02  0.10299623781E+01  0.10298676642E+01 0.  0.
     999903    2    3    3    0    0  0.87077635436E-02 -0.13302006043E+00 -0.15159144158E-01  0.14162645843E+00  0.45366203863E-01 0.  0.
         14    1    1    2    0    0  0.45520940433E-02  0.13059513731E-01  0.19549943024E-02  0.13967621909E-01  0.00000000000E+00 0.  1.
     999901    1    3    3    0    0 -0.13259857587E-01  0.11996054670E+00  0.13204149856E-01  0.88833591966E+00  0.88000000000E+00 0. -1.
        -11    1    4    4    0    0  0.24366628928E-01 -0.56572677679E-01  0.23732757503E-02  0.61644902660E-01  0.51100000000E-03 0.  1.
         11    1    4    4    0    0 -0.15658865384E-01 -0.76447382750E-01 -0.17532419908E-01  0.79981555770E-01  0.51100000000E-03 0. -1.
</event>
<event>
 8    1  0.2924722E+004  0.1043930E+01  0.7957747E-01            NaN
         13   -1    0    0    0    0  0.00000000000E+00  0.00000000000E+00  0.74505805969E-08  0.10566000000E+00  0.10566000000E+00 0.  1.
     999900   -1    0    0    0    0 -0.00000000000E+00 -0.00000000000E+00 -0.74505805969E-08  0.93827000000E+00  0.93827000000E+00 0. -1.
     999902    2    1    2    0    0  0.73567146196E-02 -0.70395151080E-02  0.93765957186E-02  0.10300881587E+01  0.10299951544E+01 0.  0.
     999903    2    3    3    0    0  0.12547787738E+00 -0.43773580245E-01  0.15578978101E-01  0.14141472590E+00  0.45766757650E-01 0.  0.
         14    1    1    2    0    0 -0.73567146196E-02  0.70395151080E-02 -0.93765957186E-02  0.13841841287E-01  0.00000000000E+00 0. -1.
     999901    1    3    3    0    0 -0.11812116276E+00  0.36734065137E-01 -0.62023823824E-02  0.88867343281E+00  0.88000000000E+00 0.  1.
        -11    1    4    4    0    0  0.37102558108E-01  0.44995881334E-02 -0.74515209766E-02  0.38113414926E-01  0.51100000000E-03 0.  1.
         11    1    4    4    0    0  0.88375319268E-01 -0.48273168378E-01  0.23030499078E-01  0.10330131098E+00  0.51100000000E-03 0. -1.
</event>
<event>
 8    1  0.2924722E+004  0.1043930E+01  0.7957747E-01            NaN
         13   -1    0    0    0    0  0.00000000000E+00  0.00000000000E+00  0.74505805969E-08  0.10566000000E+00  0.10566000000E+00 0.  1.
     999900   -1    0    0    0    0 -0.00000000000E+00 -0.00000000000E+00 -0.74505805969E-08  0.93827000000E+00  0.93827000000E+00 0. -1.
     999902    2    1    2    0    0 -0.88909622074E-05  0.75033763815E-02  0.11754182613E-01  0.10299850531E+01  0.10298906486E+01 0.  0.
     999903    2    3    3    0    0 -0.23674442064E-01  0.11380246856E+00  0.66963547024E-01  0.14155518570E+00  0.45191513716E-01 0.  0.
         14    1    1    2    0    0  0.88909622074E-05 -0.75033763815E-02 -0.11754182613E-01  0.13944946937E-01  0.00000000000E+00 0. -1.
     999901    1    3    3    0    0  0.23665551102E-01 -0.10629909217E+00 -0.55209364410E-01  0.88842986736E+00  0.88000000000E+00 0. -1.
        -11    1    4    4    0    0 -0.11809165910E-01  0.67897479923E-01  0.13742446267E-01  0.70275458944E-01  0.51100000000E-03 0. -1.
         11    1    4    4    0    0 -0.11865276155E-01  0.45904988632E-01  0.53221100756E-01  0.71279726755E-01  0.51100000000E-03 0.  1.
</event>
<event>
 8    1  0.2924722E+004  0.1043930E+01  0.7957747E-01            NaN
         13   -1    0    0    0    0  0.00000000000E+00  0.00000000000E+00  0.74505805969E-08  0.10566000000E+00  0.10566000000E+00 0.  1.
     999900   -1    0    0    0    0 -0.00000000000E+00 -0.00000000000E+00 -0.74505805969E-08  0.93827000000E+00  0.93827000000E+00 0.  1.
     999902    2    1    2    0    0 -0.68417690132E-02  0.10856094093E-01 -0.46206958789E-02  0.10302912533E+01  0.10302009761E+01 0.  0.
     999903    2    3    3    0    0  0.54449001591E-02  0.45386608188E-01 -0.12602999204E+00  0.14119984298E+00  0.44319810729E-01 0.  0.
         14    1    1    2    0    0  0.68417690132E-02 -0.10856094093E-01  0.46206958789E-02  0.13638746738E-01  0.00000000000E+00 0.  1.
     999901    1    3    3    0    0 -0.12286669172E-01 -0.34530514095E-01  0.12140929616E+00  0.88909141028E+00  0.88000000000E+00 0. -1.
        -11    1    4    4    0    0  0.14470419395E-01  0.18155138682E-02 -0.12338013819E-01  0.19109600573E-01  0.51100000000E-03 0. -1.
         11    1    4    4    0    0 -0.90255192363E-02  0.43571094320E-01 -0.11369197822E+00  0.12209024241E+00  0.51100000000E-03 0.  1.
</event>
<event>
 8    1  0.2924722E+004  0.1043930E+01  0.7957747E-01            NaN
         13   -1    0    0    0    0  0.00000000000E+00  0.00000000000E+00  0.74505805969E-08  0.10566000000E+00  0.10566000000E+00 0.  1.
     999900   -1    0    0    0    0 -0.00000000000E+00 -0.00000000000E+00 -0.74505805969E-08  0.93827000000E+00  0.93827000000E+00 0. -1.
     999902    2    1    2    0    0 -0.62730703352E-02 -0.13305436762E-01  0.64110319379E-02  0.10278835864E+01  0.10277583275E+01 0.  0.
     999903    2    3    3    0    0  0.28555209382E-01 -0.52882075289E-01  0.11737113555E+00  0.13935026458E+00  0.45062167163E-01 0.  0.
         14    1    1    2    0    0  0.62730703352E-02  0.13305436762E-01 -0.64110319379E-02  0.16046413599E-01  0.00000000000E+00 0. -1.
     999901    1    3    3    0    0 -0.34828279717E-01  0.39576638526E-01 -0.11096010361E+00  0.88853332182E+00  0.88000000000E+00 0. -1.
        -11    1    4    4    0    0 -0.53558767753E-02 -0.12894305884E-01  0.60097853113E-01  0.61700580305E-01  0.51100000000E-03 0. -1.
         11    1    4    4    0    0  0.33911086157E-01 -0.39987769405E-01  0.57273282439E-01  0.77649684279E-01  0.51100000000E-03 0.  1.
</event>
<event>
 8    1  0.2924722E+004  0.1043930E+01  0.7957747E-01            NaN
         13   -1    0    0    0    0  0.00000000000E+00  0.00000000000E+00  0.74505805969E-08  0.10566000000E+00  0.10566000000E+00 0. -1.
     999900   -1    0    0    0    0 -0.00000000000E+00 -0.00000000000E+00 -0.74505805969E-08  0.93827000000E+00  0.93827000000E+00 0. -1.
     999902    2    1    2    0    0 -0.95238631203E-02  0.97790070207E-02 -0.34307309107E-02  0.10298550982E+01  0.10297589137E+01 0.  0.
     999903    2    3    3    0    0 -0.30494277519E-01  0.31918664523E-02 -0.12955580158E+00  0.14059097421E+00  0.45177730525E-01 0.  0.
         14    1    1    2    0    0  0.95238631203E-02 -0.97790070207E-02  0.34307309107E-02  0.14074901834E-01  0.00000000000E+00 0.  1.
     999901    1    3    3    0    0  0.20970414399E-01  0.65871405684E-02  0.12612507066E+00  0.88926412395E+00  0.88000000000E+00 0.  1.
        -11    1    4    4    0    0 -0.20491124790E-01  0.23886257206E-01 -0.79668739370E-01  0.85661009988E-01  0.51100000000E-03 0. -1.
         11    1    4    4    0    0 -0.10003152729E-01 -0.20694390753E-01 -0.49887062205E-01  0.54929964224E-01  0.51100000000E-03 0.  1.
</event>
<event>
 8    1  0.2924722E+004  0.1043930E+01  0.7957747E-01            NaN
         13   -1    0    0    0    0  0.00000000000E+00  0.00000000000E+00  0.74505805969E-08  0.10566000000E+00  0.10566000000E+00 0. -1.
     999900   -1    0    0    0    0 -0.00000000000E+00 -0.00000000000E+00 -0.74505805969E-08  0.93827000000E+00  0.93827000000E+00 0. -1.
     999902    2    1    2    0    0 -0.47624421798E-02  0.61035472014E-02  0.10614348367E-01  0.10307923238E+01  0.10307085991E+01 0.  0.
     999903    2    3    3    0    0  0.88643810348E-01  0.97395079598E-01 -0.20335884419E-01  0.14061437038E+00  0.44892385977E-01 0.  0.
         14    1    1    2    0    0  0.47624421798E-02 -0.61035472014E-02 -0.10614348367E-01  0.13137676172E-01  0.00000000000E+00 0. -1.
     999901    1    3    3    0    0 -0.93406252528E-01 -0.91291532396E-01  0.30950232786E-01  0.89017795345E+00  0.88000000000E+00 0.  1.
        -11    1    4    4    0    0  0.37098009705E-01  0.62627848290E-01 -0.27947125777E-01  0.77973153494E-01  0.51100000000E-03 0.  1.
         11    1    4    4    0    0  0.51545800643E-01  0.34767231307E-01  0.76112413579E-02  0.62641216884E-01  0.51100000000E-03 0. -1.
</event>
<event>
 8    1  0.2924722E+004  0.1043930E+01  0.7957747E-01            NaN
         13   -1    0    0    0    0  0.00000000000E+00  0.00000000000E+00  0.74505805969E-08  0.10566000000E+00  0.10566000000E+00 0. -1.
     999900   -1    0    0    0    0 -0.00000000000E+00 -0.00000000000E+00 -0.74505805969E-08  0.93827000000E+00  0.93827000000E+00 0.  1.
     999902    2    1    2    0    0 -0.78843013362E-02  0.15583066639E-02  0.14048810743E-01  0.10277448336E+01  0.10276173818E+01 0.  0.
     999903    2    3    3    0    0 -0.12623787484E+00 -0.16675888213E-01  0.34043781938E-01  0.13940939411E+00  0.45408300840E-01 0.  0.
         14    1    1    2    0    0  0.78843013362E-02 -0.15583066639E-02 -0.14048810743E-01  0.16185166373E-01  0.00000000000E+00 0. -1.
     999901    1    3    3    0    0  0.11835357351E+00  0.18234194877E-01 -0.19994971195E-01  0.88833543951E+00  0.88000000000E+00 0.  1.
        -11    1    4    4    0    0 -0.64032683973E-01 -0.29041705366E-02  0.39775664779E-01  0.75438607177E-01  0.51100000000E-03 0. -1.
         11    1    4    4    0    0 -0.62205190872E-01 -0.13771717677E-01 -0.57318828408E-02  0.63970786935E-01  0.51100000000E-03 0.  1.
</event>
<event>
 8    1  0.2924722E+004  0.1043930E+01  0.7957747E-01            NaN
         13   -1    0    0    0    0  0.00000000000E+00  0.00000000000E+00  0.74505805969E-08  0.10566000000E+00  0.10566000000E+00 0.  1.
     999900   -1    0    0    0    0 -0.00000000000E+00 -0.00000000000E+00 -0.74505805969E-08  0.93827000000E+00  0.93827000000E+00 0.  1.
     999902    2    1    2    0    0 -0.32913544584E-02  0.11467748881E-01 -0.88479946495E-02  0.10290764049E+01  0.10289692016E+01 0.  0.
     999903    2    3    3    0    0  0.23710154032E-01 -0.80868276176E-01  0.98457693273E-01  0.13735361520E+00  0.45499986236E-01 0.  0.
         14    1    1    2    0    0  0.32913544584E-02 -0.11467748881E-01  0.88479946495E-02  0.14853595116E-01  0.00000000000E+00 0. -1.
     999901    1    3    3    0    0 -0.27001508490E-01  0.92336025056E-01 -0.10730568792E+00  0.89172278969E+00  0.88000000000E+00 0.  1.
        -11    1    4    4    0    0  0.14584577764E-01 -0.35104480304E-01  0.77240194284E-01  0.86089158319E-01  0.51100000000E-03 0. -1.
         11    1    4    4    0    0  0.91255762676E-02 -0.45763795872E-01  0.21217498989E-01  0.51264456879E-01  0.51100000000E-03 0.  1.
</event>
<event>
 8    1  0.2924722E+004  0.1043930E+01  0.7957747E-01            NaN
         13   -1    0    0    0    0  0.00000000000E+00  0.00000000000E+00  0.74505805969E-08  0.10566000000E+00  0.10566000000E+00 0.  1.
     999900   -1    0    0    0    0 -0.00000000000E+00 -0.00000000000E+00 -0.74505805969E-08  0.93827000000E+00  0.93827000000E+00 0. -1.
     999902    2    1    2    0    0  0.12557972261E-01 -0.32268180915E-02  0.11507212581E-02  0.10309131194E+01  0.10308309369E+01 0.  0.
     999903    2    3    3    0    0 -0.45591759858E-01 -0.51018628444E-02 -0.12458234966E+00  0.14007435041E+00  0.44670171534E-01 0.  0.
         14    1    1    2    0    0 -0.12557972261E-01  0.32268180915E-02 -0.11507212581E-02  0.13016880645E-01  0.00000000000E+00 0.  1.
     999901    1    3    3    0    0  0.58149732119E-01  0.18750447529E-02  0.12573307091E+00  0.89083876895E+00  0.88000000000E+00 0.  1.
        -11    1    4    4    0    0 -0.28248738260E-01  0.18028985778E-01 -0.82178661688E-01  0.88750375207E-01  0.51100000000E-03 0.  1.
         11    1    4    4    0    0 -0.17343021598E-01 -0.23130848622E-01 -0.42403687968E-01  0.51323975201E-01  0.51100000000E-03 0. -1.
</event>
<event>
 8    1  0.2924722E+004  0.1043930E+01  0.7957747E-01            NaN
         13   -1    0    0    0    0  0.00000000000E+00  0.00000000000E+00  0.74505805969E-08  0.10566000000E+00  0.10566000000E+00 0. -1.
     999900   -1    0    0    0    0 -0.00000000000E+00 -0.00000000000E+00 -0.74505805969E-08  0.93827000000E+00  0.93827000000E+00 0.  1.
     999902    2    1    2    0    0  0.57285424829E-02 -0.12646118606E-01  0.12077618617E-01  0.10255286580E+01  0.10253635546E+01 0.  0.
     999903    2    3    3    0    0  0.54761744306E-01  0.76671448173E-01  0.87897530945E-01  0.13641081336E+00  0.44772474241E-01 0.  0.
         14    1    1    2    0    0 -0.57285424829E-02  0.12646118606E-01 -0.12077618617E-01  0.18401341968E-01  0.00000000000E+00 0. -1.
     999901    1    3    3    0    0 -0.49033201823E-01 -0.89317566779E-01 -0.75819912328E-01  0.88911784468E+00  0.88000000000E+00 0.  1.
        -11    1    4    4    0    0  0.30787999099E-01  0.25095905321E-01  0.11863965912E-01  0.41457450001E-01  0.51100000000E-03 0.  1.
         11    1    4    4    0    0  0.23973745207E-01  0.51575542852E-01  0.76033565033E-01  0.94953363355E-01  0.51100000000E-03 0. -1.
</event>
<event>
 8    1  0.2924722E+004  0.1043930E+01  0.7957747E-01            NaN
         13   -1    0    0    0    0  0.00000000000E+00  0.00000000000E+00  0.74505805969E-08  0.10566000000E+00  0.10566000000E+00 0.  1.
     999900   -1    0    0    0    0 -0.00000000000E+00 -0.00000000000E+00 -0.74505805969E-08  0.93827000000E+00  0.93827000000E+00 0.  1.
     999902    2    1    2    0    0 -0.28841209454E-02 -0.74065385007E-02  0.12343465819E-01  0.10292488517E+01  0.10291441409E+01 0.  0.
     999903    2    3    3    0    0 -0.60454745807E-01 -0.10853057181E-01 -0.11516771303E+00  0.13819029245E+00  0.45391515308E-01 0.  0.
         14    1    1    2    0    0  0.28841209454E-02  0.74065385007E-02 -0.12343465819E-01  0.14681148273E-01  0.00000000000E+00 0. -1.
     999901    1    3    3    0    0  0.57570624862E-01  0.34465186799E-02  0.12751117884E+00  0.89105855928E+00  0.88000000000E+00 0. -1.
        -11    1    4    4    0    0 -0.43161997444E-01 -0.28186779872E-01 -0.71893165638E-01  0.88466609347E-01  0.51100000000E-03 0. -1.
         11    1    4    4    0    0 -0.17292748364E-01  0.17333722692E-01 -0.43274547387E-01  0.49723683099E-01  0.51100000000E-03 0.  1.
</event>
<event>
 8    1  0.2924722E+004  0.1043930E+01  0.7957747E-01            NaN
         13   -1    0    0    0    0  0.00000000000E+00  0.00000000000E+00  0.74505805969E-08  0.10566000000E+00  0.10566000000E+00 0.  1.
     999900   -1    0    0    0    0 -0.00000000000E+00 -0.00000000000E+00 -0.74505805969E-08  0.93827000000E+00  0.93827000000E+00 0.  1.
     999902    2    1    2    0    0  0.78194076639E-02  0.55295576690E-02 -0.10281425299E-01  0.10298791335E+01  0.10297832795E+01 0.  0.
     999903    2    3    3    0    0 -0.13051610565E+00  0.30727578292E-03 -0.16691971898E-01  0.13903398330E+00  0.44914121750E-01 0.  0.
         14    1    1    2    0    0 -0.78194076639E-02 -0.55295576690E-02  0.10281425299E-01  0.14050866536E-01  0.00000000000E+00 0.  1.
     999901    1    3    3    0    0  0.13833551331E+00  0.52222818861E-02  0.64105465995E-02  0.89084515017E+00  0.88000000000E+00 0.  1.
        -11    1    4    4    0    0 -0.10102449833E-01 -0.93286189400E-02  0.77409780298E-02  0.15788175506E-01  0.51100000000E-03 0. -1.
         11    1    4    4    0    0 -0.12041365582E+00  0.96358947229E-02 -0.24432949928E-01  0.12324580779E+00  0.51100000000E-03 0.  1.
</event>
<event>
 8    1  0.2924722E+004  0.1043930E+01  0.7957747E-01            NaN
         13   -1    0    0    0    0  0.00000000000E+00  0.00000000000E+00  0.74505805969E-08  0.10566000000E+00  0.10566000000E+00 0. -1.
     999900   -1    0    0    0    0 -0.00000000000E+00 -0.00000000000E+00 -0.74505805969E-08  0.93827000000E+00  0.93827000000E+00 0. -1.
     999902    2    1    2    0    0 -0.13128039819E-01 -0.26654957863E-02 -0.45597962819E-02  0.10297793096E+01  0.10296820793E+01 0.  0.
     999903    2    3    3    0    0 -0.68635925188E-01  0.10800712649E+00  0.34490494190E-01  0.14025444773E+00  0.45883399170E-01 0.  0.
         14    1    1    2    0    0  0.13128039819E-01  0.26654957863E-02  0.45597962819E-02  0.14150690422E-01  0.00000000000E+00 0. -1.
     999901    1    3    3    0    0  0.55507885369E-01 -0.11067262228E+00 -0.39050290472E-01  0.88952486185E+00  0.88000000000E+00 0. -1.
        -11    1    4    4    0    0 -0.21331932279E-01  0.43126457274E-01 -0.89789212403E-02  0.48947163344E-01  0.51100000000E-03 0. -1.
         11    1    4    4    0    0 -0.47303992909E-01  0.64880669217E-01  0.43469415431E-01  0.91307284386E-01  0.51100000000E-03 0.  1.
</event>
<event>
 8    1  0.2924722E+004  0.1043930E+01  0.7957747E-01            NaN
         13   -1    0    0    0    0  0.00000000000E+00  0.00000000000E+00  0.74505805969E-08  0.10566000000E+00  0.10566000000E+00 0. -1.
     999900   -1    0    0    0    0 -0.00000000000E+00 -0.00000000000E+00 -0.74505805969E-08  0.93827000000E+00  0.93827000000E+00 0. -1.
     999902    2    1    2    0    0 -0.38630837596E-02 -0.42517740750E-02 -0.11775680819E-01  0.10308277995E+01  0.10307445293E+01 0.  0.
     999903    2    3    3    0    0 -0.10939595536E+00 -0.19502494835E-01  0.72970808352E-01  0.14034942308E+00  0.45004436810E-01 0.  0.
         14    1    1    2    0    0  0.38630837596E-02  0.42517740750E-02  0.11775680819E-01  0.13102200490E-01  0.00000000000E+00 0. -1.
     999901    1    3    3    0    0  0.10553287160E+00  0.15250720760E-01 -0.84746489172E-01  0.89047837643E+00  0.88000000000E+00 0. -1.
        -11    1    4    4    0    0 -0.92111628288E-01 -0.66822460831E-02  0.39262987236E-01  0.10035461009E+00  0.51100000000E-03 0. -1.
         11    1    4    4    0    0 -0.17284327069E-01 -0.12820248751E-01  0.33707821117E-01  0.39994812985E-01  0.51100000000E-03 0.  1.
</event>
<event>
 8    1  0.2924722E+004  0.1043930E+01  0.7957747E-01            NaN
         13   -1    0    0    0    0  0.00000000000E+00  0.00000000000E+00  0.74505805969E-08  0.10566000000E+00  0.10566000000E+00 0. -1.
     999900   -1    0    0    0    0 -0.00000000000E+00 -0.00000000000E+00 -0.74505805969E-08  0.93827000000E+00  0.93827000000E+00 0. -1.
     999902    2    1    2    0    0  0.41379863770E-02 -0.18512201058E-01  0.10297437339E-01  0.10223461696E+01  0.10221183047E+01 0.  0.
     999903    2    3    3    0    0 -0.77625249473E-01 -0.99234663579E-01 -0.13830076610E-01  0.13454918851E+00  0.45155457016E-01 0.  0.
         14    1    1    2    0    0 -0.41379863770E-02  0.18512201058E-01 -0.10297437339E-01  0.21583830406E-01  0.00000000000E+00 0.  1.
     999901    1    3    3    0    0  0.81763235850E-01  0.80722462521E-01  0.24127513949E-01  0.88779698108E+00  0.88000000000E+00 0. -1.
        -11    1    4    4    0    0 -0.20964463798E-01 -0.65875624580E-02 -0.13789087064E-01  0.25948116782E-01  0.51100000000E-03 0. -1.
         11    1    4    4    0    0 -0.56660785675E-01 -0.92647101121E-01 -0.40989546677E-04  0.10860107173E+00  0.51100000000E-03 0.  1.
</event>
<event>
 8    1  0.2924722E+004  0.1043930E+01  0.7957747E-01            NaN
         13   -1    0    0    0    0  0.00000000000E+00  0.00000000000E+00  0.74505805969E-08  0.10566000000E+00  0.10566000000E+00 0. -1.
     999900   -1    0    0    0    0 -0.00000000000E+00 -0.00000000000E+00 -0.74505805969E-08  0.93827000000E+00  0.93827000000E+00 0.  1.
     999902    2    1    2    0    0 -0.56304755285E-02  0.11815337150E-01  0.46291522917E-02  0.10300471510E+01  0.10299535910E+01 0.  0.
     999903    2    3    3    0    0 -0.28117619490E-01  0.75804935873E-01  0.10765125393E+00  0.14144493747E+00  0.43369217587E-01 0.  0.
         14    1    1    2    0    0  0.56304755285E-02 -0.11815337150E-01 -0.46291522917E-02  0.13882849045E-01  0.00000000000E+00 0.  1.
     999901    1    3    3    0    0  0.22487143961E-01 -0.63989598723E-01 -0.10302210164E+00  0.88860221349E+00  0.88000000000E+00 0. -1.
        -11    1    4    4    0    0 -0.96427013276E-02  0.29839511577E-03  0.30214133896E-01  0.31721061404E-01  0.51100000000E-03 0.  1.
         11    1    4    4    0    0 -0.18474918162E-01  0.75506540757E-01  0.77437120035E-01  0.10972387606E+00  0.51100000000E-03 0. -1.
</event>
<event>
 8    1  0.2924722E+004  0.1043930E+01  0.7957747E-01            NaN
         13   -1    0    0    0    0  0.00000000000E+00  0.00000000000E+00  0.74505805969E-08  0.10566000000E+00  0.10566000000E+00 0. -1.
     999900   -1    0    0    0    0 -0.00000000000E+00 -0.00000000000E+00 -0.74505805969E-08  0.93827000000E+00  0.93827000000E+00 0.  1.
     999902    2    1    2    0    0 -0.93440419307E-02 -0.83560772632E-02 -0.10041130750E-01  0.10278688838E+01  0.10277433935E+01 0.  0.
     999903    2    3    3    0    0 -0.18205061484E-01  0.11372971093E-01  0.12897036943E+00  0.13669440582E+00  0.39890295291E-01 0.  0.
         14    1    1    2    0    0  0.93440419307E-02  0.83560772632E-02  0.10041130750E-01  0.16061116200E-01  0.00000000000E+00 0. -1.
     999901    1    3    3    0    0  0.88610195528E-02 -0.19729048356E-01 -0.13901150018E+00  0.89117447798E+00  0.88000000000E+00 0.  1.
        -11    1    4    4    0    0 -0.43446739584E-02  0.18827840347E-01  0.25319984915E-01  0.31854772343E-01  0.51100000000E-03 0.  1.
         11    1    4    4    0    0 -0.13860387525E-01 -0.74548692543E-02  0.10365038451E+00  0.10483963348E+00  0.51100000000E-03 0. -1.
</event>
<event>
 8    1  0.2924722E+004  0.1043930E+01  0.7957747E-01            NaN
         13   -1    0    0    0    0  0.00000000000E+00  0.00000000000E+00  0.74505805969E-08  0.10566000000E+00  0.10566000000E+00 0. -1.
     999900   -1    0    0    0    0 -0.00000000000E+00 -0.00000000000E+00 -0.74505805969E-08  0.93827000000E+00  0.93827000000E+00 0.  1.
     999902    2    1    2    0    0 -0.92953689946E-02 -0.24363954210E-02 -0.10319132792E-01  0.10298294891E+01  0.10297329518E+01 0.  0.
     999903    2    3    3    0    0  0.81595230428E-01 -0.84426319555E-01  0.57379000130E-01  0.13878151844E+00  0.46715898191E-01 0.  0.
         14    1    1    2    0    0  0.92953689946E-02  0.24363954210E-02  0.10319132792E-01  0.14100510948E-01  0.00000000000E+00 0. -1.
     999901    1    3    3    0    0 -0.90890599422E-01  0.81989924134E-01 -0.67698132922E-01  0.89104797061E+00  0.88000000000E+00 0.  1.
        -11    1    4    4    0    0  0.27288365757E-01 -0.38200336968E-01  0.47492196380E-01  0.66780914101E-01  0.51100000000E-03 0.  1.
         11    1    4    4    0    0  0.54306864671E-01 -0.46225982586E-01  0.98868037498E-02  0.72000604343E-01  0.51100000000E-03 0. -1.
</event>
<event>
 8    1  0.2924722E+004  0.1043930E+01  0.7957747E-01            NaN
         13   -1    0    0    0    0  0.00000000000E+00  0.00000000000E+00  0.74505805969E-08  0.10566000000E+00  0.10566000000E+00 0.  1.
     999900   -1    0    0    0    0 -0.00000000000E+00 -0.00000000000E+00 -0.74505805969E-08  0.93827000000E+00  0.93827000000E+00 0. -1.
     999902    2    1    2    0    0  0.13537464931E-01  0.32275186249E-02  0.38875513075E-02  0.10294803326E+01  0.10293789207E+01 0.  0.
     999903    2    3    3    0    0  0.10482159807E+00 -0.77389454173E-01 -0.27632418690E-01  0.14053410374E+00  0.44828436431E-01 0.  0.
         14    1    1    2    0    0 -0.13537464931E-01 -0.32275186249E-02 -0.38875513075E-02  0.14449667415E-01  0.00000000000E+00 0.  1.
     999901    1    3    3    0    0 -0.91284133139E-01  0.80616972798E-01  0.31519969998E-01  0.88894622884E+00  0.88000000000E+00 0. -1.
        -11    1    4    4    0    0  0.18612733278E-01 -0.50979140735E-02 -0.19952753617E-01  0.27763214257E-01  0.51100000000E-03 0. -1.
         11    1    4    4    0    0  0.86208864792E-01 -0.72291540099E-01 -0.76796650730E-02  0.11277088949E+00  0.51100000000E-03 0.  1.
</event>
<event>
 8    1  0.2924722E+004  0.1043930E+01  0.7957747E-01            NaN
         13   -1    0    0    0    0  0.00000000000E+00  0.00000000000E+00  0.74505805969E-08  0.10566000000E+00  0.10566000000E+00 0. -1.
     999900   -1    0    0    0    0 -0.00000000000E+00 -0.00000000000E+00 -0.74505805969E-08  0.93827000000E+00  0.93827000000E+00 0. -1.
     999902    2    1    2    0    0  0.62165247032E-02 -0.95096417066E-02  0.72055297911E-02  0.10304764457E+01  0.10303886194E+01 0.  0.
     999903    2    3    3    0    0 -0.80745595425E-01 -0.19841860728E-01  0.10426276334E+00  0.14081961763E+00  0.45231518559E-01 0.  0.
         14    1    1    2    0    0 -0.62165247032E-02  0.95096417066E-02 -0.72055297911E-02  0.13453554339E-01  0.00000000000E+00 0.  1.
     999901    1    3    3    0    0  0.86962120128E-01  0.10332219021E-01 -0.97057233549E-01  0.88965682804E+00  0.88000000000E+00 0. -1.
        -11    1    4    4    0    0 -0.83265101790E-01 -0.13865061607E-01  0.82223558045E-01  0.11784011086E+00  0.51100000000E-03 0. -1.
         11    1    4    4    0    0  0.25195063644E-02 -0.59767991204E-02  0.22039205295E-01  0.22979506763E-01  0.51100000000E-03 0.  1.
</event>
<event>
 8    1  0.2924722E+004  0.1043930E+01  0.7957747E-01            NaN
         13   -1    0    0    0    0  0.00000000000E+00  0.00000000000E+00  0.74505805969E-08  0.10566000000E+00  0.10566000000E+00 0.  1.
     999900   -1    0    0    0    0 -0.00000000000E+00 -0.00000000000E+00 -0.74505805969E-08  0.93827000000E+00  0.93827000000E+00 0.  1.
     999902    2    1    2    0    0 -0.86399865868E-02  0.15106602712E-01 -0.64098813723E-03  0.10265153602E+01  0.10263676315E+01 0.  0.
     999903    2    3    3    0    0  0.35219042187E-01  0.12112051318E+00  0.34983841751E-01  0.13835338616E+00  0.44802127559E-01 0.  0.
         14    1    1    2    0    0  0.86399865868E-02 -0.15106602712E-01  0.64098813723E-03  0.17414639804E-01  0.00000000000E+00 0.  1.
     999901    1    3    3    0    0 -0.43859028774E-01 -0.10601391046E+00 -0.35624829888E-01  0.88816197403E+00  0.88000000000E+00 0. -1.
        -11    1    4    4    0    0  0.32890080656E-02  0.15208241957E-01  0.22029884725E-01  0.26975639741E-01  0.51100000000E-03 0.  1.
         11    1    4    4    0    0  0.31930034121E-01  0.10591227122E+00  0.12953957027E-01  0.11137774642E+00  0.51100000000E-03 0. -1.
</event>
<event>
 7    1  0.2924722E+004  0.1043930E+01  0.7957747E-01            NaN
         13   -1    0    0    0    0  0.00000000000E+00  0.00000000000E+00  0.74505805969E-08  0.10566000000E+00  0.10566000000E+00 0. -1.
     999900   -1    0    0    0    0 -0.00000000000E+00 -0.00000000000E+00 -0.74505805969E-08  0.93827000000E+00  0.93827000000E+00 0. -1.
     999903    2    1    2    0    0 -0.64233233942E-02  0.58472391938E-01  0.24682429355E-01  0.78201314266E-01  0.45232107311E-01 0.  0.
         14    1    1    2    0    0 -0.68269379142E-02  0.36299783478E-01  0.66282601136E-01  0.75879276322E-01  0.00000000000E+00 0. -1.
     999901    1    1    2    0    0  0.13250261308E-01 -0.94772175416E-01 -0.90965030491E-01  0.88984940941E+00  0.88000000000E+00 0. -1.
        -11    1    3    3    0    0  0.93447893850E-02  0.34154299697E-01  0.32619504395E-01  0.48147008883E-01  0.51100000000E-03 0. -1.
         11    1    3    3    0    0 -0.15768112779E-01  0.24318092241E-01 -0.79370750404E-02  0.30054305383E-01  0.51100000000E-03 0.  1.
</event>
<event>
 8    1  0.2924722E+004  0.1043930E+01  0.7957747E-01            NaN
         13   -1    0    0    0    0  0.00000000000E+00  0.00000000000E+00  0.74505805969E-08  0.10566000000E+00  0.10566000000E+00 0. -1.
     999900   -1    0    0    0    0 -0.00000000000E+00 -0.00000000000E+00 -0.74505805969E-08  0.93827000000E+00  0.93827000000E+00 0.  1.
     999902    2    1    2    0    0 -0.64209049793E-02 -0.12708404643E-01  0.78025578150E-02  0.10276938835E+01  0.10275656216E+01 0.  0.
     999903    2    3    3    0    0 -0.11966345068E+00 -0.38182325076E-02  0.55140732997E-01  0.13913110458E+00  0.44531376544E-01 0.  0.
         14    1    1    2    0    0  0.64209049793E-02  0.12708404643E-01 -0.78025578150E-02  0.16236116463E-01  0.00000000000E+00 0.  1.
     999901    1    3    3    0    0  0.11324254571E+00 -0.88901721358E-02 -0.47338175182E-01  0.88856277896E+00  0.88000000000E+00 0.  1.
        -11    1    4    4    0    0 -0.10080295389E+00 -0.68474832570E-02  0.26075900274E-01  0.10434719563E+00  0.51100000000E-03 0. -1.
         11    1    4    4    0    0 -0.18860496791E-01  0.30292507495E-02  0.29064832723E-01  0.34783908946E-01  0.51100000000E-03 0.  1.
</event>
<event>
 8    1  0.2924722E+004  0.1043930E+01  0.7957747E-01            NaN
         13   -1    0    0    0    0  0.00000000000E+00  0.00000000000E+00  0.74505805969E-08  0.10566000000E+00  0.10566000000E+00 0. -1.
     999900   -1    0    0    0    0 -0.00000000000E+00 -0.00000000000E+00 -0.74505805969E-08  0.93827000000E+00  0.93827000000E+00 0. -1.
     999902    2    1    2    0    0  0.12831158045E-01 -0.72813454890E-02  0.74530564222E-03  0.10291579964E+01  0.10290519761E+01 0.  0.
     999903    2    3    3    0    0  0.93818853179E-01 -0.90623828567E-01 -0.29087758976E-01  0.14101668561E+00  0.44999470903E-01 0.  0.
         14    1    1    2    0    0 -0.12831158045E-01  0.72813454890E-02 -0.74530564222E-03  0.14772003567E-01  0.00000000000E+00 0. -1.
     999901    1    3    3    0    0 -0.80987695135E-01  0.83342483078E-01  0.29833064618E-01  0.88814131082E+00  0.88000000000E+00 0.  1.
        -11    1    4    4    0    0  0.93577805033E-01 -0.72474198527E-01 -0.17952108838E-01  0.11971572319E+00  0.51100000000E-03 0. -1.
         11    1    4    4    0    0  0.24104814666E-03 -0.18149630040E-01 -0.11135650138E-01  0.21300962415E-01  0.51100000000E-03 0.  1.
</event>
<event>
 8    1  0.2924722E+004  0.1043930E+01  0.7957747E-01            NaN
         13   -1    0    0    0    0  0.00000000000E+00  0.00000000000E+00  0.74505805969E-08  0.10566000000E+00  0.10566000000E+00 0.  1.
     999900   -1    0    0    0    0 -0.00000000000E+00 -0.00000000000E+00 -0.74505805969E-08  0.93827000000E+00  0.93827000000E+00 0.  1.
     999902    2    1    2    0    0  0.61850742080E-02 -0.12270485301E-01 -0.89999027761E-03  0.10301593815E+01  0.10300673382E+01 0.  0.
     999903    2    3    3    0    0  0.11848903561E+00 -0.60863855678E-01 -0.16298466995E-01  0.14155901657E+00  0.45047249191E-01 0.  0.
         14    1    1    2    0    0 -0.61850742080E-02  0.12270485301E-01  0.89999027761E-03  0.13770618540E-01  0.00000000000E+00 0. -1.
     999901    1    3    3    0    0 -0.11230396140E+00  0.48593370377E-01  0.15398476717E-01  0.88860036489E+00  0.88000000000E+00 0. -1.
        -11    1    4    4    0    0  0.70671277141E-01 -0.11702190278E-01 -0.13651996732E-01  0.72924678990E-01  0.51100000000E-03 0. -1.
         11    1    4    4    0    0  0.47817758467E-01 -0.49161665400E-01 -0.26464702624E-02  0.68634337584E-01  0.51100000000E-03 0.  1.
</event>
<event>
 8    1  0.2924722E+004  0.1043930E+01  0.7957747E-01            NaN
         13   -1    0    0    0    0  0.00000000000E+00  0.00000000000E+00  0.74505805969E-08  0.10566000000E+00  0.10566000000E+00 0. -1.
     999900   -1    0    0    0    0 -0.00000000000E+00 -0.00000000000E+00 -0.74505805969E-08  0.93827000000E+00  0.93827000000E+00 0.  1.
     999902    2    1    2    0    0  0.41554610259E-03  0.14155744386E-01 -0.13234116096E-02  0.10297064563E+01  0.10296082152E+01 0.  0.
     999903    2    3    3    0    0 -0.93987672897E-01  0.36827028728E-01  0.85693172971E-01  0.14010101515E+00  0.45771845619E-01 0.  0.
         14    1    1    2    0    0 -0.41554610259E-03 -0.14155744386E-01  0.13234116096E-02  0.14223543720E-01  0.00000000000E+00 0. -1.
     999901    1    3    3    0    0  0.94403219000E-01 -0.22671284343E-01 -0.87016584580E-01  0.88960544113E+00  0.88000000000E+00 0. -1.
        -11    1    4    4    0    0 -0.36456974253E-01  0.30869549740E-01  0.17974714287E-01  0.51043036229E-01  0.51100000000E-03 0.  1.
         11    1    4    4    0    0 -0.57530698644E-01  0.59574789886E-02  0.67718458684E-01  0.89057978923E-01  0.51100000000E-03 0. -1.
</event>
<event>
 8    1  0.2924722E+004  0.1043930E+01  0.7957747E-01            NaN
         13   -1    0    0    0    0  0.00000000000E+00  0.00000000000E+00  0.74505805969E-08  0.10566000000E+00  0.10566000000E+00 0.  1.
     999900   -1    0    0    0    0 -0.00000000000E+00 -0.00000000000E+00 -0.74505805969E-08  0.93827000000E+00  0.93827000000E+00 0.  1.
     999902    2    1    2    0    0  0.26758114669E-02 -0.12170524341E-01 -0.59745733692E-02  0.10301105515E+01  0.10300178499E+01 0.  0.
     999903    2    3    3    0    0  0.31746208899E-01 -0.93910707492E-01 -0.90842442464E-01  0.14178116397E+00  0.44972284174E-01 0.  0.
         14    1    1    2    0    0 -0.26758114669E-02  0.12170524341E-01  0.59745733692E-02  0.13819448494E-01  0.00000000000E+00 0.  1.
     999901    1    3    3    0    0 -0.29070397432E-01  0.81740183151E-01  0.84867869095E-01  0.88832938753E+00  0.88000000000E+00 0.  1.
        -11    1    4    4    0    0 -0.37818639240E-03 -0.51164640311E-01 -0.24969421932E-01  0.56935899007E-01  0.51100000000E-03 0. -1.
         11    1    4    4    0    0  0.32124395292E-01 -0.42746067180E-01 -0.65873020532E-01  0.84845264967E-01  0.51100000000E-03 0.  1.
</event>
<event>
 8    1  0.2924722E+004  0.1043930E+01  0.7957747E-01            NaN
         13   -1    0    0    0    0  0.00000000000E+00  0.00000000000E+00  0.74505805969E-08  0.10566000000E+00  0.10566000000E+00 0.  1.
     999900   -1    0    0    0    0 -0.00000000000E+00 -0.00000000000E+00 -0.74505805969E-08  0.93827000000E+00  0.93827000000E+00 0. -1.
     999902    2    1    2    0    0  0.18715848068E-03 -0.11295972556E-01  0.71452912794E-02  0.10305625316E+01  0.10304758330E+01 0.  0.
     999903    2    3    3    0    0 -0.75830460352E-01 -0.10966908888E+00 -0.15931043913E-01  0.14152458772E+00  0.44697237005E-01 0.  0.
         14    1    1    2    0    0 -0.18715848068E-03  0.11295972556E-01 -0.71452912794E-02  0.13367468412E-01  0.00000000000E+00 0. -1.
     999901    1    3    3    0    0  0.76017618833E-01  0.98373116327E-01  0.23076335192E-01  0.88903794387E+00  0.88000000000E+00 0.  1.
        -11    1    4    4    0    0 -0.67319655590E-01 -0.59866404122E-01 -0.94836629571E-02  0.90587655646E-01  0.51100000000E-03 0.  1.
         11    1    4    4    0    0 -0.85108047621E-02 -0.49802684761E-01 -0.64473809559E-02  0.50936932076E-01  0.51100000000E-03 0. -1.
</event>
<event>
 8    1  0.2924722E+004  0.1043930E+01  0.7957747E-01            NaN
         13   -1    0    0    0    0  0.00000000000E+00  0.00000000000E+00  0.74505805969E-08  0.10566000000E+00  0.10566000000E+00 0.  1.
     999900   -1    0    0    0    0 -0.00000000000E+00 -0.00000000000E+00 -0.74505805969E-08  0.93827000000E+00  0.93827000000E+00 0.  1.
     999902    2    1    2    0    0 -0.56519704058E-02 -0.12138644007E-01  0.18873849619E-02  0.10304076603E+01  0.10303189277E+01 0.  0.
     999903    2    3    3    0    0  0.95919581315E-01 -0.21274374658E-02  0.91708835947E-01  0.13996681591E+00  0.44442174742E-01 0.  0.
         14    1    1    2    0    0  0.56519704058E-02  0.12138644007E-01 -0.18873849619E-02  0.13522339657E-01  0.00000000000E+00 0. -1.
     999901    1    3    3    0    0 -0.10157155172E+00 -0.10011206541E-01 -0.89821450985E-01  0.89044084443E+00  0.88000000000E+00 0.  1.
        -11    1    4    4    0    0  0.42786138268E-01  0.20568864217E-01  0.34776663863E-01  0.58850737238E-01  0.51100000000E-03 0.  1.
         11    1    4    4    0    0  0.53133443047E-01 -0.22696301682E-01  0.56932172084E-01  0.81116078673E-01  0.51100000000E-03 0. -1.
</event>
<event>
 8    1  0.2924722E+004  0.1043930E+01  0.7957747E-01            NaN
         13   -1    0    0    0    0  0.00000000000E+00  0.00000000000E+00  0.74505805969E-08  0.10566000000E+00  0.10566000000E+00 0. -1.
     999900   -1    0    0    0    0 -0.00000000000E+00 -0.00000000000E+00 -0.74505805969E-08  0.93827000000E+00  0.93827000000E+00 0. -1.
     999902    2    1    2    0    0  0.10127974223E-01 -0.68996226270E-02 -0.80927953067E-02  0.10292441568E+01  0.10291393785E+01 0.  0.
     999903    2    3    3    0    0  0.39322209753E-01  0.12297799733E+00  0.23006481919E-01  0.13868946192E+00  0.45118118655E-01 0.  0.
         14    1    1    2    0    0 -0.10127974223E-01  0.68996226270E-02  0.80927953067E-02  0.14685843188E-01  0.00000000000E+00 0. -1.
     999901    1    3    3    0    0 -0.29194235530E-01 -0.12987761995E+00 -0.31099277226E-01  0.89055469489E+00  0.88000000000E+00 0. -1.
        -11    1    4    4    0    0  0.47437993806E-01  0.87534717337E-01  0.23591332517E-01  0.10232058486E+00  0.51100000000E-03 0. -1.
         11    1    4    4    0    0 -0.81157840525E-02  0.35443279989E-01 -0.58485059818E-03  0.36368877057E-01  0.51100000000E-03 0.  1.
</event>
<event>
 8    1  0.2924722E+004  0.1043930E+01  0.7957747E-01            NaN
         13   -1    0    0    0    0  0.00000000000E+00  0.00000000000E+00  0.74505805969E-08  0.10566000000E+00  0.10566000000E+00 0.  1.
     999900   -1    0    0    0    0 -0.00000000000E+00 -0.00000000000E+00 -0.74505805969E-08  0.93827000000E+00  0.93827000000E+00 0. -1.
     999902    2    1    2    0    0 -0.99712592234E-02  0.47042860306E-02 -0.89380473181E-02  0.10297368676E+01  0.10296390491E+01 0.  0.
     999903    2    3    3    0    0 -0.28877385251E-01  0.12889558162E+00 -0.13961680990E-01  0.14080146140E+00  0.46713474023E-01 0.  0.
         14    1    1    2    0    0  0.99712592234E-02 -0.47042860306E-02  0.89380473181E-02  0.14193132403E-01  0.00000000000E+00 0.  1.
     999901    1    3    3    0    0  0.18906126028E-01 -0.12419129559E+00  0.50236336716E-02  0.88893540620E+00  0.88000000000E+00 0.  1.
        -11    1    4    4    0    0 -0.84411282133E-02  0.10283577217E+00 -0.24485866197E-01  0.10604842030E+00  0.51100000000E-03 0. -1.
         11    1    4    4    0    0 -0.20436257038E-01  0.26059809449E-01  0.10524185208E-01  0.34753041097E-01  0.51100000000E-03 0.  1.
</event>
<event>
 8    1  0.2924722E+004  0.1043930E+01  0.7957747E-01            NaN
         13   -1    0    0    0    0  0.00000000000E+00  0.00000000000E+00  0.74505805969E-08  0.10566000000E+00  0.10566000000E+00 0. -1.
     999900   -1    0    0    0    0 -0.00000000000E+00 -0.00000000000E+00 -0.74505805969E-08  0.93827000000E+00  0.93827000000E+00 0. -1.
     999902    2    1    2    0    0  0.34737326864E-02 -0.13191204095E-01 -0.17522314944E-02  0.10301770003E+01  0.10300851941E+01 0.  0.
     999903    2    3    3    0    0  0.48971833728E-01  0.65567367901E-01  0.10339936479E+00  0.13926182590E+00  0.44778424275E-01 0.  0.
         14    1    1    2    0    0 -0.34737326864E-02  0.13191204095E-01  0.17522314944E-02  0.13752999653E-01  0.00000000000E+00 0. -1.
     999901    1    3    3    0    0 -0.45498101042E-01 -0.78758571996E-01 -0.10515159629E+00  0.89091517445E+00  0.88000000000E+00 0. -1.
        -11    1    4    4    0    0  0.51662990104E-01  0.48941102198E-01  0.98859914693E-01  0.12181067230E+00  0.51100000000E-03 0. -1.
         11    1    4    4    0    0 -0.26911563753E-02  0.16626265703E-01  0.45394501004E-02  0.17451153603E-01  0.51100000000E-03 0.  1.
</event>
<event>
 8    1  0.2924722E+004  0.1043930E+01  0.7957747E-01            NaN
         13   -1    0    0    0    0  0.00000000000E+00  0.00000000000E+00  0.74505805969E-08  0.10566000000E+00  0.10566000000E+00 0.  1.
     999900   -1    0    0    0    0 -0.00000000000E+00 -0.00000000000E+00 -0.74505805969E-08  0.93827000000E+00  0.93827000000E+00 0. -1.
     999902    2    1    2    0    0  0.21157985893E-02  0.38138690410E-02 -0.14090042534E-01  0.10291803729E+01  0.10290746759E+01 0.  0.
     999903    2    3    3    0    0 -0.76435805139E-01 -0.87881185031E-01 -0.62240058738E-01  0.13963174498E+00  0.45361484816E-01 0.  0.
         14    1    1    2    0    0 -0.21157985893E-02 -0.38138690410E-02  0.14090042534E-01  0.14749627091E-01  0.00000000000E+00 0.  1.
     999901    1    3    3    0    0  0.78551603729E-01  0.91695054072E-01  0.48150016204E-01  0.88954862793E+00  0.88000000000E+00 0.  1.
        -11    1    4    4    0    0 -0.34812656102E-01 -0.55291892886E-01 -0.11478706815E-01  0.66341060249E-01  0.51100000000E-03 0. -1.
         11    1    4    4    0    0 -0.41623149038E-01 -0.32589292145E-01 -0.50761351923E-01  0.73290684731E-01  0.51100000000E-03 0.  1.
</event>
<event>
 8    1  0.2924722E+004  0.1043930E+01  0.7957747E-01            NaN
         13   -1    0    0    0    0  0.00000000000E+00  0.00000000000E+00  0.74505805969E-08  0.10566000000E+00  0.10566000000E+00 0.  1.
     999900   -1    0    0    0    0 -0.00000000000E+00 -0.00000000000E+00 -0.74505805969E-08  0.93827000000E+00  0.93827000000E+00 0. -1.
     999902    2    1    2    0    0  0.65091443226E-02  0.97604528623E-02 -0.94383386221E-02  0.10288728543E+01  0.10287626708E+01 0.  0.
     999903    2    3    3    0    0 -0.81864872545E-01 -0.51128190055E-01 -0.88337510177E-01  0.13884899343E+00  0.46471260979E-01 0.  0.
         14    1    1    2    0    0 -0.65091443226E-02 -0.97604528623E-02  0.94383386221E-02  0.15057145674E-01  0.00000000000E+00 0.  1.
     999901    1    3    3    0    0  0.88374016868E-01  0.60888642917E-01  0.78899171555E-01  0.89002386090E+00  0.88000000000E+00 0.  1.
        -11    1    4    4    0    0 -0.49974285467E-01 -0.34098292940E-01 -0.82372547787E-01  0.10220381861E+00  0.51100000000E-03 0. -1.
         11    1    4    4    0    0 -0.31890587079E-01 -0.17029897115E-01 -0.59649623899E-02  0.36645174816E-01  0.51100000000E-03 0.  1.
</event>
<event>
 8    1  0.2924722E+004  0.1043930E+01  0.7957747E-01            NaN
         13   -1    0    0    0    0  0.00000000000E+00  0.00000000000E+00  0.74505805969E-08  0.10566000000E+00  0.10566000000E+00 0. -1.
     999900   -1    0    0    0    0 -0.00000000000E+00 -0.00000000000E+00 -0.74505805969E-08  0.93827000000E+00  0.93827000000E+00 0.  1.
     999902    2    1    2    0    0 -0.11825939768E-02 -0.13225209668E-01  0.42970124871E-02  0.10299740330E+01  0.10298794782E+01 0.  0.
     999903    2    3    3    0    0  0.12887294005E+00  0.11354846986E-01 -0.26617854076E-01  0.13953911110E+00  0.45005401287E-01 0.  0.
         14    1    1    2    0    0  0.11825939768E-02  0.13225209668E-01 -0.42970124871E-02  0.13955967024E-01  0.00000000000E+00 0.  1.
     999901    1    3    3    0    0 -0.13005553403E+00 -0.24580056653E-01  0.30914866564E-01  0.89043492187E+00  0.88000000000E+00 0. -1.
        -11    1    4    4    0    0  0.13106677054E-01  0.93427837161E-02  0.89378691338E-02  0.18417904784E-01  0.51100000000E-03 0. -1.
         11    1    4    4    0    0  0.11576626299E+00  0.20120632695E-02 -0.35555723210E-01  0.12112120632E+00  0.51100000000E-03 0.  1.
</event>
<event>
 8    1  0.2924722E+004  0.1043930E+01  0.7957747E-01            NaN
         13   -1    0    0    0    0  0.00000000000E+00  0.00000000000E+00  0.74505805969E-08  0.10566000000E+00  0.10566000000E+00 0.  1.
     999900   -1    0    0    0    0 -0.00000000000E+00 -0.00000000000E+00 -0.74505805969E-08  0.93827000000E+00  0.93827000000E+00 0.  1.
     999902    2    1    2    0    0 -0.12987155313E-01  0.46109083771E-02  0.34109476566E-02  0.10297327734E+01  0.10296348981E+01 0.  0.
     999903    2    3    3    0    0 -0.90964701181E-01  0.97024858701E-01  0.18316578645E-01  0.14133927179E+00  0.44191544768E-01 0.  0.
         14    1    1    2    0    0  0.12987155313E-01 -0.46109083771E-02 -0.34109476566E-02  0.14197226599E-01  0.00000000000E+00 0. -1.
     999901    1    3    3    0    0  0.77977545868E-01 -0.92413950324E-01 -0.14905630988E-01  0.88839350161E+00  0.88000000000E+00 0.  1.
        -11    1    4    4    0    0 -0.83615110022E-01  0.98863396806E-01  0.24211119743E-01  0.13172660055E+00  0.51100000000E-03 0.  1.
         11    1    4    4    0    0 -0.73495911593E-02 -0.18385381048E-02 -0.58945410976E-02  0.96126712376E-02  0.51100000000E-03 0. -1.
</event>
<event>
 8    1  0.2924722E+004  0.1043930E+01  0.7957747E-01            NaN
         13   -1    0    0    0    0  0.00000000000E+00  0.00000000000E+00  0.74505805969E-08  0.10566000000E+00  0.10566000000E+00 0.  1.
     999900   -1    0    0    0    0 -0.00000000000E+00 -0.00000000000E+00 -0.74505805969E-08  0.93827000000E+00  0.93827000000E+00 0. -1.
     999902    2    1    2    0    0  0.10079158641E-01  0.27616813362E-02  0.10075784055E-01  0.10294131909E+01  0.10293108276E+01 0.  0.
     999903    2    3    3    0    0  0.25288834263E-01  0.12538031701E+00 -0.32672026746E-01  0.13975368333E+00  0.45868089570E-01 0.  0.
         14    1    1    2    0    0 -0.10079158641E-01 -0.27616813362E-02 -0.10075784055E-01  0.14516809121E-01  0.00000000000E+00 0. -1.
     999901    1    3    3    0    0 -0.15209675622E-01 -0.12261863567E+00  0.42747810801E-01  0.88965950755E+00  0.88000000000E+00 0.  1.
        -11    1    4    4    0    0 -0.10962853225E-01  0.46649148253E-01 -0.20893257112E-01  0.52279216686E-01  0.51100000000E-03 0.  1.
         11    1    4    4    0    0  0.36251687489E-01  0.78731168755E-01 -0.11778769634E-01  0.87474466642E-01  0.51100000000E-03 0. -1.
</event>
<event>
 8    1  0.2924722E+004  0.1043930E+01  0.7957747E-01            NaN
         13   -1    0    0    0    0  0.00000000000E+00  0.00000000000E+00  0.74505805969E-08  0.10566000000E+00  0.10566000000E+00 0.  1.
     999900   -1    0    0    0    0 -0.00000000000E+00 -0.00000000000E+00 -0.74505805969E-08  0.93827000000E+00  0.93827000000E+00 0.  1.
     999902    2    1    2    0    0  0.43943514170E-02 -0.95561056643E-02  0.99121079503E-02  0.10294773406E+01  0.10293758864E+01 0.  0.
     999903    2    3    3    0    0 -0.60331531215E-01 -0.82202592903E-01 -0.83576794907E-01  0.13919248340E+00  0.44635264646E-01 0.  0.
         14    1    1    2    0    0 -0.43943514170E-02  0.95561056643E-02 -0.99121079503E-02  0.14452659404E-01  0.00000000000E+00 0. -1.
     999901    1    3    3    0    0  0.64725882632E-01  0.72646487238E-01  0.93488902857E-01  0.89028485719E+00  0.88000000000E+00 0. -1.
        -11    1    4    4    0    0 -0.10028476254E-02 -0.29104796761E-01 -0.36493408574E-01  0.46691807506E-01  0.51100000000E-03 0. -1.
         11    1    4    4    0    0 -0.59328683590E-01 -0.53097796141E-01 -0.47083386333E-01  0.92500675896E-01  0.51100000000E-03 0.  1.
</event>
<event>
 8    1  0.2924722E+004  0.1043930E+01  0.7957747E-01            NaN
         13   -1    0    0    0    0  0.00000000000E+00  0.00000000000E+00  0.74505805969E-08  0.10566000000E+00  0.10566000000E+00 0.  1.
     999900   -1    0    0    0    0 -0.00000000000E+00 -0.00000000000E+00 -0.74505805969E-08  0.93827000000E+00  0.93827000000E+00 0.  1.
     999902    2    1    2    0    0 -0.76317107366E-02  0.11333395759E-01  0.45291839672E-03  0.10302590818E+01  0.10301683754E+01 0.  0.
     999903    2    3    3    0    0 -0.43245699836E-01  0.12760396703E+00 -0.45726884824E-02  0.14188277718E+00  0.44236297576E-01 0.  0.
         14    1    1    2    0    0  0.76317107366E-02 -0.11333395759E-01 -0.45291839672E-03  0.13670918158E-01  0.00000000000E+00 0.  1.
     999901    1    3    3    0    0  0.35613989099E-01 -0.11627057127E+00  0.50256068791E-02  0.88837630466E+00  0.88000000000E+00 0. -1.
        -11    1    4    4    0    0 -0.16372964323E-01  0.68117242914E-01 -0.23536376821E-01  0.73907069336E-01  0.51100000000E-03 0.  1.
         11    1    4    4    0    0 -0.26872735513E-01  0.59486724118E-01  0.18963688339E-01  0.67975707843E-01  0.51100000000E-03 0. -1.
</event>
<event>
 8    1  0.2924722E+004  0.1043930E+01  0.7957747E-01            NaN
         13   -1    0    0    0    0  0.00000000000E+00  0.00000000000E+00  0.74505805969E-08  0.10566000000E+00  0.10566000000E+00 0.  1.
     999900   -1    0    0    0    0 -0.00000000000E+00 -0.00000000000E+00 -0.74505805969E-08  0.93827000000E+00  0.93827000000E+00 0. -1.
     999902    2    1    2    0    0  0.63174264927E-02 -0.12212478221E-01 -0.33361650996E-02  0.10297813428E+01  0.10296841407E+01 0.  0.
     999903    2    3    3    0    0 -0.29413245575E-01 -0.12678193818E+00  0.29704253914E-01  0.14102124508E+00  0.45451622634E-01 0.  0.
         14    1    1    2    0    0 -0.63174264927E-02  0.12212478221E-01  0.33361650996E-02  0.14148657158E-01  0.00000000000E+00 0.  1.
     999901    1    3    3    0    0  0.35730672068E-01  0.11456945996E+00 -0.33040419014E-01  0.88876009776E+00  0.88000000000E+00 0. -1.
        -11    1    4    4    0    0 -0.19639329838E-01 -0.37367970984E-01  0.28733404149E-01  0.51067975943E-01  0.51100000000E-03 0. -1.
         11    1    4    4    0    0 -0.97739157373E-02 -0.89413967196E-01  0.97084976498E-03  0.89953269139E-01  0.51100000000E-03 0.  1.
</event>
<event>
 8    1  0.2924722E+004  0.1043930E+01  0.7957747E-01            NaN
         13   -1    0    0    0    0  0.00000000000E+00  0.00000000000E+00  0.74505805969E-08  0.10566000000E+00  0.10566000000E+00 0. -1.
     999900   -1    0    0    0    0 -0.00000000000E+00 -0.00000000000E+00 -0.74505805969E-08  0.93827000000E+00  0.93827000000E+00 0. -1.
     999902    2    1    2    0    0 -0.42234879623E-02  0.44031797488E-02 -0.12230747807E-01  0.10302618972E+01  0.10301712284E+01 0.  0.
     999903    2    3    3    0    0  0.75044513607E-01 -0.62759558785E-01 -0.90490196696E-01  0.14070088700E+00  0.45142249189E-01 0.  0.
         14    1    1    2    0    0  0.42234879623E-02 -0.44031797488E-02  0.12230747807E-01  0.13668102809E-01  0.00000000000E+00 0. -1.
     999901    1    3    3    0    0 -0.79268001570E-01  0.67162738534E-01  0.78259448889E-01  0.88956101020E+00  0.88000000000E+00 0. -1.
        -11    1    4    4    0    0  0.66090409652E-01 -0.29060925643E-01 -0.68174716070E-01  0.99300214901E-01  0.51100000000E-03 0. -1.
         11    1    4    4    0    0  0.89541039552E-02 -0.33698633143E-01 -0.22315480626E-01  0.41400672095E-01  0.51100000000E-03 0.  1.
</event>
<event>
 8    1  0.2924722E+004  0.1043930E+01  0.7957747E-01            NaN
         13   -1    0    0    0    0  0.00000000000E+00  0.00000000000E+00  0.74505805969E-08  0.10566000000E+00  0.10566000000E+00 0.  1.
     999900   -1    0    0    0    0 -0.00000000000E+00 -0.00000000000E+00 -0.74505805969E-08  0.93827000000E+00  0.93827000000E+00 0.  1.
     999902    2    1    2    0    0  0.11361305618E-01  0.74193198265E-02  0.96328052675E-03  0.10303265636E+01  0.10302367564E+01 0.  0.
     999903    2    3    3    0    0 -0.97851976436E-01 -0.85838422869E-01  0.15073651101E-01  0.13857343068E+00  0.45079225806E-01 0.  0.
         14    1    1    2    0    0 -0.11361305618E-01 -0.74193198265E-02 -0.96328052675E-03  0.13603436382E-01  0.00000000000E+00 0.  1.
     999901    1    3    3    0    0  0.10921328205E+00  0.93257742696E-01 -0.14110370574E-01  0.89175313294E+00  0.88000000000E+00 0. -1.
        -11    1    4    4    0    0 -0.63447881040E-01 -0.28285456904E-01  0.16897144023E-01  0.71494582157E-01  0.51100000000E-03 0.  1.
         11    1    4    4    0    0 -0.34404095397E-01 -0.57552965965E-01 -0.18234929222E-02  0.67078848521E-01  0.51100000000E-03 0. -1.
</event>
<event>
 8    1  0.2924722E+004  0.1043930E+01  0.7957747E-01            NaN
         13   -1    0    0    0    0  0.00000000000E+00  0.00000000000E+00  0.74505805969E-08  0.10566000000E+00  0.10566000000E+00 0. -1.
     999900   -1    0    0    0    0 -0.00000000000E+00 -0.00000000000E+00 -0.74505805969E-08  0.93827000000E+00  0.93827000000E+00 0. -1.
     999902    2    1    2    0    0 -0.11698216397E-01 -0.32250785387E-03  0.75628994026E-02  0.10299962379E+01  0.10299019858E+01 0.  0.
     999903    2    3    3    0    0 -0.11108945699E+00  0.55753880448E-01  0.46912434628E-01  0.14175552395E+00  0.49441777974E-01 0.  0.
         14    1    1    2    0    0  0.11698216397E-01  0.32250785387E-03 -0.75628994026E-02  0.13933762075E-01  0.00000000000E+00 0.  1.
     999901    1    3    3    0    0  0.99391240594E-01 -0.56076388302E-01 -0.39349535225E-01  0.88824071397E+00  0.88000000000E+00 0. -1.
        -11    1    4    4    0    0 -0.10367827144E+00  0.58247159926E-01  0.29297987239E-01  0.12247672753E+00  0.51100000000E-03 0.  1.
         11    1    4    4    0    0 -0.74111855468E-02 -0.24932794785E-02  0.17614447389E-01  0.19278796424E-01  0.51100000000E-03 0. -1.
</event>
<event>
 8    1  0.2924722E+004  0.1043930E+01  0.7957747E-01            NaN
         13   -1    0    0    0    0  0.00000000000E+00  0.00000000000E+00  0.74505805969E-08  0.10566000000E+00  0.10566000000E+00 0.  1.
     999900   -1    0    0    0    0 -0.00000000000E+00 -0.00000000000E+00 -0.74505805969E-08  0.93827000000E+00  0.93827000000E+00 0. -1.
     999902    2    1    2    0    0  0.59587987735E-02  0.83757628881E-02  0.90088592795E-02  0.10302617802E+01  0.10301711098E+01 0.  0.
     999903    2    3    3    0    0 -0.36537768838E-01 -0.10670945148E+00  0.69120760920E-01  0.13972036874E+00  0.44968725383E-01 0.  0.
         14    1    1    2    0    0 -0.59587987735E-02 -0.83757628881E-02 -0.90088592795E-02  0.13668219793E-01  0.00000000000E+00 0.  1.
     999901    1    3    3    0    0  0.42496567612E-01  0.11508521437E+00 -0.60111901641E-01  0.89054141147E+00  0.88000000000E+00 0. -1.
        -11    1    4    4    0    0 -0.70488621223E-02 -0.64237482130E-01  0.18177449179E-01  0.67132863392E-01  0.51100000000E-03 0. -1.
         11    1    4    4    0    0 -0.29488906716E-01 -0.42471969351E-01  0.50943311742E-01  0.72587505344E-01  0.51100000000E-03 0.  1.
</event>
<event>
 8    1  0.2924722E+004  0.1043930E+01  0.7957747E-01            NaN
         13   -1    0    0    0    0  0.00000000000E+00  0.00000000000E+00  0.74505805969E-08  0.10566000000E+00  0.10566000000E+00 0.  1.
     999900   -1    0    0    0    0 -0.00000000000E+00 -0.00000000000E+00 -0.74505805969E-08  0.93827000000E+00  0.93827000000E+00 0.  1.
     999902    2    1    2    0    0  0.11869967912E-01  0.37732106431E-02  0.77186838528E-02  0.10292769683E+01  0.10291726610E+01 0.  0.
     999903    2    3    3    0    0  0.76595721528E-01  0.39785566469E-01  0.10136112633E+00  0.14121434667E+00  0.47091590744E-01 0.  0.
         14    1    1    2    0    0 -0.11869967912E-01 -0.37732106431E-02 -0.77186838528E-02  0.14653031673E-01  0.00000000000E+00 0.  1.
     999901    1    3    3    0    0 -0.64725753616E-01 -0.36012355826E-01 -0.93642442477E-01  0.88806262166E+00  0.88000000000E+00 0.  1.
        -11    1    4    4    0    0  0.52674769402E-01  0.20414734299E-01  0.93824786357E-01  0.10952052029E+00  0.51100000000E-03 0.  1.
         11    1    4    4    0    0  0.23920952125E-01  0.19370832169E-01  0.75363399723E-02  0.31693826381E-01  0.51100000000E-03 0. -1.
</event>
<event>
 8    1  0.2924722E+004  0.1043930E+01  0.7957747E-01            NaN
         13   -1    0    0    0    0  0.00000000000E+00  0.00000000000E+00  0.74505805969E-08  0.10566000000E+00  0.10566000000E+00 0. -1.
     999900   -1    0    0    0    0 -0.00000000000E+00 -0.00000000000E+00 -0.74505805969E-08  0.93827000000E+00  0.93827000000E+00 0. -1.
     999902    2    1    2    0    0 -0.13638693928E-01  0.17338194921E-02  0.15470349245E-02  0.10300947761E+01  0.10300018614E+01 0.  0.
     999903    2    3    3    0    0  0.37729239191E-01 -0.83697419145E-01  0.94812883714E-01  0.13956926857E+00  0.45402030240E-01 0.  0.
         14    1    1    2    0    0  0.13638693928E-01 -0.17338194921E-02 -0.15470349245E-02  0.13835223856E-01  0.00000000000E+00 0.  1.
     999901    1    3    3    0    0 -0.51367933118E-01  0.85431238637E-01 -0.93265848790E-01  0.89052550757E+00  0.88000000000E+00 0.  1.
        -11    1    4    4    0    0  0.25818710304E-01 -0.63906735240E-01  0.93854137142E-01  0.11644542409E+00  0.51100000000E-03 0.  1.
         11    1    4    4    0    0  0.11910528887E-01 -0.19790683905E-01  0.95874657186E-03  0.23123844486E-01  0.51100000000E-03 0. -1.
</event>
<event>
 8    1  0.2924722E+004  0.1043930E+01  0.7957747E-01            NaN
         13   -1    0    0    0    0  0.00000000000E+00  0.00000000000E+00  0.74505805969E-08  0.10566000000E+00  0.10566000000E+00 0.  1.
     999900   -1    0    0    0    0 -0.00000000000E+00 -0.00000000000E+00 -0.74505805969E-08  0.93827000000E+00  0.93827000000E+00 0. -1.
     999902    2    1    2    0    0  0.32859336029E-02 -0.12831501117E-01  0.92781736647E-02  0.10277581329E+01  0.10276308921E+01 0.  0.
     999903    2    3    3    0    0  0.84600663101E-01 -0.83133968394E-01 -0.59479118217E-01  0.13855506981E+00  0.39890010871E-01 0.  0.
         14    1    1    2    0    0 -0.32859336029E-02  0.12831501117E-01 -0.92781736647E-02  0.16171867150E-01  0.00000000000E+00 0. -1.
     999901    1    3    3    0    0 -0.81314729498E-01  0.70302467277E-01  0.68757291881E-01  0.88920306304E+00  0.88000000000E+00 0.  1.
        -11    1    4    4    0    0  0.63171592571E-01 -0.68103584894E-01 -0.26797159306E-01  0.96680387108E-01  0.51100000000E-03 0.  1.
         11    1    4    4    0    0  0.21429070530E-01 -0.15030383500E-01 -0.32681958910E-01  0.41874682699E-01  0.51100000000E-03 0. -1.
</event>
<event>
 8    1  0.2924722E+004  0.1043930E+01  0.7957747E-01            NaN
         13   -1    0    0    0    0  0.00000000000E+00  0.00000000000E+00  0.74505805969E-08  0.10566000000E+00  0.10566000000E+00 0. -1.
     999900   -1    0    0    0    0 -0.00000000000E+00 -0.00000000000E+00 -0.74505805969E-08  0.93827000000E+00  0.93827000000E+00 0.  1.
     999902    2    1    2    0    0  0.21020089513E-02  0.11473073414E-01  0.67432511888E-02  0.10304570162E+01  0.10303689344E+01 0.  0.
     999903    2    3    3    0    0 -0.94672243218E-01 -0.77719672036E-01  0.49360625916E-01  0.13965016715E+00  0.45414939592E-01 0.  0.
         14    1    1    2    0    0 -0.21020089513E-02 -0.11473073414E-01 -0.67432511888E-02  0.13472983774E-01  0.00000000000E+00 0.  1.
     999901    1    3    3    0    0  0.96774252169E-01  0.89192745450E-01 -0.42617374727E-01  0.89080684907E+00  0.88000000000E+00 0. -1.
        -11    1    4    4    0    0 -0.18564436980E-01 -0.43128268060E-01  0.15456032391E-01  0.49435168499E-01  0.51100000000E-03 0.  1.
         11    1    4    4    0    0 -0.76107806237E-01 -0.34591403976E-01  0.33904593525E-01  0.90214998655E-01  0.51100000000E-03 0. -1.
</event>
<event>
 8    1  0.2924722E+004  0.1043930E+01  0.7957747E-01            NaN
         13   -1    0    0    0    0  0.00000000000E+00  0.00000000000E+00  0.74505805969E-08  0.10566000000E+00  0.10566000000E+00 0.  1.
     999900   -1    0    0    0    0 -0.00000000000E+00 -0.00000000000E+00 -0.74505805969E-08  0.93827000000E+00  0.93827000000E+00 0. -1.
     999902    2    1    2    0    0  0.52717894939E-02 -0.51522843333E-02  0.11561656892E-01  0.10302183368E+01  0.10301270852E+01 0.  0.
     999903    2    3    3    0    0 -0.57219048673E-01 -0.97146807637E-01  0.71710679362E-01  0.14118177843E+00  0.45588937918E-01 0.  0.
         14    1    1    2    0    0 -0.52717894939E-02  0.51522843333E-02 -0.11561656892E-01  0.13711663226E-01  0.00000000000E+00 0. -1.
     999901    1    3    3    0    0  0.62490838167E-01  0.91994523304E-01 -0.60149022470E-01  0.88903655835E+00  0.88000000000E+00 0. -1.
        -11    1    4    4    0    0 -0.34519757231E-01 -0.19682792609E-01  0.14766631022E-01  0.42395052505E-01  0.51100000000E-03 0.  1.
         11    1    4    4    0    0 -0.22699291442E-01 -0.77464015028E-01  0.56944048340E-01  0.98786725923E-01  0.51100000000E-03 0. -1.
</event>
<event>
 8    1  0.2924722E+004  0.1043930E+01  0.7957747E-01            NaN
         13   -1    0    0    0    0  0.00000000000E+00  0.00000000000E+00  0.74505805969E-08  0.10566000000E+00  0.10566000000E+00 0.  1.
     999900   -1    0    0    0    0 -0.00000000000E+00 -0.00000000000E+00 -0.74505805969E-08  0.93827000000E+00  0.93827000000E+00 0. -1.
     999902    2    1    2    0    0 -0.84214148484E-02  0.10977654053E-01 -0.40946872489E-02  0.10295010160E+01  0.10293998962E+01 0.  0.
     999903    2    3    3    0    0  0.40561457995E-01 -0.11760889987E+00  0.38748002393E-01  0.13777834622E+00  0.44770300375E-01 0.  0.
         14    1    1    2    0    0  0.84214148484E-02 -0.10977654053E-01  0.40946872489E-02  0.14428984033E-01  0.00000000000E+00 0.  1.
     999901    1    3    3    0    0 -0.48982872843E-01  0.12858655392E+00 -0.42842689642E-01  0.89172266974E+00  0.88000000000E+00 0. -1.
        -11    1    4    4    0    0  0.28856131142E-01 -0.89350075896E-01  0.77305671545E-02  0.94213243000E-01  0.51100000000E-03 0. -1.
         11    1    4    4    0    0  0.11705326853E-01 -0.28258823971E-01  0.31017435239E-01  0.43565103222E-01  0.51100000000E-03 0.  1.
</event>
<event>
 7    1  0.2924722E+004  0.1043930E+01  0.7957747E-01            NaN
         13   -1    0    0    0    0  0.00000000000E+00  0.00000000000E+00  0.74505805969E-08  0.10566000000E+00  0.10566000000E+00 0.  1.
     999900   -1    0    0    0    0 -0.00000000000E+00 -0.00000000000E+00 -0.74505805969E-08  0.93827000000E+00  0.93827000000E+00 0.  1.
     999903    2    1    2    0    0  0.73897896039E-01  0.49669000165E-01 -0.77650933269E-01  0.12655899406E+00  0.45382848346E-01 0.  0.
         14    1    1    2    0    0 -0.80342424080E-02 -0.27440231921E-01  0.15304957227E-01  0.32430804718E-01  0.00000000000E+00 0.  1.
     999901    1    1    2    0    0 -0.65863653631E-01 -0.22228768244E-01  0.62345976042E-01  0.88494020122E+00  0.88000000000E+00 0. -1.
        -11    1    3    3    0    0  0.36953091247E-01  0.17118055259E-02 -0.16497952549E-01  0.40508083022E-01  0.51100000000E-03 0. -1.
         11    1    3    3    0    0  0.36944804793E-01  0.47957194639E-01 -0.61152980720E-01  0.86050911039E-01  0.51100000000E-03 0.  1.
</event>
<event>
 8    1  0.2924722E+004  0.1043930E+01  0.7957747E-01            NaN
         13   -1    0    0    0    0  0.00000000000E+00  0.00000000000E+00  0.74505805969E-08  0.10566000000E+00  0.10566000000E+00 0. -1.
     999900   -1    0    0    0    0 -0.00000000000E+00 -0.00000000000E+00 -0.74505805969E-08  0.93827000000E+00  0.93827000000E+00 0.  1.
     999902    2    1    2    0    0  0.34351073411E-02  0.10552760297E-01  0.10241046947E-01  0.10288290148E+01  0.10287181839E+01 0.  0.
     999903    2    3    3    0    0  0.27787942954E-01 -0.11980728520E+00  0.45891783528E-01  0.13817881571E+00  0.43143643276E-01 0.  0.
         14    1    1    2    0    0 -0.34351073411E-02 -0.10552760297E-01 -0.10241046947E-01  0.15100985230E-01  0.00000000000E+00 0.  1.
     999901    1    3    3    0    0 -0.24352835613E-01  0.13036004550E+00 -0.35650736581E-01  0.89065019906E+00  0.88000000000E+00 0.  1.
        -11    1    4    4    0    0  0.33916343085E-01 -0.81495902289E-01  0.45645063273E-01  0.99376221201E-01  0.51100000000E-03 0.  1.
         11    1    4    4    0    0 -0.61284001304E-02 -0.38311382912E-01  0.24672025533E-03  0.38802594510E-01  0.51100000000E-03 0. -1.
</event>
<event>
 8    1  0.2924722E+004  0.1043930E+01  0.7957747E-01            NaN
         13   -1    0    0    0    0  0.00000000000E+00  0.00000000000E+00  0.74505805969E-08  0.10566000000E+00  0.10566000000E+00 0.  1.
     999900   -1    0    0    0    0 -0.00000000000E+00 -0.00000000000E+00 -0.74505805969E-08  0.93827000000E+00  0.93827000000E+00 0.  1.
     999902    2    1    2    0    0  0.85831575087E-02  0.10212004524E-01 -0.27349185566E-02  0.10303125330E+01  0.10302225391E+01 0.  0.
     999903    2    3    3    0    0  0.13231124883E+00  0.18226552190E-01  0.97558445911E-02  0.14153309309E+00  0.45803560620E-01 0.  0.
         14    1    1    2    0    0 -0.85831575087E-02 -0.10212004524E-01  0.27349185566E-02  0.13617467046E-01  0.00000000000E+00 0.  1.
     999901    1    3    3    0    0 -0.12372809132E+00 -0.80145476653E-02 -0.12490763148E-01  0.88877943986E+00  0.88000000000E+00 0. -1.
        -11    1    4    4    0    0  0.69757944752E-01 -0.10183997612E-01 -0.69065533251E-02  0.70836757853E-01  0.51100000000E-03 0.  1.
         11    1    4    4    0    0  0.62553304077E-01  0.28410549802E-01  0.16662397916E-01  0.70696335240E-01  0.51100000000E-03 0. -1.
</event>
<event>
 8    1  0.2924722E+004  0.1043930E+01  0.7957747E-01            NaN
         13   -1    0    0    0    0  0.00000000000E+00  0.00000000000E+00  0.74505805969E-08  0.10566000000E+00  0.10566000000E+00 0. -1.
     999900   -1    0    0    0    0 -0.00000000000E+00 -0.00000000000E+00 -0.74505805969E-08  0.93827000000E+00  0.93827000000E+00 0.  1.
     999902    2    1    2    0    0  0.30927954129E-02  0.12578876066E-01  0.37797280750E-02  0.10304363033E+01  0.10303479487E+01 0.  0.
     999903    2    3    3    0    0 -0.42223851038E-01  0.94755471737E-01  0.86677157881E-01  0.14157266066E+00  0.42052770750E-01 0.  0.
         14    1    1    2    0    0 -0.30927954129E-02 -0.12578876066E-01 -0.37797280750E-02  0.13493696709E-01  0.00000000000E+00 0.  1.
     999901    1    3    3    0    0  0.45316646451E-01 -0.82176595671E-01 -0.82897429806E-01  0.88886364263E+00  0.88000000000E+00 0.  1.
        -11    1    4    4    0    0 -0.79027342830E-02  0.43619318371E-01  0.59637553335E-01  0.74310140850E-01  0.51100000000E-03 0.  1.
         11    1    4    4    0    0 -0.34321116755E-01  0.51136153366E-01  0.27039604546E-01  0.67262519811E-01  0.51100000000E-03 0. -1.
</event>
<event>
 8    1  0.2924722E+004  0.1043930E+01  0.7957747E-01            NaN
         13   -1    0    0    0    0  0.00000000000E+00  0.00000000000E+00  0.74505805969E-08  0.10566000000E+00  0.10566000000E+00 0.  1.
     999900   -1    0    0    0    0 -0.00000000000E+00 -0.00000000000E+00 -0.74505805969E-08  0.93827000000E+00  0.93827000000E+00 0.  1.
     999902    2    1    2    0    0 -0.12816270005E-01 -0.34104144725E-02  0.28217617832E-02  0.10303708686E+01  0.10302816493E+01 0.  0.
     999903    2    3    3    0    0  0.46119630381E-01 -0.10137027336E+00  0.71427725322E-01  0.14032797499E+00  0.46766098750E-01 0.  0.
         14    1    1    2    0    0  0.12816270005E-01  0.34104144725E-02 -0.28217617832E-02  0.13559131361E-01  0.00000000000E+00 0. -1.
     999901    1    3    3    0    0 -0.58935900385E-01  0.97959858885E-01 -0.68605963539E-01  0.89004289365E+00  0.88000000000E+00 0.  1.
        -11    1    4    4    0    0  0.48217112679E-01 -0.51287443504E-01  0.46264743635E-01  0.84237636724E-01  0.51100000000E-03 0. -1.
         11    1    4    4    0    0 -0.20974822976E-02 -0.50082829853E-01  0.25162981687E-01  0.56090338263E-01  0.51100000000E-03 0.  1.
</event>
<event>
 8    1  0.2924722E+004  0.1043930E+01  0.7957747E-01            NaN
         13   -1    0    0    0    0  0.00000000000E+00  0.00000000000E+00  0.74505805969E-08  0.10566000000E+00  0.10566000000E+00 0. -1.
     999900   -1    0    0    0    0 -0.00000000000E+00 -0.00000000000E+00 -0.74505805969E-08  0.93827000000E+00  0.93827000000E+00 0. -1.
     999902    2    1    2    0    0  0.13344456664E-01 -0.10770201038E-02 -0.14522812353E-02  0.10304636116E+01  0.10303756166E+01 0.  0.
     999903    2    3    3    0    0  0.10274418551E+00  0.16635026740E-01  0.84610898016E-01  0.14158066151E+00  0.45309909292E-01 0.  0.
         14    1    1    2    0    0 -0.13344456664E-01  0.10770201038E-02  0.14522812353E-02  0.13466388408E-01  0.00000000000E+00 0.  1.
     999901    1    3    3    0    0 -0.89399728847E-01 -0.17712046844E-01 -0.86063179251E-01  0.88888295008E+00  0.88000000000E+00 0. -1.
        -11    1    4    4    0    0  0.60848603958E-01  0.31334214607E-01  0.58718571690E-01  0.90180471228E-01  0.51100000000E-03 0. -1.
         11    1    4    4    0    0  0.41895581553E-01 -0.14699187866E-01  0.25892326326E-01  0.51400190283E-01  0.51100000000E-03 0.  1.
</event>
<event>
 8    1  0.2924722E+004  0.1043930E+01  0.7957747E-01            NaN
         13   -1    0    0    0    0  0.00000000000E+00  0.00000000000E+00  0.74505805969E-08  0.10566000000E+00  0.10566000000E+00 0.  1.
     999900   -1    0    0    0    0 -0.00000000000E+00 -0.00000000000E+00 -0.74505805969E-08  0.93827000000E+00  0.93827000000E+00 0. -1.
     999902    2    1    2    0    0  0.11645003747E-01 -0.33924951347E-02 -0.52792250146E-02  0.10307017971E+01  0.10306169071E+01 0.  0.
     999903    2    3    3    0    0  0.14773015991E-01 -0.10330025812E+00  0.82849736535E-01  0.14066918003E+00  0.45106031047E-01 0.  0.
         14    1    1    2    0    0 -0.11645003747E-01  0.33924951347E-02  0.52792250146E-02  0.13228202911E-01  0.00000000000E+00 0. -1.
     999901    1    3    3    0    0 -0.31280122448E-02  0.99907762987E-01 -0.88128961550E-01  0.89003261706E+00  0.88000000000E+00 0. -1.
        -11    1    4    4    0    0 -0.88694053621E-02 -0.71786365752E-01  0.65631083340E-01  0.97671126137E-01  0.51100000000E-03 0. -1.
         11    1    4    4    0    0  0.23642421353E-01 -0.31513892370E-01  0.17218653194E-01  0.42998053893E-01  0.51100000000E-03 0.  1.
</event>
<event>
 8    1  0.2924722E+004  0.1043930E+01  0.7957747E-01            NaN
         13   -1    0    0    0    0  0.00000000000E+00  0.00000000000E+00  0.74505805969E-08  0.10566000000E+00  0.10566000000E+00 0. -1.
     999900   -1    0    0    0    0 -0.00000000000E+00 -0.00000000000E+00 -0.74505805969E-08  0.93827000000E+00  0.93827000000E+00 0. -1.
     999902    2    1    2    0    0 -0.10174560578E-01  0.82483953934E-02  0.52338187811E-02  0.10298250162E+01  0.10297284173E+01 0.  0.
     999903    2    3    3    0    0  0.12889964416E+00 -0.22308831300E-01  0.80564451164E-02  0.13837487975E+00  0.44383542190E-01 0.  0.
         14    1    1    2    0    0  0.10174560578E-01 -0.82483953934E-02 -0.52338187811E-02  0.14104983820E-01  0.00000000000E+00 0. -1.
     999901    1    3    3    0    0 -0.13907420474E+00  0.30557226694E-01 -0.28226263354E-02  0.89145013643E+00  0.88000000000E+00 0. -1.
        -11    1    4    4    0    0  0.12402080121E+00 -0.30914104693E-01  0.10258761456E-01  0.12822770492E+00  0.51100000000E-03 0.  1.
         11    1    4    4    0    0  0.48788429590E-02  0.86052733922E-02 -0.22023163396E-02  0.10147174830E-01  0.51100000000E-03 0. -1.
</event>
<event>
 8    1  0.2924722E+004  0.1043930E+01  0.7957747E-01            NaN
         13   -1    0    0    0    0  0.00000000000E+00  0.00000000000E+00  0.74505805969E-08  0.10566000000E+00  0.10566000000E+00 0. -1.
     999900   -1    0    0    0    0 -0.00000000000E+00 -0.00000000000E+00 -0.74505805969E-08  0.93827000000E+00  0.93827000000E+00 0.  1.
     999902    2    1    2    0    0  0.65133195391E-02 -0.10777559497E-01 -0.40618230118E-02  0.10306983136E+01  0.10306133785E+01 0.  0.
     999903    2    3    3    0    0 -0.10592405366E+00 -0.25893319636E-01 -0.75939751245E-01  0.14050895973E+00  0.45667853017E-01 0.  0.
         14    1    1    2    0    0 -0.65133195391E-02  0.10777559497E-01  0.40618230118E-02  0.13231686450E-01  0.00000000000E+00 0.  1.
     999901    1    3    3    0    0  0.11243737320E+00  0.15115760139E-01  0.71877928233E-01  0.89018935382E+00  0.88000000000E+00 0.  1.
        -11    1    4    4    0    0 -0.33557510557E-01 -0.11065173024E-01 -0.11056088461E-02  0.35355735896E-01  0.51100000000E-03 0. -1.
         11    1    4    4    0    0 -0.72366543100E-01 -0.14828146612E-01 -0.74834142399E-01  0.10515322383E+00  0.51100000000E-03 0.  1.
</event>
<event>
 8    1  0.2924722E+004  0.1043930E+01  0.7957747E-01            NaN
         13   -1    0    0    0    0  0.00000000000E+00  0.00000000000E+00  0.74505805969E-08  0.10566000000E+00  0.10566000000E+00 0. -1.
     999900   -1    0    0    0    0 -0.00000000000E+00 -0.00000000000E+00 -0.74505805969E-08  0.93827000000E+00  0.93827000000E+00 0. -1.
     999902    2    1    2    0    0  0.62546724307E-02 -0.12179881087E-01 -0.11350223624E-02  0.10301910515E+01  0.10300994340E+01 0.  0.
     999903    2    3    3    0    0 -0.58483282475E-01 -0.11577609958E+00 -0.31138394418E-01  0.14124595665E+00  0.46437281383E-01 0.  0.
         14    1    1    2    0    0 -0.62546724307E-02  0.12179881087E-01  0.11350223624E-02  0.13738948514E-01  0.00000000000E+00 0. -1.
     999901    1    3    3    0    0  0.64737954906E-01  0.10359621849E+00  0.30003372055E-01  0.88894509483E+00  0.88000000000E+00 0. -1.
        -11    1    4    4    0    0 -0.23600937535E-01 -0.11387578502E-01  0.20438807727E-02  0.26289156820E-01  0.51100000000E-03 0. -1.
         11    1    4    4    0    0 -0.34882344940E-01 -0.10438852107E+00 -0.33182275190E-01  0.11495679983E+00  0.51100000000E-03 0.  1.
</event>
<event>
 8    1  0.2924722E+004  0.1043930E+01  0.7957747E-01            NaN
         13   -1    0    0    0    0  0.00000000000E+00  0.00000000000E+00  0.74505805969E-08  0.10566000000E+00  0.10566000000E+00 0. -1.
     999900   -1    0    0    0    0 -0.00000000000E+00 -0.00000000000E+00 -0.74505805969E-08  0.93827000000E+00  0.93827000000E+00 0.  1.
     999902    2    1    2    0    0  0.41708165320E-02 -0.10178174657E-01  0.63323708013E-02  0.10312378816E+01  0.10311597735E+01 0.  0.
     999903    2    3    3    0    0  0.94256155608E-01  0.40829337183E-01 -0.85112423869E-01  0.14046333937E+00  0.43983717056E-01 0.  0.
         14    1    1    2    0    0 -0.41708165320E-02  0.10178174657E-01 -0.63323708013E-02  0.12692118415E-01  0.00000000000E+00 0.  1.
     999901    1    3    3    0    0 -0.90085339076E-01 -0.51007511840E-01  0.91444794670E-01  0.89077454221E+00  0.88000000000E+00 0. -1.
        -11    1    4    4    0    0  0.97653305018E-01  0.33814271644E-01 -0.75024142033E-01  0.12770456514E+00  0.51100000000E-03 0. -1.
         11    1    4    4    0    0 -0.33971494095E-02  0.70150655394E-02 -0.10088281836E-01  0.12758774237E-01  0.51100000000E-03 0.  1.
</event>
<event>
 8    1  0.2924722E+004  0.1043930E+01  0.7957747E-01            NaN
         13   -1    0    0    0    0  0.00000000000E+00  0.00000000000E+00  0.74505805969E-08  0.10566000000E+00  0.10566000000E+00 0.  1.
     999900   -1    0    0    0    0 -0.00000000000E+00 -0.00000000000E+00 -0.74505805969E-08  0.93827000000E+00  0.93827000000E+00 0. -1.
     999902    2    1    2    0    0 -0.31056472480E-02 -0.98576826762E-02  0.96846437095E-02  0.10297662690E+01  0.10296688582E+01 0.  0.
     999903    2    3    3    0    0 -0.72047771353E-01  0.75715150530E-01 -0.78977103417E-01  0.13851062010E+00  0.44990483882E-01 0.  0.
         14    1    1    2    0    0  0.31056472480E-02  0.98576826762E-02 -0.96846437095E-02  0.14163731018E-01  0.00000000000E+00 0. -1.
     999901    1    3    3    0    0  0.68942124105E-01 -0.85572833206E-01  0.88661747126E-01  0.89125564888E+00  0.88000000000E+00 0. -1.
        -11    1    4    4    0    0 -0.58805193631E-01  0.62897125973E-01 -0.39081304888E-01  0.94560608957E-01  0.51100000000E-03 0.  1.
         11    1    4    4    0    0 -0.13242577722E-01  0.12818024557E-01 -0.39895798529E-01  0.43950011144E-01  0.51100000000E-03 0. -1.
</event>
<event>
 8    1  0.2924722E+004  0.1043930E+01  0.7957747E-01            NaN
         13   -1    0    0    0    0  0.00000000000E+00  0.00000000000E+00  0.74505805969E-08  0.10566000000E+00  0.10566000000E+00 0.  1.
     999900   -1    0    0    0    0 -0.00000000000E+00 -0.00000000000E+00 -0.74505805969E-08  0.93827000000E+00  0.93827000000E+00 0.  1.
     999902    2    1    2    0    0 -0.63354113120E-02 -0.12255336550E-01 -0.34800615433E-02  0.10297018048E+01  0.10296034991E+01 0.  0.
     999903    2    3    3    0    0  0.10921286739E+00 -0.70926978069E-01 -0.24571540275E-01  0.13996104665E+00  0.45024963802E-01 0.  0.
         14    1    1    2    0    0  0.63354113120E-02  0.12255336550E-01  0.34800615433E-02  0.14228195205E-01  0.00000000000E+00 0.  1.
     999901    1    3    3    0    0 -0.11554827871E+00  0.58671641519E-01  0.21091478732E-01  0.88974075815E+00  0.88000000000E+00 0. -1.
        -11    1    4    4    0    0  0.71499630668E-01 -0.20845649756E-01 -0.67573261552E-02  0.74784095082E-01  0.51100000000E-03 0.  1.
         11    1    4    4    0    0  0.37713236726E-01 -0.50081328314E-01 -0.17814214120E-01  0.65176951568E-01  0.51100000000E-03 0. -1.
</event>
<event>
 7    1  0.2924722E+004  0.1043930E+01  0.7957747E-01            NaN
         13   -1    0    0    0    0  0.00000000000E+00  0.00000000000E+00  0.74505805969E-08  0.10566000000E+00  0.10566000000E+00 0.  1.
     999900   -1    0    0    0    0 -0.00000000000E+00 -0.00000000000E+00 -0.74505805969E-08  0.93827000000E+00  0.93827000000E+00 0.  1.
     999903    2    1    2    0    0 -0.44364555286E-01 -0.11416228252E-01 -0.99591749541E-01  0.11881661283E+00  0.45829323294E-01 0.  0.
         14    1    1    2    0    0  0.49310008587E-02 -0.25518160560E-01 -0.23334060647E-01  0.34928064276E-01  0.00000000000E+00 0. -1.
     999901    1    1    2    0    0  0.39433554428E-01  0.36934388812E-01  0.12292581019E+00  0.89018532290E+00  0.88000000000E+00 0. -1.
        -11    1    3    3    0    0 -0.35994725578E-01 -0.16389595942E-01 -0.32991869366E-01  0.51506928561E-01  0.51100000000E-03 0. -1.
         11    1    3    3    0    0 -0.83698297087E-02  0.49733676894E-02 -0.66599880175E-01  0.67309684265E-01  0.51100000000E-03 0.  1.
</event>
<event>
 8    1  0.2924722E+004  0.1043930E+01  0.7957747E-01            NaN
         13   -1    0    0    0    0  0.00000000000E+00  0.00000000000E+00  0.74505805969E-08  0.10566000000E+00  0.10566000000E+00 0. -1.
     999900   -1    0    0    0    0 -0.00000000000E+00 -0.00000000000E+00 -0.74505805969E-08  0.93827000000E+00  0.93827000000E+00 0. -1.
     999902    2    1    2    0    0  0.43162964200E-02  0.12502095115E-01  0.17910780435E-02  0.10305830619E+01  0.10304966311E+01 0.  0.
     999903    2    3    3    0    0  0.90850692356E-01  0.36709920874E-01  0.91621955721E-01  0.14145775737E+00  0.44880371631E-01 0.  0.
         14    1    1    2    0    0 -0.43162964200E-02 -0.12502095115E-01 -0.17910780435E-02  0.13346938136E-01  0.00000000000E+00 0.  1.
     999901    1    3    3    0    0 -0.86534395936E-01 -0.24207825759E-01 -0.89830877678E-01  0.88912530449E+00  0.88000000000E+00 0.  1.
        -11    1    4    4    0    0  0.57044198780E-01  0.20896001277E-03  0.39410615824E-01  0.69336440919E-01  0.51100000000E-03 0. -1.
         11    1    4    4    0    0  0.33806493577E-01  0.36500960861E-01  0.52211339897E-01  0.72121316451E-01  0.51100000000E-03 0.  1.
</event>
<event>
 8    1  0.2924722E+004  0.1043930E+01  0.7957747E-01            NaN
         13   -1    0    0    0    0  0.00000000000E+00  0.00000000000E+00  0.74505805969E-08  0.10566000000E+00  0.10566000000E+00 0.  1.
     999900   -1    0    0    0    0 -0.00000000000E+00 -0.00000000000E+00 -0.74505805969E-08  0.93827000000E+00  0.93827000000E+00 0. -1.
     999902    2    1    2    0    0 -0.48740476989E-02  0.11548590016E-01  0.57678741905E-02  0.10301316434E+01  0.10300392265E+01 0.  0.
     999903    2    3    3    0    0  0.12255823502E+00  0.50600690970E-01 -0.14652469546E-02  0.14006626866E+00  0.45116092119E-01 0.  0.
         14    1    1    2    0    0  0.48740476989E-02 -0.11548590016E-01 -0.57678741905E-02  0.13798356606E-01  0.00000000000E+00 0.  1.
     999901    1    3    3    0    0 -0.12743228272E+00 -0.39052100953E-01  0.72331211451E-02  0.89006537474E+00  0.88000000000E+00 0. -1.
        -11    1    4    4    0    0  0.79758847139E-01  0.44707378713E-01  0.17133319115E-01  0.93027066777E-01  0.51100000000E-03 0.  1.
         11    1    4    4    0    0  0.42799387882E-01  0.58933122571E-02 -0.18598566069E-01  0.47039201878E-01  0.51100000000E-03 0. -1.
</event>
<event>
 8    1  0.2924722E+004  0.1043930E+01  0.7957747E-01            NaN
         13   -1    0    0    0    0  0.00000000000E+00  0.00000000000E+00  0.74505805969E-08  0.10566000000E+00  0.10566000000E+00 0. -1.
     999900   -1    0    0    0    0 -0.00000000000E+00 -0.00000000000E+00 -0.74505805969E-08  0.93827000000E+00  0.93827000000E+00 0. -1.
     999902    2    1    2    0    0  0.12387077971E-01  0.51797791566E-02  0.34341070604E-02  0.10300713239E+01  0.10299780917E+01 0.  0.
     999903    2    3    3    0    0 -0.12515554913E+00  0.30404042917E-01  0.31253047889E-01  0.13859606834E+00  0.40543801684E-01 0.  0.
         14    1    1    2    0    0 -0.12387077971E-01 -0.51797791566E-02 -0.34341070604E-02  0.13858676129E-01  0.00000000000E+00 0.  1.
     999901    1    3    3    0    0  0.13754262710E+00 -0.25224263761E-01 -0.27818940829E-01  0.89147525553E+00  0.88000000000E+00 0.  1.
        -11    1    4    4    0    0 -0.69390415589E-01  0.35942500677E-01  0.25765693952E-01  0.82286239654E-01  0.51100000000E-03 0.  1.
         11    1    4    4    0    0 -0.55765133536E-01 -0.55384577599E-02  0.54873539374E-02  0.56309828689E-01  0.51100000000E-03 0. -1.
</event>
<event>
 8    1  0.2924722E+004  0.1043930E+01  0.7957747E-01            NaN
         13   -1    0    0    0    0  0.00000000000E+00  0.00000000000E+00  0.74505805969E-08  0.10566000000E+00  0.10566000000E+00 0.  1.
     999900   -1    0    0    0    0 -0.00000000000E+00 -0.00000000000E+00 -0.74505805969E-08  0.93827000000E+00  0.93827000000E+00 0. -1.
     999902    2    1    2    0    0  0.82227794998E-02  0.10824993262E-01  0.49131455753E-02  0.10294754650E+01  0.10293739843E+01 0.  0.
     999903    2    3    3    0    0  0.60527419639E-01  0.23472658810E-01  0.11718597632E+00  0.14071175776E+00  0.43043135201E-01 0.  0.
         14    1    1    2    0    0 -0.82227794998E-02 -0.10824993262E-01 -0.49131455753E-02  0.14454534973E-01  0.00000000000E+00 0. -1.
     999901    1    3    3    0    0 -0.52304640139E-01 -0.12647665547E-01 -0.11227283074E+00  0.88876370726E+00  0.88000000000E+00 0.  1.
        -11    1    4    4    0    0  0.36591586998E-01  0.67347517377E-02  0.27167465288E-01  0.46072045876E-01  0.51100000000E-03 0.  1.
         11    1    4    4    0    0  0.23935832641E-01  0.16737907072E-01  0.90018511030E-01  0.94639711889E-01  0.51100000000E-03 0. -1.
</event>
<event>
 8    1  0.2924722E+004  0.1043930E+01  0.7957747E-01            NaN
         13   -1    0    0    0    0  0.00000000000E+00  0.00000000000E+00  0.74505805969E-08  0.10566000000E+00  0.10566000000E+00 0.  1.
     999900   -1    0    0    0    0 -0.00000000000E+00 -0.00000000000E+00 -0.74505805969E-08  0.93827000000E+00  0.93827000000E+00 0.  1.
     999902    2    1    2    0    0  0.48416806000E-03 -0.11523558598E-01 -0.72427986144E-02  0.10303107139E+01  0.10302206959E+01 0.  0.
     999903    2    3    3    0    0  0.10696994330E+00 -0.52677237755E-01  0.59425548029E-01  0.14043571479E+00  0.44422225108E-01 0.  0.
         14    1    1    2    0    0 -0.48416806000E-03  0.11523558598E-01  0.72427986144E-02  0.13619286077E-01  0.00000000000E+00 0. -1.
     999901    1    3    3    0    0 -0.10648577524E+00  0.41153679157E-01 -0.66668346643E-01  0.88987499913E+00  0.88000000000E+00 0. -1.
        -11    1    4    4    0    0  0.77834819957E-01 -0.31415302194E-01  0.18630202114E-01  0.85979799729E-01  0.51100000000E-03 0. -1.
         11    1    4    4    0    0  0.29135123342E-01 -0.21261935560E-01  0.40795345914E-01  0.54455915062E-01  0.51100000000E-03 0.  1.
</event>
<event>
 8    1  0.2924722E+004  0.1043930E+01  0.7957747E-01            NaN
         13   -1    0    0    0    0  0.00000000000E+00  0.00000000000E+00  0.74505805969E-08  0.10566000000E+00  0.10566000000E+00 0. -1.
     999900   -1    0    0    0    0 -0.00000000000E+00 -0.00000000000E+00 -0.74505805969E-08  0.93827000000E+00  0.93827000000E+00 0.  1.
     999902    2    1    2    0    0  0.50654904614E-02 -0.20991230034E-02 -0.30296480105E-03  0.10384384339E+01  0.10384239133E+01 0.  0.
     999903    2    3    3    0    0 -0.11110624695E+00 -0.48001250961E-01  0.69830626166E-01  0.14685467531E+00  0.45180317662E-01 0.  0.
         14    1    1    2    0    0 -0.50654904614E-02  0.20991230034E-02  0.30296480105E-03  0.54915661399E-02  0.00000000000E+00 0.  1.
     999901    1    3    3    0    0  0.11617173742E+00  0.45902127957E-01 -0.70133590967E-01  0.89158375855E+00  0.88000000000E+00 0.  1.
        -11    1    4    4    0    0 -0.46743176174E-01 -0.39589859124E-01  0.18175104025E-01  0.63897394248E-01  0.51100000000E-03 0.  1.
         11    1    4    4    0    0 -0.64363070781E-01 -0.84113918365E-02  0.51655522140E-01  0.82957281064E-01  0.51100000000E-03 0. -1.
</event>
<event>
 8    1  0.2924722E+004  0.1043930E+01  0.7957747E-01            NaN
         13   -1    0    0    0    0  0.00000000000E+00  0.00000000000E+00  0.74505805969E-08  0.10566000000E+00  0.10566000000E+00 0. -1.
     999900   -1    0    0    0    0 -0.00000000000E+00 -0.00000000000E+00 -0.74505805969E-08  0.93827000000E+00  0.93827000000E+00 0. -1.
     999902    2    1    2    0    0  0.90440898219E-02  0.96597534702E-02 -0.56624518740E-02  0.10295366071E+01  0.10294359891E+01 0.  0.
     999903    2    3    3    0    0 -0.25265877481E-01 -0.97972722240E-01  0.82280494943E-01  0.13796726848E+00  0.45031860447E-01 0.  0.
         14    1    1    2    0    0 -0.90440898219E-02 -0.96597534702E-02  0.56624518740E-02  0.14393392895E-01  0.00000000000E+00 0. -1.
     999901    1    3    3    0    0  0.34309967303E-01  0.10763247571E+00 -0.87942946817E-01  0.89156933863E+00  0.88000000000E+00 0. -1.
        -11    1    4    4    0    0  0.86757263984E-03 -0.53370976309E-01  0.19946511349E-01  0.56985421210E-01  0.51100000000E-03 0. -1.
         11    1    4    4    0    0 -0.26133450121E-01 -0.44601745930E-01  0.62333983594E-01  0.80981847268E-01  0.51100000000E-03 0.  1.
</event>
<event>
 8    1  0.2924722E+004  0.1043930E+01  0.7957747E-01            NaN
         13   -1    0    0    0    0  0.00000000000E+00  0.00000000000E+00  0.74505805969E-08  0.10566000000E+00  0.10566000000E+00 0. -1.
     999900   -1    0    0    0    0 -0.00000000000E+00 -0.00000000000E+00 -0.74505805969E-08  0.93827000000E+00  0.93827000000E+00 0. -1.
     999902    2    1    2    0    0  0.27763457275E-02 -0.41834684933E-03 -0.12698535124E-01  0.10309247740E+01  0.10308427396E+01 0.  0.
     999903    2    3    3    0    0 -0.92389018893E-01 -0.88688427499E-01  0.35149148962E-01  0.14011758124E+00  0.44677801137E-01 0.  0.
         14    1    1    2    0    0 -0.27763457275E-02  0.41834684933E-03  0.12698535124E-01  0.13005226026E-01  0.00000000000E+00 0. -1.
     999901    1    3    3    0    0  0.95165364621E-01  0.88270080649E-01 -0.47847684086E-01  0.89080719274E+00  0.88000000000E+00 0. -1.
        -11    1    4    4    0    0 -0.18927048763E-01 -0.45743260114E-01  0.46628317692E-02  0.49726071048E-01  0.51100000000E-03 0. -1.
         11    1    4    4    0    0 -0.73461970131E-01 -0.42945167384E-01  0.30486317193E-01  0.90391510188E-01  0.51100000000E-03 0.  1.
</event>
<event>
 8    1  0.2924722E+004  0.1043930E+01  0.7957747E-01            NaN
         13   -1    0    0    0    0  0.00000000000E+00  0.00000000000E+00  0.74505805969E-08  0.10566000000E+00  0.10566000000E+00 0.  1.
     999900   -1    0    0    0    0 -0.00000000000E+00 -0.00000000000E+00 -0.74505805969E-08  0.93827000000E+00  0.93827000000E+00 0.  1.
     999902    2    1    2    0    0 -0.47272545697E-03  0.13606899335E-02  0.11159271579E-01  0.10326781429E+01  0.10326168421E+01 0.  0.
     999903    2    3    3    0    0 -0.42484388303E-01  0.10897621466E+00  0.69316865110E-01  0.14322416056E+00  0.45028810438E-01 0.  0.
         14    1    1    2    0    0  0.47272545697E-03 -0.13606899335E-02 -0.11159271579E-01  0.11251857119E-01  0.00000000000E+00 0. -1.
     999901    1    3    3    0    0  0.42011662846E-01 -0.10761552472E+00 -0.58157593530E-01  0.88945398232E+00  0.88000000000E+00 0.  1.
        -11    1    4    4    0    0 -0.23587112938E-01  0.98588359621E-01  0.45571307474E-01  0.11114414845E+00  0.51100000000E-03 0. -1.
         11    1    4    4    0    0 -0.18897275365E-01  0.10387855037E-01  0.23745557636E-01  0.32080012109E-01  0.51100000000E-03 0.  1.
</event>
<event>
 8    1  0.2924722E+004  0.1043930E+01  0.7957747E-01            NaN
         13   -1    0    0    0    0  0.00000000000E+00  0.00000000000E+00  0.74505805969E-08  0.10566000000E+00  0.10566000000E+00 0.  1.
     999900   -1    0    0    0    0 -0.00000000000E+00 -0.00000000000E+00 -0.74505805969E-08  0.93827000000E+00  0.93827000000E+00 0. -1.
     999902    2    1    2    0    0  0.14855845920E-01  0.58316483059E-03 -0.99401693570E-02  0.10260458392E+01  0.10258899654E+01 0.  0.
     999903    2    3    3    0    0  0.92501738505E-01  0.29856172086E-01 -0.88295161342E-01  0.13867596238E+00  0.44576051730E-01 0.  0.
         14    1    1    2    0    0 -0.14855845920E-01 -0.58316483059E-03  0.99401693570E-02  0.17884160759E-01  0.00000000000E+00 0.  1.
     999901    1    3    3    0    0 -0.77645892585E-01 -0.29273007255E-01  0.78354991985E-01  0.88736987686E+00  0.88000000000E+00 0.  1.
        -11    1    4    4    0    0  0.40309886485E-01  0.20639813105E-01 -0.13983239382E-01  0.47399166006E-01  0.51100000000E-03 0.  1.
         11    1    4    4    0    0  0.52191852020E-01  0.92163589807E-02 -0.74311921960E-01  0.91276796375E-01  0.51100000000E-03 0. -1.
</event>
<event>
 8    1  0.2924722E+004  0.1043930E+01  0.7957747E-01            NaN
         13   -1    0    0    0    0  0.00000000000E+00  0.00000000000E+00  0.74505805969E-08  0.10566000000E+00  0.10566000000E+00 0. -1.
     999900   -1    0    0    0    0 -0.00000000000E+00 -0.00000000000E+00 -0.74505805969E-08  0.93827000000E+00  0.93827000000E+00 0.  1.
     999902    2    1    2    0    0 -0.12767380743E-01  0.42453958571E-02  0.42763030436E-02  0.10298120623E+01  0.10297152847E+01 0.  0.
     999903    2    3    3    0    0  0.16018583556E-01 -0.10831828942E+00 -0.75017205893E-01  0.13864054372E+00  0.40052120301E-01 0.  0.
         14    1    1    2    0    0  0.12767380743E-01 -0.42453958571E-02 -0.42763030436E-02  0.14117937695E-01  0.00000000000E+00 0. -1.
     999901    1    3    3    0    0 -0.28785964299E-01  0.11256368528E+00  0.79293508937E-01  0.89117151859E+00  0.88000000000E+00 0. -1.
        -11    1    4    4    0    0  0.36909803862E-02 -0.62743859993E-01 -0.19604899100E-01  0.65840933262E-01  0.51100000000E-03 0.  1.
         11    1    4    4    0    0  0.12327603169E-01 -0.45574429425E-01 -0.55412306794E-01  0.72799610456E-01  0.51100000000E-03 0. -1.
</event>
<event>
 8    1  0.2924722E+004  0.1043930E+01  0.7957747E-01            NaN
         13   -1    0    0    0    0  0.00000000000E+00  0.00000000000E+00  0.74505805969E-08  0.10566000000E+00  0.10566000000E+00 0. -1.
     999900   -1    0    0    0    0 -0.00000000000E+00 -0.00000000000E+00 -0.74505805969E-08  0.93827000000E+00  0.93827000000E+00 0. -1.
     999902    2    1    2    0    0  0.46458468452E-02 -0.42038561577E-02  0.12201610459E-01  0.10302137470E+01  0.10301224339E+01 0.  0.
     999903    2    3    3    0    0  0.10906880567E+00 -0.38303771139E-01 -0.65216113783E-01  0.14001126294E+00  0.44573860054E-01 0.  0.
         14    1    1    2    0    0 -0.46458468452E-02  0.42038561577E-02 -0.12201610459E-01  0.13716253034E-01  0.00000000000E+00 0.  1.
     999901    1    3    3    0    0 -0.10442295883E+00  0.34099914981E-01  0.77417724242E-01  0.89020248402E+00  0.88000000000E+00 0.  1.
        -11    1    4    4    0    0  0.21388813121E-01 -0.16189614018E-01 -0.36168011400E-01  0.45033000105E-01  0.51100000000E-03 0.  1.
         11    1    4    4    0    0  0.87679992551E-01 -0.22114157121E-01 -0.29048102382E-01  0.94978262839E-01  0.51100000000E-03 0. -1.
</event>
<event>
 8    1  0.2924722E+004  0.1043930E+01  0.7957747E-01            NaN
         13   -1    0    0    0    0  0.00000000000E+00  0.00000000000E+00  0.74505805969E-08  0.10566000000E+00  0.10566000000E+00 0.  1.
     999900   -1    0    0    0    0 -0.00000000000E+00 -0.00000000000E+00 -0.74505805969E-08  0.93827000000E+00  0.93827000000E+00 0.  1.
     999902    2    1    2    0    0  0.96040695903E-02  0.13154436069E-01  0.39121746638E-02  0.10271794044E+01  0.10270428163E+01 0.  0.
     999903    2    3    3    0    0  0.11738667328E+00 -0.19085159759E-01  0.54228798324E-01  0.13859162385E+00  0.46076037659E-01 0.  0.
         14    1    1    2    0    0 -0.96040695903E-02 -0.13154436069E-01 -0.39121746638E-02  0.16750595560E-01  0.00000000000E+00 0. -1.
     999901    1    3    3    0    0 -0.10778260369E+00  0.32239595829E-01 -0.50316623660E-01  0.88858778059E+00  0.88000000000E+00 0.  1.
        -11    1    4    4    0    0  0.88226285014E-01 -0.34143671376E-01  0.37667248990E-01  0.10182706138E+00  0.51100000000E-03 0.  1.
         11    1    4    4    0    0  0.29160388269E-01  0.15058511616E-01  0.16561549334E-01  0.36764562468E-01  0.51100000000E-03 0. -1.
</event>
<event>
 8    1  0.2924722E+004  0.1043930E+01  0.7957747E-01            NaN
         13   -1    0    0    0    0  0.00000000000E+00  0.00000000000E+00  0.74505805969E-08  0.10566000000E+00  0.10566000000E+00 0.  1.
     999900   -1    0    0    0    0 -0.00000000000E+00 -0.00000000000E+00 -0.74505805969E-08  0.93827000000E+00  0.93827000000E+00 0. -1.
     999902    2    1    2    0    0 -0.99716990477E-02  0.86967056086E-02 -0.13709593516E-01  0.10248769051E+01  0.10246997854E+01 0.  0.
     999903    2    3    3    0    0  0.89091130692E-02  0.96400761975E-01 -0.86308153233E-01  0.13734153261E+00  0.45178756744E-01 0.  0.
         14    1    1    2    0    0  0.99716990477E-02 -0.86967056086E-02  0.13709593516E-01  0.19053094885E-01  0.00000000000E+00 0.  1.
     999901    1    3    3    0    0 -0.18880812117E-01 -0.87704056366E-01  0.72598559718E-01  0.88753537250E+00  0.88000000000E+00 0.  1.
        -11    1    4    4    0    0 -0.14403078333E-01  0.69368502391E-01 -0.52581040434E-01  0.88229613643E-01  0.51100000000E-03 0.  1.
         11    1    4    4    0    0  0.23312191402E-01  0.27032259584E-01 -0.33727112799E-01  0.49111918970E-01  0.51100000000E-03 0. -1.
</event>
<event>
 8    1  0.2924722E+004  0.1043930E+01  0.7957747E-01            NaN
         13   -1    0    0    0    0  0.00000000000E+00  0.00000000000E+00  0.74505805969E-08  0.10566000000E+00  0.10566000000E+00 0. -1.
     999900   -1    0    0    0    0 -0.00000000000E+00 -0.00000000000E+00 -0.74505805969E-08  0.93827000000E+00  0.93827000000E+00 0.  1.
     999902    2    1    2    0    0 -0.25455598610E-03  0.15891507505E-01 -0.35361129219E-02  0.10276478348E+01  0.10275188385E+01 0.  0.
     999903    2    3    3    0    0 -0.74999379800E-01  0.60583473050E-01 -0.87115976703E-01  0.13940814073E+00  0.50499228969E-01 0.  0.
         14    1    1    2    0    0  0.25455598610E-03 -0.15891507505E-01  0.35361129219E-02  0.16282165216E-01  0.00000000000E+00 0. -1.
     999901    1    3    3    0    0  0.74744823814E-01 -0.44691965545E-01  0.83579863781E-01  0.88823969406E+00  0.88000000000E+00 0. -1.
        -11    1    4    4    0    0 -0.18085159995E-01  0.15029752065E-01  0.27608613050E-02  0.23682270485E-01  0.51100000000E-03 0. -1.
         11    1    4    4    0    0 -0.56914219804E-01  0.45553720984E-01 -0.89876838008E-01  0.11572587024E+00  0.51100000000E-03 0.  1.
</event>
<event>
 8    1  0.2924722E+004  0.1043930E+01  0.7957747E-01            NaN
         13   -1    0    0    0    0  0.00000000000E+00  0.00000000000E+00  0.74505805969E-08  0.10566000000E+00  0.10566000000E+00 0.  1.
     999900   -1    0    0    0    0 -0.00000000000E+00 -0.00000000000E+00 -0.74505805969E-08  0.93827000000E+00  0.93827000000E+00 0. -1.
     999902    2    1    2    0    0 -0.28875011260E-02 -0.51223928089E-02 -0.14290335366E-01  0.10284771603E+01  0.10283610645E+01 0.  0.
     999903    2    3    3    0    0  0.63786206309E-01 -0.92183564072E-01  0.67704597488E-01  0.13788847866E+00  0.43160519285E-01 0.  0.
         14    1    1    2    0    0  0.28875011260E-02  0.51223928089E-02  0.14290335366E-01  0.15452839729E-01  0.00000000000E+00 0.  1.
     999901    1    3    3    0    0 -0.66673707435E-01  0.87061171263E-01 -0.81994932853E-01  0.89058868161E+00  0.88000000000E+00 0. -1.
        -11    1    4    4    0    0  0.27487482441E-01 -0.73535473978E-01  0.51963562163E-01  0.94146165815E-01  0.51100000000E-03 0.  1.
         11    1    4    4    0    0  0.36298723868E-01 -0.18648090095E-01  0.15741035324E-01  0.43742312841E-01  0.51100000000E-03 0. -1.
</event>
<event>
 8    1  0.2924722E+004  0.1043930E+01  0.7957747E-01            NaN
         13   -1    0    0    0    0  0.00000000000E+00  0.00000000000E+00  0.74505805969E-08  0.10566000000E+00  0.10566000000E+00 0. -1.
     999900   -1    0    0    0    0 -0.00000000000E+00 -0.00000000000E+00 -0.74505805969E-08  0.93827000000E+00  0.93827000000E+00 0. -1.
     999902    2    1    2    0    0 -0.12529821849E-01 -0.18156985332E-02 -0.53815560449E-02  0.10301730257E+01  0.10300811660E+01 0.  0.
     999903    2    3    3    0    0  0.13101995879E+00 -0.11366647418E-02 -0.20947077915E-02  0.13853531676E+00  0.44945796039E-01 0.  0.
         14    1    1    2    0    0  0.12529821849E-01  0.18156985332E-02  0.53815560449E-02  0.13756974311E-01  0.00000000000E+00 0. -1.
     999901    1    3    3    0    0 -0.14354978064E+00 -0.67903379142E-03 -0.32868482534E-02  0.89163770893E+00  0.88000000000E+00 0. -1.
        -11    1    4    4    0    0  0.10552116545E+00  0.90407007340E-02 -0.17041648969E-01  0.10727128949E+00  0.51100000000E-03 0.  1.
         11    1    4    4    0    0  0.25498793336E-01 -0.10177365476E-01  0.14946941178E-01  0.31264027271E-01  0.51100000000E-03 0. -1.
</event>
<event>
 8    1  0.2924722E+004  0.1043930E+01  0.7957747E-01            NaN
         13   -1    0    0    0    0  0.00000000000E+00  0.00000000000E+00  0.74505805969E-08  0.10566000000E+00  0.10566000000E+00 0. -1.
     999900   -1    0    0    0    0 -0.00000000000E+00 -0.00000000000E+00 -0.74505805969E-08  0.93827000000E+00  0.93827000000E+00 0. -1.
     999902    2    1    2    0    0  0.12287759717E-01  0.96122225612E-03 -0.57683836805E-02  0.10303216482E+01  0.10302317757E+01 0.  0.
     999903    2    3    3    0    0 -0.26589049382E-01 -0.22692932264E-02  0.12894898205E+00  0.13921525104E+00  0.45176530529E-01 0.  0.
         14    1    1    2    0    0 -0.12287759717E-01 -0.96122225612E-03  0.57683836805E-02  0.13608351751E-01  0.00000000000E+00 0. -1.
     999901    1    3    3    0    0  0.38876809099E-01  0.32305154825E-02 -0.13471736573E+00  0.89110639721E+00  0.88000000000E+00 0. -1.
        -11    1    4    4    0    0 -0.31402355669E-01 -0.17785654043E-01  0.84390493108E-01  0.91784823797E-01  0.51100000000E-03 0. -1.
         11    1    4    4    0    0  0.48133062865E-02  0.15516360817E-01  0.44558488946E-01  0.47430427244E-01  0.51100000000E-03 0.  1.
</event>
<event>
 8    1  0.2924722E+004  0.1043930E+01  0.7957747E-01            NaN
         13   -1    0    0    0    0  0.00000000000E+00  0.00000000000E+00  0.74505805969E-08  0.10566000000E+00  0.10566000000E+00 0.  1.
     999900   -1    0    0    0    0 -0.00000000000E+00 -0.00000000000E+00 -0.74505805969E-08  0.93827000000E+00  0.93827000000E+00 0.  1.
     999902    2    1    2    0    0 -0.13211985791E-01 -0.34879685587E-02  0.23909674591E-02  0.10300577537E+01  0.10299643376E+01 0.  0.
     999903    2    3    3    0    0  0.83066700483E-02 -0.67822346790E-01 -0.11385626937E+00  0.13982442197E+00  0.43803509135E-01 0.  0.
         14    1    1    2    0    0  0.13211985791E-01  0.34879685587E-02 -0.23909674591E-02  0.13872246343E-01  0.00000000000E+00 0.  1.
     999901    1    3    3    0    0 -0.21518655839E-01  0.64334378231E-01  0.11624723683E+00  0.89023333169E+00  0.88000000000E+00 0. -1.
        -11    1    4    4    0    0 -0.74754906084E-02  0.30775278427E-02 -0.75580823149E-02  0.11078802586E-01  0.51100000000E-03 0. -1.
         11    1    4    4    0    0  0.15782160657E-01 -0.70899874633E-01 -0.10629818706E+00  0.12874561939E+00  0.51100000000E-03 0.  1.
</event>
<event>
 8    1  0.2924722E+004  0.1043930E+01  0.7957747E-01            NaN
         13   -1    0    0    0    0  0.00000000000E+00  0.00000000000E+00  0.74505805969E-08  0.10566000000E+00  0.10566000000E+00 0.  1.
     999900   -1    0    0    0    0 -0.00000000000E+00 -0.00000000000E+00 -0.74505805969E-08  0.93827000000E+00  0.93827000000E+00 0.  1.
     999902    2    1    2    0    0 -0.42789247491E-02  0.87238274923E-02  0.10624673969E-01  0.10295321509E+01  0.10294314701E+01 0.  0.
     999903    2    3    3    0    0  0.10091510318E+00 -0.80295446075E-01  0.25149038294E-01  0.13868919514E+00  0.44395968424E-01 0.  0.
         14    1    1    2    0    0  0.42789247491E-02 -0.87238274923E-02 -0.10624673969E-01  0.14397849147E-01  0.00000000000E+00 0. -1.
     999901    1    3    3    0    0 -0.10519402793E+00  0.89019273567E-01 -0.14524364325E-01  0.89084295571E+00  0.88000000000E+00 0. -1.
        -11    1    4    4    0    0  0.12748398352E-01 -0.27610827889E-01  0.18856199141E-01  0.35786825009E-01  0.51100000000E-03 0. -1.
         11    1    4    4    0    0  0.88166704827E-01 -0.52684618186E-01  0.62928391536E-02  0.10290237013E+00  0.51100000000E-03 0.  1.
</event>
<event>
 8    1  0.2924722E+004  0.1043930E+01  0.7957747E-01            NaN
         13   -1    0    0    0    0  0.00000000000E+00  0.00000000000E+00  0.74505805969E-08  0.10566000000E+00  0.10566000000E+00 0.  1.
     999900   -1    0    0    0    0 -0.00000000000E+00 -0.00000000000E+00 -0.74505805969E-08  0.93827000000E+00  0.93827000000E+00 0.  1.
     999902    2    1    2    0    0  0.37000805629E-02  0.89225358477E-02  0.10250586114E-01  0.10298453716E+01  0.10297490532E+01 0.  0.
     999903    2    3    3    0    0  0.74599929799E-01 -0.44958937698E-01  0.10121463303E+00  0.14068595975E+00  0.44290876317E-01 0.  0.
         14    1    1    2    0    0 -0.37000805629E-02 -0.89225358477E-02 -0.10250586114E-01  0.14084628423E-01  0.00000000000E+00 0. -1.
     999901    1    3    3    0    0 -0.70899849236E-01  0.53881473546E-01 -0.90964046919E-01  0.88915941183E+00  0.88000000000E+00 0.  1.
        -11    1    4    4    0    0  0.47638354761E-02 -0.25632154855E-02  0.35290300717E-01  0.35706171004E-01  0.51100000000E-03 0. -1.
         11    1    4    4    0    0  0.69836094323E-01 -0.42395722213E-01  0.65924332317E-01  0.10497978874E+00  0.51100000000E-03 0.  1.
</event>
<event>
 8    1  0.2924722E+004  0.1043930E+01  0.7957747E-01            NaN
         13   -1    0    0    0    0  0.00000000000E+00  0.00000000000E+00  0.74505805969E-08  0.10566000000E+00  0.10566000000E+00 0. -1.
     999900   -1    0    0    0    0 -0.00000000000E+00 -0.00000000000E+00 -0.74505805969E-08  0.93827000000E+00  0.93827000000E+00 0.  1.
     999902    2    1    2    0    0 -0.27643657121E-02  0.48409649110E-03 -0.14864953571E-01  0.10288024453E+01  0.10286912212E+01 0.  0.
     999903    2    3    3    0    0 -0.12861582479E+00  0.28519372483E-01  0.27164485357E-02  0.13923307072E+00  0.44978704907E-01 0.  0.
         14    1    1    2    0    0  0.27643657121E-02 -0.48409649110E-03  0.14864953571E-01  0.15127554723E-01  0.00000000000E+00 0. -1.
     999901    1    3    3    0    0  0.12585145908E+00 -0.28035275992E-01 -0.17581402107E-01  0.88956937456E+00  0.88000000000E+00 0. -1.
        -11    1    4    4    0    0 -0.23501876861E-01 -0.11198975260E-01 -0.53221632697E-02  0.26577091747E-01  0.51100000000E-03 0.  1.
         11    1    4    4    0    0 -0.10511394793E+00  0.39718347743E-01  0.80386118053E-02  0.11265597897E+00  0.51100000000E-03 0. -1.
</event>
<event>
 8    1  0.2924722E+004  0.1043930E+01  0.7957747E-01            NaN
         13   -1    0    0    0    0  0.00000000000E+00  0.00000000000E+00  0.74505805969E-08  0.10566000000E+00  0.10566000000E+00 0. -1.
     999900   -1    0    0    0    0 -0.00000000000E+00 -0.00000000000E+00 -0.74505805969E-08  0.93827000000E+00  0.93827000000E+00 0.  1.
     999902    2    1    2    0    0 -0.11650101184E-01  0.55400701923E-02 -0.55087518070E-02  0.10299027557E+01  0.10298072260E+01 0.  0.
     999903    2    3    3    0    0 -0.50107156814E-01  0.11206551638E+00  0.51409327237E-01  0.14082104771E+00  0.46024356870E-01 0.  0.
         14    1    1    2    0    0  0.11650101184E-01 -0.55400701923E-02  0.55087518070E-02  0.14027244270E-01  0.00000000000E+00 0. -1.
     999901    1    3    3    0    0  0.38457055630E-01 -0.10652544619E+00 -0.56918079044E-01  0.88908170802E+00  0.88000000000E+00 0.  1.
        -11    1    4    4    0    0 -0.69134397773E-02  0.20821755015E-01  0.30747735917E-01  0.37775991271E-01  0.51100000000E-03 0.  1.
         11    1    4    4    0    0 -0.43193717037E-01  0.91243761366E-01  0.20661591321E-01  0.10304505644E+00  0.51100000000E-03 0. -1.
</event>
<event>
 8    1  0.2924722E+004  0.1043930E+01  0.7957747E-01            NaN
         13   -1    0    0    0    0  0.00000000000E+00  0.00000000000E+00  0.74505805969E-08  0.10566000000E+00  0.10566000000E+00 0.  1.
     999900   -1    0    0    0    0 -0.00000000000E+00 -0.00000000000E+00 -0.74505805969E-08  0.93827000000E+00  0.93827000000E+00 0.  1.
     999902    2    1    2    0    0 -0.30141161376E-02 -0.11296961951E-01  0.68576027116E-02  0.10303751868E+01  0.10302860247E+01 0.  0.
     999903    2    3    3    0    0 -0.77390731100E-01 -0.10221107180E-01  0.10908236933E+00  0.14134034992E+00  0.44545874376E-01 0.  0.
         14    1    1    2    0    0  0.30141161376E-02  0.11296961951E-01 -0.68576027116E-02  0.13554813181E-01  0.00000000000E+00 0. -1.
     999901    1    3    3    0    0  0.74376614963E-01 -0.10758547711E-02 -0.10222476662E+00  0.88903483690E+00  0.88000000000E+00 0.  1.
        -11    1    4    4    0    0 -0.40606628355E-01  0.16421675247E-01  0.62061102363E-01  0.75963222890E-01  0.51100000000E-03 0.  1.
         11    1    4    4    0    0 -0.36784102745E-01 -0.26642782427E-01  0.47021266965E-01  0.65377127026E-01  0.51100000000E-03 0. -1.
</event>
<event>
 8    1  0.2924722E+004  0.1043930E+01  0.7957747E-01            NaN
         13   -1    0    0    0    0  0.00000000000E+00  0.00000000000E+00  0.74505805969E-08  0.10566000000E+00  0.10566000000E+00 0.  1.
     999900   -1    0    0    0    0 -0.00000000000E+00 -0.00000000000E+00 -0.74505805969E-08  0.93827000000E+00  0.93827000000E+00 0.  1.
     999902    2    1    2    0    0  0.83527866594E-02  0.17395412170E-01  0.59131139513E-03  0.10246240667E+01  0.10244421697E+01 0.  0.
     999903    2    3    3    0    0  0.11757402130E+00 -0.42305206177E-01 -0.27010522915E-01  0.13543606459E+00  0.44721116812E-01 0.  0.
         14    1    1    2    0    0 -0.83527866594E-02 -0.17395412170E-01 -0.59131139513E-03  0.19305933252E-01  0.00000000000E+00 0. -1.
     999901    1    3    3    0    0 -0.10922123464E+00  0.59700618347E-01  0.27601834310E-01  0.88918800216E+00  0.88000000000E+00 0. -1.
        -11    1    4    4    0    0  0.75159087453E-01 -0.71560745841E-02 -0.27478065811E-01  0.80345522912E-01  0.51100000000E-03 0. -1.
         11    1    4    4    0    0  0.42414933846E-01 -0.35149131593E-01  0.46754289572E-03  0.55090541677E-01  0.51100000000E-03 0.  1.
</event>
<event>
 8    1  0.2924722E+004  0.1043930E+01  0.7957747E-01            NaN
         13   -1    0    0    0    0  0.00000000000E+00  0.00000000000E+00  0.74505805969E-08  0.10566000000E+00  0.10566000000E+00 0.  1.
     999900   -1    0    0    0    0 -0.00000000000E+00 -0.00000000000E+00 -0.74505805969E-08  0.93827000000E+00  0.93827000000E+00 0. -1.
     999902    2    1    2    0    0  0.23641370419E-02 -0.48966459975E-02  0.12876641038E-01  0.10299523689E+01  0.10298575183E+01 0.  0.
     999903    2    3    3    0    0 -0.10928902124E+00  0.41533767755E-01  0.62711997061E-01  0.14028626651E+00  0.45588353431E-01 0.  0.
         14    1    1    2    0    0 -0.23641370419E-02  0.48966459975E-02 -0.12876641038E-01  0.13977631072E-01  0.00000000000E+00 0. -1.
     999901    1    3    3    0    0  0.11165315828E+00 -0.46430413752E-01 -0.49835356024E-01  0.88966610241E+00  0.88000000000E+00 0. -1.
        -11    1    4    4    0    0 -0.70656105969E-01  0.38026395847E-02  0.28057725983E-01  0.76119921748E-01  0.51100000000E-03 0. -1.
         11    1    4    4    0    0 -0.38632915273E-01  0.37731128170E-01  0.34654271078E-01  0.64166344765E-01  0.51100000000E-03 0.  1.
</event>
<event>
 8    1  0.2924722E+004  0.1043930E+01  0.7957747E-01            NaN
         13   -1    0    0    0    0  0.00000000000E+00  0.00000000000E+00  0.74505805969E-08  0.10566000000E+00  0.10566000000E+00 0. -1.
     999900   -1    0    0    0    0 -0.00000000000E+00 -0.00000000000E+00 -0.74505805969E-08  0.93827000000E+00  0.93827000000E+00 0. -1.
     999902    2    1    2    0    0 -0.47007052719E-02  0.11605511037E-01 -0.41711881244E-02  0.10307321469E+01  0.10306476485E+01 0.  0.
     999903    2    3    3    0    0  0.13181178386E+00  0.61259414555E-02 -0.17014430979E-01  0.14009718560E+00  0.43884587608E-01 0.  0.
         14    1    1    2    0    0  0.47007052719E-02 -0.11605511037E-01  0.41711881244E-02  0.13197853115E-01  0.00000000000E+00 0.  1.
     999901    1    3    3    0    0 -0.13651248913E+00  0.54795695816E-02  0.12843242855E-01  0.89063496128E+00  0.88000000000E+00 0. -1.
        -11    1    4    4    0    0  0.21609155007E-01  0.18113426049E-01 -0.29729654883E-02  0.28357563861E-01  0.51100000000E-03 0. -1.
         11    1    4    4    0    0  0.11020262885E+00 -0.11987484594E-01 -0.14041465491E-01  0.11173962174E+00  0.51100000000E-03 0.  1.
</event>
<event>
 8    1  0.2924722E+004  0.1043930E+01  0.7957747E-01            NaN
         13   -1    0    0    0    0  0.00000000000E+00  0.00000000000E+00  0.74505805969E-08  0.10566000000E+00  0.10566000000E+00 0. -1.
     999900   -1    0    0    0    0 -0.00000000000E+00 -0.00000000000E+00 -0.74505805969E-08  0.93827000000E+00  0.93827000000E+00 0.  1.
     999902    2    1    2    0    0  0.73088041265E-02 -0.95097938191E-02 -0.57885318770E-02  0.10306122713E+01  0.10305262209E+01 0.  0.
     999903    2    3    3    0    0 -0.83459061834E-01  0.10148922984E+00 -0.13392999845E-01  0.13897477957E+00  0.43233530214E-01 0.  0.
         14    1    1    2    0    0 -0.73088041265E-02  0.95097938191E-02  0.57885318770E-02  0.13317728693E-01  0.00000000000E+00 0. -1.
     999901    1    3    3    0    0  0.90767865961E-01 -0.11099902366E+00  0.76044679676E-02  0.89163749174E+00  0.88000000000E+00 0. -1.
        -11    1    4    4    0    0 -0.51592136537E-01  0.65761737321E-01  0.12546380531E-01  0.84522348721E-01  0.51100000000E-03 0. -1.
         11    1    4    4    0    0 -0.31866925297E-01  0.35727492520E-01 -0.25939380376E-01  0.54452430845E-01  0.51100000000E-03 0.  1.
</event>
<event>
 8    1  0.2924722E+004  0.1043930E+01  0.7957747E-01            NaN
         13   -1    0    0    0    0  0.00000000000E+00  0.00000000000E+00  0.74505805969E-08  0.10566000000E+00  0.10566000000E+00 0.  1.
     999900   -1    0    0    0    0 -0.00000000000E+00 -0.00000000000E+00 -0.74505805969E-08  0.93827000000E+00  0.93827000000E+00 0. -1.
     999902    2    1    2    0    0  0.23547859378E-02  0.88730800507E-03  0.16443408531E-01  0.10272951566E+01  0.10271604649E+01 0.  0.
     999903    2    3    3    0    0  0.57727929995E-01  0.10267642239E+00 -0.52526828628E-01  0.13702323040E+00  0.46274575391E-01 0.  0.
         14    1    1    2    0    0 -0.23547859378E-02 -0.88730800507E-03 -0.16443408531E-01  0.16634843444E-01  0.00000000000E+00 0. -1.
     999901    1    3    3    0    0 -0.55373144057E-01 -0.10178911438E+00  0.68970237159E-01  0.89027192616E+00  0.88000000000E+00 0.  1.
        -11    1    4    4    0    0  0.34804565004E-01  0.71756260751E-01 -0.57343959822E-01  0.98228863127E-01  0.51100000000E-03 0.  1.
         11    1    4    4    0    0  0.22923364991E-01  0.30920161635E-01  0.48171311944E-02  0.38794367272E-01  0.51100000000E-03 0. -1.
</event>
<event>
 8    1  0.2924722E+004  0.1043930E+01  0.7957747E-01            NaN
         13   -1    0    0    0    0  0.00000000000E+00  0.00000000000E+00  0.74505805969E-08  0.10566000000E+00  0.10566000000E+00 0. -1.
     999900   -1    0    0    0    0 -0.00000000000E+00 -0.00000000000E+00 -0.74505805969E-08  0.93827000000E+00  0.93827000000E+00 0. -1.
     999902    2    1    2    0    0 -0.49770914526E-02  0.10022103885E-01  0.34964814270E-02  0.10322065454E+01  0.10321399677E+01 0.  0.
     999903    2    3    3    0    0 -0.12874522930E+00  0.35681167735E-01  0.22570749388E-01  0.14297048719E+00  0.45635969172E-01 0.  0.
         14    1    1    2    0    0  0.49770914526E-02 -0.10022103885E-01 -0.34964814270E-02  0.11723454609E-01  0.00000000000E+00 0.  1.
     999901    1    3    3    0    0  0.12376813784E+00 -0.25659063850E-01 -0.19074267961E-01  0.88923605820E+00  0.88000000000E+00 0.  1.
        -11    1    4    4    0    0 -0.47419389024E-01  0.13851187031E-02 -0.10718994897E-01  0.48638204961E-01  0.51100000000E-03 0.  1.
         11    1    4    4    0    0 -0.81325840273E-01  0.34296049032E-01  0.33289744285E-01  0.94332282231E-01  0.51100000000E-03 0. -1.
</event>
<event>
 8    1  0.2924722E+004  0.1043930E+01  0.7957747E-01            NaN
         13   -1    0    0    0    0  0.00000000000E+00  0.00000000000E+00  0.74505805969E-08  0.10566000000E+00  0.10566000000E+00 0.  1.
     999900   -1    0    0    0    0 -0.00000000000E+00 -0.00000000000E+00 -0.74505805969E-08  0.93827000000E+00  0.93827000000E+00 0.  1.
     999902    2    1    2    0    0 -0.99692303085E-02 -0.19162918863E-03 -0.47843131830E-02  0.10328705277E+01  0.10328113163E+01 0.  0.
     999903    2    3    3    0    0 -0.56951512115E-01 -0.10062770781E+00 -0.71578805876E-01  0.14340088520E+00  0.45506901824E-01 0.  0.
         14    1    1    2    0    0  0.99692303085E-02  0.19162918863E-03  0.47843131830E-02  0.11059472290E-01  0.00000000000E+00 0.  1.
     999901    1    3    3    0    0  0.46982281806E-01  0.10043607862E+00  0.66794492693E-01  0.88946964251E+00  0.88000000000E+00 0. -1.
        -11    1    4    4    0    0 -0.42117481162E-01 -0.64968913092E-01 -0.21884538187E-01  0.80461394597E-01  0.51100000000E-03 0. -1.
         11    1    4    4    0    0 -0.14834030953E-01 -0.35658794721E-01 -0.49694267689E-01  0.62939490603E-01  0.51100000000E-03 0.  1.
</event>
<event>
 8    1  0.2924722E+004  0.1043930E+01  0.7957747E-01            NaN
         13   -1    0    0    0    0  0.00000000000E+00  0.00000000000E+00  0.74505805969E-08  0.10566000000E+00  0.10566000000E+00 0.  1.
     999900   -1    0    0    0    0 -0.00000000000E+00 -0.00000000000E+00 -0.74505805969E-08  0.93827000000E+00  0.93827000000E+00 0.  1.
     999902    2    1    2    0    0  0.12234457808E-01 -0.33412815969E-03 -0.99558476433E-02  0.10281530389E+01  0.10280319834E+01 0.  0.
     999903    2    3    3    0    0  0.31271792482E-01  0.11768789771E+00 -0.50121956878E-01  0.13916207435E+00  0.45005623043E-01 0.  0.
         14    1    1    2    0    0 -0.12234457808E-01  0.33412815969E-03  0.99558476433E-02  0.15776961107E-01  0.00000000000E+00 0.  1.
     999901    1    3    3    0    0 -0.19037334674E-01 -0.11802202587E+00  0.40166109234E-01  0.88899096454E+00  0.88000000000E+00 0.  1.
        -11    1    4    4    0    0  0.13211498495E-01  0.25333514372E-01 -0.32754494989E-01  0.43467789292E-01  0.51100000000E-03 0.  1.
         11    1    4    4    0    0  0.18060293987E-01  0.92354383335E-01 -0.17367461889E-01  0.95694285062E-01  0.51100000000E-03 0. -1.
</event>
<event>
 8    1  0.2924722E+004  0.1043930E+01  0.7957747E-01            NaN
         13   -1    0    0    0    0  0.00000000000E+00  0.00000000000E+00  0.74505805969E-08  0.10566000000E+00  0.10566000000E+00 0. -1.
     999900   -1    0    0    0    0 -0.00000000000E+00 -0.00000000000E+00 -0.74505805969E-08  0.93827000000E+00  0.93827000000E+00 0. -1.
     999902    2    1    2    0    0  0.50299195634E-02  0.69418776691E-02  0.10514760982E-01  0.10303634988E+01  0.10302741818E+01 0.  0.
     999903    2    3    3    0    0  0.54996355201E-01 -0.75681323379E-01  0.96968831833E-01  0.14087064081E+00  0.41101354011E-01 0.  0.
         14    1    1    2    0    0 -0.50299195634E-02 -0.69418776691E-02 -0.10514760982E-01  0.13566501203E-01  0.00000000000E+00 0.  1.
     999901    1    3    3    0    0 -0.49966435637E-01  0.82623201048E-01 -0.86454070851E-01  0.88949285799E+00  0.88000000000E+00 0. -1.
        -11    1    4    4    0    0  0.37244790863E-01 -0.75544970874E-01  0.76651377956E-01  0.11388552118E+00  0.51100000000E-03 0.  1.
         11    1    4    4    0    0  0.17751564338E-01 -0.13635250464E-03  0.20317453877E-01  0.26985119631E-01  0.51100000000E-03 0. -1.
</event>
<event>
 8    1  0.2924722E+004  0.1043930E+01  0.7957747E-01            NaN
         13   -1    0    0    0    0  0.00000000000E+00  0.00000000000E+00  0.74505805969E-08  0.10566000000E+00  0.10566000000E+00 0.  1.
     999900   -1    0    0    0    0 -0.00000000000E+00 -0.00000000000E+00 -0.74505805969E-08  0.93827000000E+00  0.93827000000E+00 0. -1.
     999902    2    1    2    0    0 -0.10494454504E-01  0.66186291888E-03 -0.65744528961E-02  0.10315285860E+01  0.10314540362E+01 0.  0.
     999903    2    3    3    0    0  0.92432282056E-01 -0.91050490699E-01  0.23130709088E-01  0.14030052006E+00  0.48117435545E-01 0.  0.
         14    1    1    2    0    0  0.10494454504E-01 -0.66186291888E-03  0.65744528961E-02  0.12401413981E-01  0.00000000000E+00 0. -1.
     999901    1    3    3    0    0 -0.10292673656E+00  0.91712353617E-01 -0.29705161984E-01  0.89122806596E+00  0.88000000000E+00 0. -1.
        -11    1    4    4    0    0  0.22016148461E-01 -0.54946486430E-01  0.11789663626E-01  0.60357969262E-01  0.51100000000E-03 0.  1.
         11    1    4    4    0    0  0.70416133596E-01 -0.36104004269E-01  0.11341045462E-01  0.79942550797E-01  0.51100000000E-03 0. -1.
</event>
<event>
 8    1  0.2924722E+004  0.1043930E+01  0.7957747E-01            NaN
         13   -1    0    0    0    0  0.00000000000E+00  0.00000000000E+00  0.74505805969E-08  0.10566000000E+00  0.10566000000E+00 0.  1.
     999900   -1    0    0    0    0 -0.00000000000E+00 -0.00000000000E+00 -0.74505805969E-08  0.93827000000E+00  0.93827000000E+00 0. -1.
     999902    2    1    2    0    0 -0.68430515615E-02 -0.71888911854E-03 -0.57524734247E-02  0.10349614379E+01  0.10349225781E+01 0.  0.
     999903    2    3    3    0    0  0.26952510392E-01 -0.13248531978E+00  0.22443714718E-01  0.14406326339E+00  0.44403893457E-01 0.  0.
         14    1    1    2    0    0  0.68430515615E-02  0.71888911854E-03  0.57524734247E-02  0.89685621334E-02  0.00000000000E+00 0. -1.
     999901    1    3    3    0    0 -0.33795561953E-01  0.13176643066E+00 -0.28196188143E-01  0.89089817448E+00  0.88000000000E+00 0. -1.
        -11    1    4    4    0    0  0.20704860377E-01 -0.20957064518E-01 -0.26232831196E-02  0.29580948797E-01  0.51100000000E-03 0.  1.
         11    1    4    4    0    0  0.62476500151E-02 -0.11152825526E+00  0.25066997838E-01  0.11448231459E+00  0.51100000000E-03 0. -1.
</event>
<event>
 8    1  0.2924722E+004  0.1043930E+01  0.7957747E-01            NaN
         13   -1    0    0    0    0  0.00000000000E+00  0.00000000000E+00  0.74505805969E-08  0.10566000000E+00  0.10566000000E+00 0. -1.
     999900   -1    0    0    0    0 -0.00000000000E+00 -0.00000000000E+00 -0.74505805969E-08  0.93827000000E+00  0.93827000000E+00 0. -1.
     999902    2    1    2    0    0  0.18900937240E-02 -0.13623903468E-01 -0.91392098934E-02  0.10274161162E+01  0.10272833920E+01 0.  0.
     999903    2    3    3    0    0 -0.50087166753E-01  0.73664119458E-01 -0.94480780164E-01  0.13747004023E+00  0.45125019358E-01 0.  0.
         14    1    1    2    0    0 -0.18900937240E-02  0.13623903468E-01  0.91392098934E-02  0.16513883779E-01  0.00000000000E+00 0. -1.
     999901    1    3    3    0    0  0.51977260477E-01 -0.87288022925E-01  0.85341570270E-01  0.88994607599E+00  0.88000000000E+00 0. -1.
        -11    1    4    4    0    0 -0.13142829784E-01  0.32718745350E-01 -0.10130265727E-01  0.36689694421E-01  0.51100000000E-03 0. -1.
         11    1    4    4    0    0 -0.36944336969E-01  0.40945374108E-01 -0.84350514437E-01  0.10078034581E+00  0.51100000000E-03 0.  1.
</event>
<event>
 8    1  0.2924722E+004  0.1043930E+01  0.7957747E-01            NaN
         13   -1    0    0    0    0  0.00000000000E+00  0.00000000000E+00  0.74505805969E-08  0.10566000000E+00  0.10566000000E+00 0. -1.
     999900   -1    0    0    0    0 -0.00000000000E+00 -0.00000000000E+00 -0.74505805969E-08  0.93827000000E+00  0.93827000000E+00 0.  1.
     999902    2    1    2    0    0  0.12821630166E-01 -0.19549099887E-02  0.53205426510E-02  0.10299112965E+01  0.10298158839E+01 0.  0.
     999903    2    3    3    0    0 -0.39722562895E-01  0.60760874179E-01 -0.10909273401E+00  0.13874096505E+00  0.45585797519E-01 0.  0.
         14    1    1    2    0    0 -0.12821630166E-01  0.19549099887E-02 -0.53205426510E-02  0.14018703481E-01  0.00000000000E+00 0. -1.
     999901    1    3    3    0    0  0.52544193061E-01 -0.62715784168E-01  0.11441327666E+00  0.89117033147E+00  0.88000000000E+00 0. -1.
        -11    1    4    4    0    0 -0.45684422415E-01  0.48155557606E-01 -0.66662860957E-01  0.94075620283E-01  0.51100000000E-03 0. -1.
         11    1    4    4    0    0  0.59618595194E-02  0.12605316573E-01 -0.42429873057E-01  0.44665344770E-01  0.51100000000E-03 0.  1.
</event>
<event>
 8    1  0.2924722E+004  0.1043930E+01  0.7957747E-01            NaN
         13   -1    0    0    0    0  0.00000000000E+00  0.00000000000E+00  0.74505805969E-08  0.10566000000E+00  0.10566000000E+00 0. -1.
     999900   -1    0    0    0    0 -0.00000000000E+00 -0.00000000000E+00 -0.74505805969E-08  0.93827000000E+00  0.93827000000E+00 0. -1.
     999902    2    1    2    0    0 -0.10525040370E-02 -0.58161363388E-02 -0.12562358485E-01  0.10300466266E+01  0.10299530596E+01 0.  0.
     999903    2    3    3    0    0 -0.96905979119E-01  0.37384680235E-01  0.80159309051E-01  0.13895094886E+00  0.45754434267E-01 0.  0.
         14    1    1    2    0    0  0.10525040370E-02  0.58161363388E-02  0.12562358485E-01  0.13883373415E-01  0.00000000000E+00 0. -1.
     999901    1    3    3    0    0  0.95853475082E-01 -0.43200816574E-01 -0.92721667536E-01  0.89109567773E+00  0.88000000000E+00 0. -1.
        -11    1    4    4    0    0 -0.79489507760E-01  0.11723659690E-01  0.45109705898E-01  0.92147559532E-01  0.51100000000E-03 0.  1.
         11    1    4    4    0    0 -0.17416471358E-01  0.25661020545E-01  0.35049603153E-01  0.46803389323E-01  0.51100000000E-03 0. -1.
</event>
<event>
 8    1  0.2924722E+004  0.1043930E+01  0.7957747E-01            NaN
         13   -1    0    0    0    0  0.00000000000E+00  0.00000000000E+00  0.74505805969E-08  0.10566000000E+00  0.10566000000E+00 0. -1.
     999900   -1    0    0    0    0 -0.00000000000E+00 -0.00000000000E+00 -0.74505805969E-08  0.93827000000E+00  0.93827000000E+00 0.  1.
     999902    2    1    2    0    0  0.19158859525E-02 -0.36475865016E-02  0.14257891054E-01  0.10290887412E+01  0.10289817172E+01 0.  0.
     999903    2    3    3    0    0 -0.62775109806E-01  0.10426993386E+00  0.50969313049E-01  0.13938157326E+00  0.44904549586E-01 0.  0.
         14    1    1    2    0    0 -0.19158859525E-02  0.36475865016E-02 -0.14257891054E-01  0.14841258828E-01  0.00000000000E+00 0.  1.
     999901    1    3    3    0    0  0.64690995758E-01 -0.10791752036E+00 -0.36711421994E-01  0.88970716791E+00  0.88000000000E+00 0. -1.
        -11    1    4    4    0    0 -0.51060358108E-01  0.74576029220E-01  0.15572271493E-01  0.91714235889E-01  0.51100000000E-03 0.  1.
         11    1    4    4    0    0 -0.11714751697E-01  0.29693904638E-01  0.35397041555E-01  0.47667337369E-01  0.51100000000E-03 0. -1.
</event>
<event>
 8    1  0.2924722E+004  0.1043930E+01  0.7957747E-01            NaN
         13   -1    0    0    0    0  0.00000000000E+00  0.00000000000E+00  0.74505805969E-08  0.10566000000E+00  0.10566000000E+00 0.  1.
     999900   -1    0    0    0    0 -0.00000000000E+00 -0.00000000000E+00 -0.74505805969E-08  0.93827000000E+00  0.93827000000E+00 0.  1.
     999902    2    1    2    0    0 -0.48963139285E-02 -0.76556660073E-02  0.11743282823E-01  0.10290811683E+01  0.10289740342E+01 0.  0.
     999903    2    3    3    0    0  0.12527106640E+00 -0.36460560815E-01  0.21287551753E-02  0.13898807876E+00  0.47863784505E-01 0.  0.
         14    1    1    2    0    0  0.48963139285E-02  0.76556660073E-02 -0.11743282823E-01  0.14848831724E-01  0.00000000000E+00 0. -1.
     999901    1    3    3    0    0 -0.13016738033E+00  0.28804894808E-01  0.96145276481E-02  0.89009308952E+00  0.88000000000E+00 0.  1.
        -11    1    4    4    0    0  0.53085920487E-01  0.58281193090E-02  0.12021154019E-01  0.54743503666E-01  0.51100000000E-03 0.  1.
         11    1    4    4    0    0  0.72185145909E-01 -0.42288680124E-01 -0.98923988437E-02  0.84244575092E-01  0.51100000000E-03 0. -1.
</event>
<event>
 8    1  0.2924722E+004  0.1043930E+01  0.7957747E-01            NaN
         13   -1    0    0    0    0  0.00000000000E+00  0.00000000000E+00  0.74505805969E-08  0.10566000000E+00  0.10566000000E+00 0.  1.
     999900   -1    0    0    0    0 -0.00000000000E+00 -0.00000000000E+00 -0.74505805969E-08  0.93827000000E+00  0.93827000000E+00 0.  1.
     999902    2    1    2    0    0 -0.12463138045E-01 -0.58885199962E-02 -0.14133771872E-03  0.10301450642E+01  0.10300528282E+01 0.  0.
     999903    2    3    3    0    0  0.12453790816E+00 -0.38425924776E-01  0.13839311977E-01  0.13884072343E+00  0.45814600979E-01 0.  0.
         14    1    1    2    0    0  0.12463138045E-01  0.58885199962E-02  0.14133771872E-03  0.13784935765E-01  0.00000000000E+00 0.  1.
     999901    1    3    3    0    0 -0.13700104621E+00  0.32537404780E-01 -0.13980649695E-01  0.89130434080E+00  0.88000000000E+00 0. -1.
        -11    1    4    4    0    0  0.76631486339E-01 -0.45094659945E-01  0.16337814221E-01  0.90405189833E-01  0.51100000000E-03 0.  1.
         11    1    4    4    0    0  0.47906421821E-01  0.66687351692E-02 -0.24985022442E-02  0.48435533598E-01  0.51100000000E-03 0. -1.
</event>
<event>
 8    1  0.2924722E+004  0.1043930E+01  0.7957747E-01            NaN
         13   -1    0    0    0    0  0.00000000000E+00  0.00000000000E+00  0.74505805969E-08  0.10566000000E+00  0.10566000000E+00 0. -1.
     999900   -1    0    0    0    0 -0.00000000000E+00 -0.00000000000E+00 -0.74505805969E-08  0.93827000000E+00  0.93827000000E+00 0.  1.
     999902    2    1    2    0    0 -0.18046336203E-04 -0.12830445538E-01 -0.41830163389E-02  0.10304348792E+01  0.10303465058E+01 0.  0.
     999903    2    3    3    0    0 -0.59150797598E-01 -0.15479126048E-01 -0.11894364074E+00  0.14101163990E+00  0.44702043739E-01 0.  0.
         14    1    1    2    0    0  0.18046336203E-04  0.12830445538E-01  0.41830163389E-02  0.13495120751E-01  0.00000000000E+00 0. -1.
     999901    1    3    3    0    0  0.59132751262E-01  0.26486805097E-02  0.11476062440E+00  0.88942323935E+00  0.88000000000E+00 0. -1.
        -11    1    4    4    0    0 -0.20472451072E-01 -0.27504697614E-01 -0.43604557745E-01  0.55472950353E-01  0.51100000000E-03 0.  1.
         11    1    4    4    0    0 -0.38678346526E-01  0.12025571566E-01 -0.75339082998E-01  0.85538689548E-01  0.51100000000E-03 0. -1.
</event>
<event>
 8    1  0.2924722E+004  0.1043930E+01  0.7957747E-01            NaN
         13   -1    0    0    0    0  0.00000000000E+00  0.00000000000E+00  0.74505805969E-08  0.10566000000E+00  0.10566000000E+00 0. -1.
     999900   -1    0    0    0    0 -0.00000000000E+00 -0.00000000000E+00 -0.74505805969E-08  0.93827000000E+00  0.93827000000E+00 0. -1.
     999902    2    1    2    0    0  0.13430617098E-01 -0.46163362590E-02 -0.38905020379E-02  0.10292049179E+01  0.10290995749E+01 0.  0.
     999903    2    3    3    0    0  0.92479332281E-01 -0.67708850212E-01 -0.75465152284E-01  0.14052483193E+00  0.30254320059E-01 0.  0.
         14    1    1    2    0    0 -0.13430617098E-01  0.46163362590E-02  0.38905020379E-02  0.14725082078E-01  0.00000000000E+00 0.  1.
     999901    1    3    3    0    0 -0.79048715183E-01  0.63092513953E-01  0.71574650247E-01  0.88868008600E+00  0.88000000000E+00 0. -1.
        -11    1    4    4    0    0  0.49698877491E-01 -0.33847045534E-01 -0.21711217953E-01  0.63931518215E-01  0.51100000000E-03 0. -1.
         11    1    4    4    0    0  0.42780454790E-01 -0.33861804678E-01 -0.53753934331E-01  0.76593313710E-01  0.51100000000E-03 0.  1.
</event>
<event>
 8    1  0.2924722E+004  0.1043930E+01  0.7957747E-01            NaN
         13   -1    0    0    0    0  0.00000000000E+00  0.00000000000E+00  0.74505805969E-08  0.10566000000E+00  0.10566000000E+00 0.  1.
     999900   -1    0    0    0    0 -0.00000000000E+00 -0.00000000000E+00 -0.74505805969E-08  0.93827000000E+00  0.93827000000E+00 0. -1.
     999902    2    1    2    0    0  0.12032108001E-02  0.12312623464E-01 -0.65468654046E-02  0.10299332197E+01  0.10298381072E+01 0.  0.
     999903    2    3    3    0    0 -0.28692957012E-01  0.12807698867E+00  0.21712229198E-01  0.14139861398E+00  0.47907685492E-01 0.  0.
         14    1    1    2    0    0 -0.12032108001E-02 -0.12312623464E-01  0.65468654046E-02  0.13996780323E-01  0.00000000000E+00 0.  1.
     999901    1    3    3    0    0  0.29896167812E-01 -0.11576436520E+00 -0.28259094602E-01  0.88853460570E+00  0.88000000000E+00 0. -1.
        -11    1    4    4    0    0 -0.31961378331E-01  0.89514585682E-01  0.33751502170E-01  0.10086533485E+00  0.51100000000E-03 0.  1.
         11    1    4    4    0    0  0.32684213190E-02  0.38562402986E-01 -0.12039272973E-01  0.40533279126E-01  0.51100000000E-03 0. -1.
</event>
<event>
 8    1  0.2924722E+004  0.1043930E+01  0.7957747E-01            NaN
         13   -1    0    0    0    0  0.00000000000E+00  0.00000000000E+00  0.74505805969E-08  0.10566000000E+00  0.10566000000E+00 0. -1.
     999900   -1    0    0    0    0 -0.00000000000E+00 -0.00000000000E+00 -0.74505805969E-08  0.93827000000E+00  0.93827000000E+00 0.  1.
     999902    2    1    2    0    0 -0.34488163092E-02  0.11371469447E-01  0.91295629415E-02  0.10289448884E+01  0.10288357642E+01 0.  0.
     999903    2    3    3    0    0 -0.34943562928E-01  0.53498570988E-01  0.11685281806E+00  0.14081713210E+00  0.45735477662E-01 0.  0.
         14    1    1    2    0    0  0.34488163092E-02 -0.11371469447E-01 -0.91295629415E-02  0.14985111639E-01  0.00000000000E+00 0.  1.
     999901    1    3    3    0    0  0.31494746619E-01 -0.42127101541E-01 -0.10772325512E+00  0.88812775626E+00  0.88000000000E+00 0.  1.
        -11    1    4    4    0    0 -0.22729851430E-01  0.60795882056E-02  0.66664848600E-01  0.70697034582E-01  0.51100000000E-03 0.  1.
         11    1    4    4    0    0 -0.12213711498E-01  0.47418982782E-01  0.50187969458E-01  0.70120097518E-01  0.51100000000E-03 0. -1.
</event>
<event>
 8    1  0.2924722E+004  0.1043930E+01  0.7957747E-01            NaN
         13   -1    0    0    0    0  0.00000000000E+00  0.00000000000E+00  0.74505805969E-08  0.10566000000E+00  0.10566000000E+00 0. -1.
     999900   -1    0    0    0    0 -0.00000000000E+00 -0.00000000000E+00 -0.74505805969E-08  0.93827000000E+00  0.93827000000E+00 0.  1.
     999902    2    1    2    0    0  0.15963144176E-02  0.12997001570E-01 -0.18821612145E-02  0.10307007596E+01  0.10306158562E+01 0.  0.
     999903    2    3    3    0    0 -0.70669271176E-01 -0.11053723503E+00  0.97533776894E-02  0.13906271187E+00  0.45063102869E-01 0.  0.
         14    1    1    2    0    0 -0.15963144176E-02 -0.12997001570E-01  0.18821612145E-02  0.13229240355E-01  0.00000000000E+00 0. -1.
     999901    1    3    3    0    0  0.72265585594E-01  0.12353423660E+00 -0.11635538904E-01  0.89163804777E+00  0.88000000000E+00 0. -1.
        -11    1    4    4    0    0 -0.34537319387E-01 -0.32031152307E-01 -0.14522117195E-01  0.49294768053E-01  0.51100000000E-03 0. -1.
         11    1    4    4    0    0 -0.36131951789E-01 -0.78506082722E-01  0.24275494885E-01  0.89767943818E-01  0.51100000000E-03 0.  1.
</event>
<event>
 8    1  0.2924722E+004  0.1043930E+01  0.7957747E-01            NaN
         13   -1    0    0    0    0  0.00000000000E+00  0.00000000000E+00  0.74505805969E-08  0.10566000000E+00  0.10566000000E+00 0. -1.
     999900   -1    0    0    0    0 -0.00000000000E+00 -0.00000000000E+00 -0.74505805969E-08  0.93827000000E+00  0.93827000000E+00 0.  1.
     999902    2    1    2    0    0  0.56476339994E-02  0.41303624209E-02 -0.11222322206E-01  0.10307051681E+01  0.10306203216E+01 0.  0.
     999903    2    3    3    0    0 -0.53415838157E-01  0.47149690430E-01  0.11051744160E+00  0.13932437043E+00  0.46052472528E-01 0.  0.
         14    1    1    2    0    0 -0.56476339994E-02 -0.41303624209E-02  0.11222322206E-01  0.13224831917E-01  0.00000000000E+00 0. -1.
     999901    1    3    3    0    0  0.59063472156E-01 -0.43019328009E-01 -0.12173976380E+00  0.89138079765E+00  0.88000000000E+00 0.  1.
        -11    1    4    4    0    0 -0.56821333370E-01  0.43236363687E-01  0.75481126770E-01  0.10390239983E+00  0.51100000000E-03 0.  1.
         11    1    4    4    0    0  0.34054952130E-02  0.39133267432E-02  0.35036314828E-01  0.35421970605E-01  0.51100000000E-03 0. -1.
</event>
<event>
 8    1  0.2924722E+004  0.1043930E+01  0.7957747E-01            NaN
         13   -1    0    0    0    0  0.00000000000E+00  0.00000000000E+00  0.74505805969E-08  0.10566000000E+00  0.10566000000E+00 0.  1.
     999900   -1    0    0    0    0 -0.00000000000E+00 -0.00000000000E+00 -0.74505805969E-08  0.93827000000E+00  0.93827000000E+00 0. -1.
     999902    2    1    2    0    0 -0.93369537083E-02  0.95628158510E-02  0.40719531200E-02  0.10299583518E+01  0.10298635829E+01 0.  0.
     999903    2    3    3    0    0 -0.10224008504E+00 -0.79772129643E-01 -0.27497791811E-01  0.14000982907E+00  0.45055477195E-01 0.  0.
         14    1    1    2    0    0  0.93369537083E-02 -0.95628158510E-02 -0.40719531200E-02  0.13971648212E-01  0.00000000000E+00 0. -1.
     999901    1    3    3    0    0  0.92903131327E-01  0.89334945494E-01  0.31569744931E-01  0.88994852272E+00  0.88000000000E+00 0. -1.
        -11    1    4    4    0    0 -0.35296803635E-01 -0.53507527552E-02 -0.16417550306E-01  0.39297480593E-01  0.51100000000E-03 0. -1.
         11    1    4    4    0    0 -0.66943281400E-01 -0.74421376888E-01 -0.11080241506E-01  0.10071234847E+00  0.51100000000E-03 0.  1.
</event>
<event>
 8    1  0.2924722E+004  0.1043930E+01  0.7957747E-01            NaN
         13   -1    0    0    0    0  0.00000000000E+00  0.00000000000E+00  0.74505805969E-08  0.10566000000E+00  0.10566000000E+00 0.  1.
     999900   -1    0    0    0    0 -0.00000000000E+00 -0.00000000000E+00 -0.74505805969E-08  0.93827000000E+00  0.93827000000E+00 0.  1.
     999902    2    1    2    0    0  0.11326421490E-01  0.80044080210E-02  0.22265872288E-02  0.10298830764E+01  0.10297872766E+01 0.  0.
     999903    2    3    3    0    0  0.13091976180E+00  0.27122440267E-01  0.16642783064E-02  0.14158786513E+00  0.46569764163E-01 0.  0.
         14    1    1    2    0    0 -0.11326421490E-01 -0.80044080210E-02 -0.22265872288E-02  0.14046923586E-01  0.00000000000E+00 0.  1.
     999901    1    3    3    0    0 -0.11959334031E+00 -0.19118032246E-01  0.56230892245E-03  0.88829521129E+00  0.88000000000E+00 0.  1.
        -11    1    4    4    0    0  0.83245246854E-02  0.62694776437E-02  0.13052611176E-01  0.16710351303E-01  0.51100000000E-03 0. -1.
         11    1    4    4    0    0  0.12259523711E+00  0.20852962623E-01 -0.11388332869E-01  0.12487751383E+00  0.51100000000E-03 0.  1.
</event>
<event>
 8    1  0.2924722E+004  0.1043930E+01  0.7957747E-01            NaN
         13   -1    0    0    0    0  0.00000000000E+00  0.00000000000E+00  0.74505805969E-08  0.10566000000E+00  0.10566000000E+00 0. -1.
     999900   -1    0    0    0    0 -0.00000000000E+00 -0.00000000000E+00 -0.74505805969E-08  0.93827000000E+00  0.93827000000E+00 0.  1.
     999902    2    1    2    0    0 -0.26204718996E-02 -0.10430669515E-01 -0.93958127656E-02  0.10296489973E+01  0.10295499554E+01 0.  0.
     999903    2    3    3    0    0  0.11875911707E+00  0.56385211080E-01 -0.31387619219E-02  0.13878620364E+00  0.44370469653E-01 0.  0.
         14    1    1    2    0    0  0.26204718996E-02  0.10430669515E-01  0.93958127656E-02  0.14281002662E-01  0.00000000000E+00 0. -1.
     999901    1    3    3    0    0 -0.12137958897E+00 -0.66815880595E-01 -0.62570508438E-02  0.89086279370E+00  0.88000000000E+00 0. -1.
        -11    1    4    4    0    0  0.69062957591E-01  0.12890329995E-01  0.11359367678E-01  0.71169860711E-01  0.51100000000E-03 0. -1.
         11    1    4    4    0    0  0.49696159480E-01  0.43494881085E-01 -0.14498129600E-01  0.67616342925E-01  0.51100000000E-03 0.  1.
</event>
<event>
 8    1  0.2924722E+004  0.1043930E+01  0.7957747E-01            NaN
         13   -1    0    0    0    0  0.00000000000E+00  0.00000000000E+00  0.74505805969E-08  0.10566000000E+00  0.10566000000E+00 0.  1.
     999900   -1    0    0    0    0 -0.00000000000E+00 -0.00000000000E+00 -0.74505805969E-08  0.93827000000E+00  0.93827000000E+00 0.  1.
     999902    2    1    2    0    0 -0.82095475325E-02 -0.10426147626E-01  0.26688128963E-02  0.10303939819E+01  0.10303050684E+01 0.  0.
     999903    2    3    3    0    0  0.48363816349E-01  0.10384698790E+00  0.64592414639E-01  0.13905037389E+00  0.45161607839E-01 0.  0.
         14    1    1    2    0    0  0.82095475325E-02  0.10426147626E-01 -0.26688128963E-02  0.13536018147E-01  0.00000000000E+00 0.  1.
     999901    1    3    3    0    0 -0.56573363882E-01 -0.11427313552E+00 -0.61923601743E-01  0.89134360796E+00  0.88000000000E+00 0.  1.
        -11    1    4    4    0    0  0.42707341276E-01  0.74469277550E-01  0.24982308962E-01  0.89408988249E-01  0.51100000000E-03 0.  1.
         11    1    4    4    0    0  0.56564750733E-02  0.29377710349E-01  0.39610105677E-01  0.49641385641E-01  0.51100000000E-03 0. -1.
</event>
<event>
 8    1  0.2924722E+004  0.1043930E+01  0.7957747E-01            NaN
         13   -1    0    0    0    0  0.00000000000E+00  0.00000000000E+00  0.74505805969E-08  0.10566000000E+00  0.10566000000E+00 0.  1.
     999900   -1    0    0    0    0 -0.00000000000E+00 -0.00000000000E+00 -0.74505805969E-08  0.93827000000E+00  0.93827000000E+00 0. -1.
     999902    2    1    2    0    0  0.10685783133E-02  0.10075113821E-01 -0.10026942163E-01  0.10296755499E+01  0.10295768785E+01 0.  0.
     999903    2    3    3    0    0  0.13205134654E+00  0.63112330425E-02 -0.10555532865E-01  0.13997282890E+00  0.44761409402E-01 0.  0.
         14    1    1    2    0    0 -0.10685783133E-02 -0.10075113821E-01  0.10026942163E-01  0.14254450087E-01  0.00000000000E+00 0.  1.
     999901    1    3    3    0    0 -0.13098276822E+00  0.37638807788E-02  0.52859070144E-03  0.88970272101E+00  0.88000000000E+00 0. -1.
        -11    1    4    4    0    0  0.22530292225E-01  0.47670927406E-02  0.15012665805E-01  0.27495099500E-01  0.51100000000E-03 0. -1.
         11    1    4    4    0    0  0.10952105431E+00  0.15441403019E-02 -0.25568198670E-01  0.11247772940E+00  0.51100000000E-03 0.  1.
</event>
<event>
 8    1  0.2924722E+004  0.1043930E+01  0.7957747E-01            NaN
         13   -1    0    0    0    0  0.00000000000E+00  0.00000000000E+00  0.74505805969E-08  0.10566000000E+00  0.10566000000E+00 0.  1.
     999900   -1    0    0    0    0 -0.00000000000E+00 -0.00000000000E+00 -0.74505805969E-08  0.93827000000E+00  0.93827000000E+00 0. -1.
     999902    2    1    2    0    0  0.60858960149E-02  0.75733246257E-02 -0.91711672623E-02  0.10305694729E+01  0.10304828648E+01 0.  0.
     999903    2    3    3    0    0  0.82200885053E-01  0.85524612078E-01 -0.64727618166E-01  0.14211215031E+00  0.43985837931E-01 0.  0.
         14    1    1    2    0    0 -0.60858960149E-02 -0.75733246257E-02  0.91711672623E-02  0.13360527128E-01  0.00000000000E+00 0.  1.
     999901    1    3    3    0    0 -0.76114989038E-01 -0.77951287453E-01  0.55556450904E-01  0.88845732256E+00  0.88000000000E+00 0.  1.
        -11    1    4    4    0    0  0.34543067936E-01  0.20405676458E-01 -0.24858112895E-02  0.40200193443E-01  0.51100000000E-03 0.  1.
         11    1    4    4    0    0  0.47657817117E-01  0.65118935620E-01 -0.62241806877E-01  0.10191195687E+00  0.51100000000E-03 0. -1.
</event>
<event>
 8    1  0.2924722E+004  0.1043930E+01  0.7957747E-01            NaN
         13   -1    0    0    0    0  0.00000000000E+00  0.00000000000E+00  0.74505805969E-08  0.10566000000E+00  0.10566000000E+00 0.  1.
     999900   -1    0    0    0    0 -0.00000000000E+00 -0.00000000000E+00 -0.74505805969E-08  0.93827000000E+00  0.93827000000E+00 0.  1.
     999902    2    1    2    0    0  0.31663347264E-02 -0.60288500213E-02 -0.12851569016E-01  0.10293857388E+01  0.10292829852E+01 0.  0.
     999903    2    3    3    0    0  0.24273664706E-01 -0.27560131659E-01 -0.12853717733E+00  0.14130225428E+00  0.45779356209E-01 0.  0.
         14    1    1    2    0    0 -0.31663347264E-02  0.60288500213E-02  0.12851569016E-01  0.14544261217E-01  0.00000000000E+00 0.  1.
     999901    1    3    3    0    0 -0.21107329980E-01  0.21531281638E-01  0.11568560831E+00  0.88808348450E+00  0.88000000000E+00 0. -1.
        -11    1    4    4    0    0  0.35470267912E-01 -0.84598586846E-02 -0.76463448927E-01  0.84714988388E-01  0.51100000000E-03 0. -1.
         11    1    4    4    0    0 -0.11196603205E-01 -0.19100272975E-01 -0.52073728401E-01  0.56587265896E-01  0.51100000000E-03 0.  1.
</event>
<event>
 8    1  0.2924722E+004  0.1043930E+01  0.7957747E-01            NaN
         13   -1    0    0    0    0  0.00000000000E+00  0.00000000000E+00  0.74505805969E-08  0.10566000000E+00  0.10566000000E+00 0.  1.
     999900   -1    0    0    0    0 -0.00000000000E+00 -0.00000000000E+00 -0.74505805969E-08  0.93827000000E+00  0.93827000000E+00 0.  1.
     999902    2    1    2    0    0  0.35940468633E-02  0.73595222773E-03  0.14102322216E-01  0.10293583052E+01  0.10292551608E+01 0.  0.
     999903    2    3    3    0    0 -0.36915222052E-01  0.88601150172E-01  0.92316538635E-01  0.14060707027E+00  0.45112165464E-01 0.  0.
         14    1    1    2    0    0 -0.35940468633E-02 -0.73595222773E-03 -0.14102322216E-01  0.14571694837E-01  0.00000000000E+00 0. -1.
     999901    1    3    3    0    0  0.40509268915E-01 -0.87865197944E-01 -0.78214216420E-01  0.88875123490E+00  0.88000000000E+00 0.  1.
        -11    1    4    4    0    0 -0.29965203267E-01  0.18193377285E-01  0.35159562004E-01  0.49652475318E-01  0.51100000000E-03 0. -1.
         11    1    4    4    0    0 -0.69500187855E-02  0.70407772887E-01  0.57156976631E-01  0.90954594951E-01  0.51100000000E-03 0.  1.
</event>
<event>
 8    1  0.2924722E+004  0.1043930E+01  0.7957747E-01            NaN
         13   -1    0    0    0    0  0.00000000000E+00  0.00000000000E+00  0.74505805969E-08  0.10566000000E+00  0.10566000000E+00 0.  1.
     999900   -1    0    0    0    0 -0.00000000000E+00 -0.00000000000E+00 -0.74505805969E-08  0.93827000000E+00  0.93827000000E+00 0.  1.
     999902    2    1    2    0    0  0.12177475828E-01  0.72633974613E-02 -0.22459768249E-01  0.10173689562E+01  0.10170221747E+01 0.  0.
     999903    2    3    3    0    0  0.45765466391E-01  0.91413594528E-01 -0.75900462115E-01  0.13110414441E+00  0.31248893649E-01 0.  0.
         14    1    1    2    0    0 -0.12177475828E-01 -0.72633974613E-02  0.22459768249E-01  0.26561043843E-01  0.00000000000E+00 0.  1.
     999901    1    3    3    0    0 -0.33587990564E-01 -0.84150197067E-01  0.53440693866E-01  0.88626481174E+00  0.88000000000E+00 0. -1.
        -11    1    4    4    0    0  0.30344089554E-01  0.69565222458E-01 -0.70963900651E-01  0.10390486160E+00  0.51100000000E-03 0. -1.
         11    1    4    4    0    0  0.15421376837E-01  0.21848372071E-01 -0.49365614631E-02  0.27199282817E-01  0.51100000000E-03 0.  1.
</event>
<event>
 8    1  0.2924722E+004  0.1043930E+01  0.7957747E-01            NaN
         13   -1    0    0    0    0  0.00000000000E+00  0.00000000000E+00  0.74505805969E-08  0.10566000000E+00  0.10566000000E+00 0. -1.
     999900   -1    0    0    0    0 -0.00000000000E+00 -0.00000000000E+00 -0.74505805969E-08  0.93827000000E+00  0.93827000000E+00 0. -1.
     999902    2    1    2    0    0  0.10920698151E-01 -0.16743690686E-02  0.84153441499E-02  0.10300417612E+01  0.10299481281E+01 0.  0.
     999903    2    3    3    0    0 -0.89814947853E-01  0.95890703894E-01 -0.10673619196E-01  0.13873317134E+00  0.43257539588E-01 0.  0.
         14    1    1    2    0    0 -0.10920698151E-01  0.16743690686E-02 -0.84153441499E-02  0.13888238803E-01  0.00000000000E+00 0. -1.
     999901    1    3    3    0    0  0.10073564600E+00 -0.97565072963E-01  0.19088963346E-01  0.89130858986E+00  0.88000000000E+00 0. -1.
        -11    1    4    4    0    0 -0.54661170548E-02  0.26676478975E-01  0.71880425828E-02  0.28168103297E-01  0.51100000000E-03 0.  1.
         11    1    4    4    0    0 -0.84348830798E-01  0.69214224919E-01 -0.17861661779E-01  0.11056506804E+00  0.51100000000E-03 0. -1.
</event>
<event>
 8    1  0.2924722E+004  0.1043930E+01  0.7957747E-01            NaN
         13   -1    0    0    0    0  0.00000000000E+00  0.00000000000E+00  0.74505805969E-08  0.10566000000E+00  0.10566000000E+00 0.  1.
     999900   -1    0    0    0    0 -0.00000000000E+00 -0.00000000000E+00 -0.74505805969E-08  0.93827000000E+00  0.93827000000E+00 0.  1.
     999902    2    1    2    0    0 -0.27479237592E-02  0.42259234335E-02 -0.12326321355E-01  0.10306128039E+01  0.10305267604E+01 0.  0.
     999903    2    3    3    0    0  0.88530928740E-01 -0.70962826314E-01  0.66824515845E-01  0.13918135279E+00  0.45083089773E-01 0.  0.
         14    1    1    2    0    0  0.27479237592E-02 -0.42259234335E-02  0.12326321355E-01  0.13317196102E-01  0.00000000000E+00 0.  1.
     999901    1    3    3    0    0 -0.91278852499E-01  0.75188749747E-01 -0.79150837200E-01  0.89143145111E+00  0.88000000000E+00 0. -1.
        -11    1    4    4    0    0  0.19022562978E-01 -0.21646996706E-01 -0.30346812889E-02  0.28981386788E-01  0.51100000000E-03 0.  1.
         11    1    4    4    0    0  0.69508365762E-01 -0.49315829608E-01  0.69859197134E-01  0.11019996600E+00  0.51100000000E-03 0. -1.
</event>
<event>
 8    1  0.2924722E+004  0.1043930E+01  0.7957747E-01            NaN
         13   -1    0    0    0    0  0.00000000000E+00  0.00000000000E+00  0.74505805969E-08  0.10566000000E+00  0.10566000000E+00 0. -1.
     999900   -1    0    0    0    0 -0.00000000000E+00 -0.00000000000E+00 -0.74505805969E-08  0.93827000000E+00  0.93827000000E+00 0. -1.
     999902    2    1    2    0    0 -0.17515730222E-02  0.34469443356E-02 -0.14319152029E-01  0.10290980228E+01  0.10289911336E+01 0.  0.
     999903    2    3    3    0    0  0.68885522340E-02  0.35354249396E-01 -0.12848185177E+00  0.14110824250E+00  0.45897437437E-01 0.  0.
         14    1    1    2    0    0  0.17515730222E-02 -0.34469443356E-02  0.14319152029E-01  0.14831977216E-01  0.00000000000E+00 0. -1.
     999901    1    3    3    0    0 -0.86401252562E-02 -0.31907305060E-01  0.11416269974E+00  0.88798978029E+00  0.88000000000E+00 0.  1.
        -11    1    4    4    0    0  0.54106954914E-02  0.16088283949E-01 -0.11781198776E+00  0.11902955132E+00  0.51100000000E-03 0.  1.
         11    1    4    4    0    0  0.14778567426E-02  0.19265965447E-01 -0.10669864015E-01  0.22078691181E-01  0.51100000000E-03 0. -1.
</event>
<event>
 8    1  0.2924722E+004  0.1043930E+01  0.7957747E-01            NaN
         13   -1    0    0    0    0  0.00000000000E+00  0.00000000000E+00  0.74505805969E-08  0.10566000000E+00  0.10566000000E+00 0. -1.
     999900   -1    0    0    0    0 -0.00000000000E+00 -0.00000000000E+00 -0.74505805969E-08  0.93827000000E+00  0.93827000000E+00 0. -1.
     999902    2    1    2    0    0  0.44539022260E-02  0.15945141793E-01 -0.83279392026E-02  0.10253978829E+01  0.10252304029E+01 0.  0.
     999903    2    3    3    0    0  0.75700312299E-01  0.52480405804E-01  0.89633021846E-01  0.13634938799E+00  0.45523035090E-01 0.  0.
         14    1    1    2    0    0 -0.44539022260E-02 -0.15945141793E-01  0.83279392026E-02  0.18532117073E-01  0.00000000000E+00 0. -1.
     999901    1    3    3    0    0 -0.71246410073E-01 -0.36535264011E-01 -0.97960961049E-01  0.88904849494E+00  0.88000000000E+00 0. -1.
        -11    1    4    4    0    0 -0.29663194325E-03  0.20099849427E-01  0.16259626522E-01  0.25859785636E-01  0.51100000000E-03 0. -1.
         11    1    4    4    0    0  0.75996944242E-01  0.32380556377E-01  0.73373395324E-01  0.11048960235E+00  0.51100000000E-03 0.  1.
</event>
<event>
 8    1  0.2924722E+004  0.1043930E+01  0.7957747E-01            NaN
         13   -1    0    0    0    0  0.00000000000E+00  0.00000000000E+00  0.74505805969E-08  0.10566000000E+00  0.10566000000E+00 0.  1.
     999900   -1    0    0    0    0 -0.00000000000E+00 -0.00000000000E+00 -0.74505805969E-08  0.93827000000E+00  0.93827000000E+00 0. -1.
     999902    2    1    2    0    0 -0.15204104266E-02  0.56416451555E-02  0.14152794116E-01  0.10286185210E+01  0.10285045553E+01 0.  0.
     999903    2    3    3    0    0  0.45919302482E-01  0.16783530312E-01  0.12449617218E+00  0.14038976159E+00  0.42658165006E-01 0.  0.
         14    1    1    2    0    0  0.15204104266E-02 -0.56416451555E-02 -0.14152794116E-01  0.15311479002E-01  0.00000000000E+00 0. -1.
     999901    1    3    3    0    0 -0.47439712909E-01 -0.11141885156E-01 -0.11034337806E+00  0.88822875941E+00  0.88000000000E+00 0. -1.
        -11    1    4    4    0    0  0.10092395235E-01  0.51012277331E-02  0.85177327461E-01  0.85926231154E-01  0.51100000000E-03 0. -1.
         11    1    4    4    0    0  0.35826907247E-01  0.11682302579E-01  0.39318844714E-01  0.54463530432E-01  0.51100000000E-03 0.  1.
</event>
<event>
 8    1  0.2924722E+004  0.1043930E+01  0.7957747E-01            NaN
         13   -1    0    0    0    0  0.00000000000E+00  0.00000000000E+00  0.74505805969E-08  0.10566000000E+00  0.10566000000E+00 0. -1.
     999900   -1    0    0    0    0 -0.00000000000E+00 -0.00000000000E+00 -0.74505805969E-08  0.93827000000E+00  0.93827000000E+00 0. -1.
     999902    2    1    2    0    0  0.21114551065E-02 -0.12239353226E-02 -0.12864348276E-01  0.10308361955E+01  0.10307530326E+01 0.  0.
     999903    2    3    3    0    0  0.12128378226E+00  0.33911157810E-01  0.43070097248E-01  0.14035027165E+00  0.44535862115E-01 0.  0.
         14    1    1    2    0    0 -0.21114551065E-02  0.12239353226E-02  0.12864348276E-01  0.13093804524E-01  0.00000000000E+00 0. -1.
     999901    1    3    3    0    0 -0.11917232715E+00 -0.35135093132E-01 -0.55934445524E-01  0.89048592382E+00  0.88000000000E+00 0. -1.
        -11    1    4    4    0    0  0.18310909226E-01  0.21949785455E-01  0.14037176297E-02  0.28623661932E-01  0.51100000000E-03 0.  1.
         11    1    4    4    0    0  0.10297287303E+00  0.11961372354E-01  0.41666379618E-01  0.11172660972E+00  0.51100000000E-03 0. -1.
</event>
<event>
 8    1  0.2924722E+004  0.1043930E+01  0.7957747E-01            NaN
         13   -1    0    0    0    0  0.00000000000E+00  0.00000000000E+00  0.74505805969E-08  0.10566000000E+00  0.10566000000E+00 0. -1.
     999900   -1    0    0    0    0 -0.00000000000E+00 -0.00000000000E+00 -0.74505805969E-08  0.93827000000E+00  0.93827000000E+00 0.  1.
     999902    2    1    2    0    0 -0.71641016604E-02 -0.63763626983E-02 -0.98047531042E-02  0.10302144782E+01  0.10301231750E+01 0.  0.
     999903    2    3    3    0    0  0.10004649824E+00  0.36924380582E-01  0.76791802721E-01  0.13843646181E+00  0.43531153243E-01 0.  0.
         14    1    1    2    0    0  0.71641016604E-02  0.63763626983E-02  0.98047531042E-02  0.13715521765E-01  0.00000000000E+00 0. -1.
     999901    1    3    3    0    0 -0.10721059990E+00 -0.43300743281E-01 -0.86596555825E-01  0.89177801643E+00  0.88000000000E+00 0.  1.
        -11    1    4    4    0    0  0.88069466446E-01  0.13907042064E-01  0.61486855469E-01  0.10830757709E+00  0.51100000000E-03 0.  1.
         11    1    4    4    0    0  0.11977031789E-01  0.23017338518E-01  0.15304947251E-01  0.30128884717E-01  0.51100000000E-03 0. -1.
</event>
<event>
 8    1  0.2924722E+004  0.1043930E+01  0.7957747E-01            NaN
         13   -1    0    0    0    0  0.00000000000E+00  0.00000000000E+00  0.74505805969E-08  0.10566000000E+00  0.10566000000E+00 0.  1.
     999900   -1    0    0    0    0 -0.00000000000E+00 -0.00000000000E+00 -0.74505805969E-08  0.93827000000E+00  0.93827000000E+00 0.  1.
     999902    2    1    2    0    0 -0.11088606943E-01 -0.76598073372E-02 -0.24678978164E-02  0.10302288916E+01  0.10301377814E+01 0.  0.
     999903    2    3    3    0    0  0.73225385646E-01 -0.10896106887E-01  0.10922725953E+00  0.13916484721E+00  0.44221920217E-01 0.  0.
         14    1    1    2    0    0  0.11088606943E-01  0.76598073372E-02  0.24678978164E-02  0.13701108423E-01  0.00000000000E+00 0.  1.
     999901    1    3    3    0    0 -0.84313992589E-01  0.32362995501E-02 -0.11169515735E+00  0.89106404436E+00  0.88000000000E+00 0.  1.
        -11    1    4    4    0    0  0.66401547992E-01  0.65327933651E-02  0.92520916242E-01  0.11407113582E+00  0.51100000000E-03 0.  1.
         11    1    4    4    0    0  0.68238376541E-02 -0.17428900252E-01  0.16706343287E-01  0.25093711391E-01  0.51100000000E-03 0. -1.
</event>
<event>
 8    1  0.2924722E+004  0.1043930E+01  0.7957747E-01            NaN
         13   -1    0    0    0    0  0.00000000000E+00  0.00000000000E+00  0.74505805969E-08  0.10566000000E+00  0.10566000000E+00 0.  1.
     999900   -1    0    0    0    0 -0.00000000000E+00 -0.00000000000E+00 -0.74505805969E-08  0.93827000000E+00  0.93827000000E+00 0. -1.
     999902    2    1    2    0    0 -0.58246826320E-02 -0.97302738987E-02 -0.88114428393E-02  0.10295687089E+01  0.10294685423E+01 0.  0.
     999903    2    3    3    0    0 -0.67458913660E-01 -0.34188122219E-01 -0.11021548178E+00  0.14126710250E+00  0.45710054599E-01 0.  0.
         14    1    1    2    0    0  0.58246826320E-02  0.97302738987E-02  0.88114428393E-02  0.14361291126E-01  0.00000000000E+00 0.  1.
     999901    1    3    3    0    0  0.61634231028E-01  0.24457848320E-01  0.10140403894E+00  0.88830160638E+00  0.88000000000E+00 0.  1.
        -11    1    4    4    0    0 -0.32351893949E-01 -0.81022927822E-03 -0.17834093825E-01  0.36954262774E-01  0.51100000000E-03 0.  1.
         11    1    4    4    0    0 -0.35107019711E-01 -0.33377892940E-01 -0.92381387952E-01  0.10431283972E+00  0.51100000000E-03 0. -1.
</event>
<event>
 8    1  0.2924722E+004  0.1043930E+01  0.7957747E-01            NaN
         13   -1    0    0    0    0  0.00000000000E+00  0.00000000000E+00  0.74505805969E-08  0.10566000000E+00  0.10566000000E+00 0. -1.
     999900   -1    0    0    0    0 -0.00000000000E+00 -0.00000000000E+00 -0.74505805969E-08  0.93827000000E+00  0.93827000000E+00 0.  1.
     999902    2    1    2    0    0  0.12144506072E-01 -0.64403358891E-02 -0.36983223458E-02  0.10296946727E+01  0.10295962677E+01 0.  0.
     999903    2    3    3    0    0 -0.41442085510E-01 -0.11581512279E-01  0.12424695743E+00  0.13881423794E+00  0.44502902672E-01 0.  0.
         14    1    1    2    0    0 -0.12144506072E-01  0.64403358891E-02  0.36983223458E-02  0.14235327262E-01  0.00000000000E+00 0.  1.
     999901    1    3    3    0    0  0.53586591582E-01  0.51411763898E-02 -0.12794527977E+00  0.89088043480E+00  0.88000000000E+00 0.  1.
        -11    1    4    4    0    0 -0.29464264722E-01 -0.23991382720E-01  0.51222037935E-01  0.63778426068E-01  0.51100000000E-03 0. -1.
         11    1    4    4    0    0 -0.11977820787E-01  0.12409870441E-01  0.73024919492E-01  0.75035811870E-01  0.51100000000E-03 0.  1.
</event>
<event>
 8    1  0.2924722E+004  0.1043930E+01  0.7957747E-01            NaN
         13   -1    0    0    0    0  0.00000000000E+00  0.00000000000E+00  0.74505805969E-08  0.10566000000E+00  0.10566000000E+00 0. -1.
     999900   -1    0    0    0    0 -0.00000000000E+00 -0.00000000000E+00 -0.74505805969E-08  0.93827000000E+00  0.93827000000E+00 0.  1.
     999902    2    1    2    0    0  0.67734968595E-02  0.40936537956E-02 -0.94197096648E-02  0.10316267813E+01  0.10315534143E+01 0.  0.
     999903    2    3    3    0    0  0.42416185311E-02  0.11263845795E+00  0.70833840225E-01  0.14132963020E+00  0.47447001131E-01 0.  0.
         14    1    1    2    0    0 -0.67734968595E-02 -0.40936537956E-02  0.94197096648E-02  0.12303218736E-01  0.00000000000E+00 0.  1.
     999901    1    3    3    0    0  0.25318783284E-02 -0.10854480415E+00 -0.80253549890E-01  0.89029715106E+00  0.88000000000E+00 0.  1.
        -11    1    4    4    0    0  0.19881248628E-01  0.90932127234E-01  0.66079332848E-01  0.11415189513E+00  0.51100000000E-03 0. -1.
         11    1    4    4    0    0 -0.15639630097E-01  0.21706330712E-01  0.47545073770E-02  0.27177735077E-01  0.51100000000E-03 0.  1.
</event>
<event>
 8    1  0.2924722E+004  0.1043930E+01  0.7957747E-01            NaN
         13   -1    0    0    0    0  0.00000000000E+00  0.00000000000E+00  0.74505805969E-08  0.10566000000E+00  0.10566000000E+00 0. -1.
     999900   -1    0    0    0    0 -0.00000000000E+00 -0.00000000000E+00 -0.74505805969E-08  0.93827000000E+00  0.93827000000E+00 0. -1.
     999902    2    1    2    0    0 -0.91554650001E-02 -0.51256022825E-02  0.90441495149E-02  0.10300775281E+01  0.10299843799E+01 0.  0.
     999903    2    3    3    0    0 -0.11075707701E+00  0.28554526877E-02 -0.73513967629E-01  0.14035710709E+00  0.44950309870E-01 0.  0.
         14    1    1    2    0    0  0.91554650001E-02  0.51256022825E-02 -0.90441495149E-02  0.13852471930E-01  0.00000000000E+00 0.  1.
     999901    1    3    3    0    0  0.10160161201E+00 -0.79810549701E-02  0.82558117144E-01  0.88972042098E+00  0.88000000000E+00 0.  1.
        -11    1    4    4    0    0 -0.40334376862E-01  0.21822210008E-01 -0.20747346711E-01  0.50336709498E-01  0.51100000000E-03 0.  1.
         11    1    4    4    0    0 -0.70422700143E-01 -0.18966757320E-01 -0.52766620918E-01  0.90020397593E-01  0.51100000000E-03 0. -1.
</event>
<event>
 7    1  0.2924722E+004  0.1043930E+01  0.7957747E-01            NaN
         13   -1    0    0    0    0  0.00000000000E+00  0.00000000000E+00  0.74505805969E-08  0.10566000000E+00  0.10566000000E+00 0. -1.
     999900   -1    0    0    0    0 -0.00000000000E+00 -0.00000000000E+00 -0.74505805969E-08  0.93827000000E+00  0.93827000000E+00 0.  1.
     999902    2    1    2    0    0  0.77529106241E-02 -0.10630834816E-01 -0.60180652251E-02  0.10294614347E+01  0.10293597555E+01 0.  0.
         14    1    1    2    0    0 -0.77529106241E-02  0.10630834816E-01  0.60180652251E-02  0.14468565274E-01  0.00000000000E+00 0.  1.
     999901    1    3    3    0    0 -0.10044009428E+00  0.91106618231E-02 -0.86423215830E-01  0.88996639764E+00  0.88000000000E+00 0. -1.
        -11    1    3    3    0    0  0.35978593350E-01 -0.81764355967E-02  0.10598069800E-01  0.38391320412E-01  0.51100000000E-03 0.  1.
         11    1    3    3    0    0  0.72214411557E-01 -0.11565061042E-01  0.69807080805E-01  0.10110371667E+00  0.51100000000E-03 0. -1.
</event>
<event>
 8    1  0.2924722E+004  0.1043930E+01  0.7957747E-01            NaN
         13   -1    0    0    0    0  0.00000000000E+00  0.00000000000E+00  0.74505805969E-08  0.10566000000E+00  0.10566000000E+00 0.  1.
     999900   -1    0    0    0    0 -0.00000000000E+00 -0.00000000000E+00 -0.74505805969E-08  0.93827000000E+00  0.93827000000E+00 0.  1.
     999902    2    1    2    0    0 -0.31359031576E-02 -0.79773471185E-02  0.11375826277E-01  0.10296863565E+01  0.10295878357E+01 0.  0.
     999903    2    3    3    0    0 -0.13049189260E+00 -0.21613723553E-01  0.42726219482E-02  0.14038553324E+00  0.46846083751E-01 0.  0.
         14    1    1    2    0    0  0.31359031576E-02  0.79773471185E-02 -0.11375826277E-01  0.14243643464E-01  0.00000000000E+00 0. -1.
     999901    1    3    3    0    0  0.12735598945E+00  0.13636376434E-01  0.71032043286E-02  0.88930082330E+00  0.88000000000E+00 0.  1.
        -11    1    4    4    0    0 -0.62737923727E-01  0.73560281002E-02 -0.13470946538E-01  0.64590136589E-01  0.51100000000E-03 0. -1.
         11    1    4    4    0    0 -0.67753968876E-01 -0.28969751653E-01  0.17743568486E-01  0.75795396647E-01  0.51100000000E-03 0.  1.
</event>
<event>
 8    1  0.2924722E+004  0.1043930E+01  0.7957747E-01            NaN
         13   -1    0    0    0    0  0.00000000000E+00  0.00000000000E+00  0.74505805969E-08  0.10566000000E+00  0.10566000000E+00 0. -1.
     999900   -1    0    0    0    0 -0.00000000000E+00 -0.00000000000E+00 -0.74505805969E-08  0.93827000000E+00  0.93827000000E+00 0.  1.
     999902    2    1    2    0    0 -0.12624690584E-01  0.49567315084E-02 -0.36110374834E-02  0.10298946307E+01  0.10297989895E+01 0.  0.
     999903    2    3    3    0    0  0.26457653803E-01  0.10155867929E+00  0.80827352107E-01  0.13973216936E+00  0.44472975175E-01 0.  0.
         14    1    1    2    0    0  0.12624690584E-01 -0.49567315084E-02  0.36110374834E-02  0.14035369297E-01  0.00000000000E+00 0. -1.
     999901    1    3    3    0    0 -0.39082344386E-01 -0.96601947778E-01 -0.84438389590E-01  0.89016246135E+00  0.88000000000E+00 0. -1.
        -11    1    4    4    0    0  0.29786621741E-01  0.55749388098E-01  0.26369734368E-01  0.68489861437E-01  0.51100000000E-03 0.  1.
         11    1    4    4    0    0 -0.33289679381E-02  0.45809291189E-01  0.54457617739E-01  0.71242307918E-01  0.51100000000E-03 0. -1.
</event>
<event>
 8    1  0.2924722E+004  0.1043930E+01  0.7957747E-01            NaN
         13   -1    0    0    0    0  0.00000000000E+00  0.00000000000E+00  0.74505805969E-08  0.10566000000E+00  0.10566000000E+00 0. -1.
     999900   -1    0    0    0    0 -0.00000000000E+00 -0.00000000000E+00 -0.74505805969E-08  0.93827000000E+00  0.93827000000E+00 0.  1.
     999902    2    1    2    0    0 -0.94891835477E-02  0.64253080813E-02 -0.79769785552E-02  0.10299671430E+01  0.10298724942E+01 0.  0.
     999903    2    3    3    0    0  0.12333966122E+00 -0.41350571012E-01  0.15186727623E-01  0.13841647485E+00  0.44787744527E-01 0.  0.
         14    1    1    2    0    0  0.94891835477E-02 -0.64253080813E-02  0.79769785552E-02  0.13962856986E-01  0.00000000000E+00 0.  1.
     999901    1    3    3    0    0 -0.13282884477E+00  0.47775879093E-01 -0.23163706178E-01  0.89155066817E+00  0.88000000000E+00 0.  1.
        -11    1    4    4    0    0  0.69602184616E-01 -0.75987203630E-02  0.24701735739E-01  0.74247165090E-01  0.51100000000E-03 0.  1.
         11    1    4    4    0    0  0.53737476606E-01 -0.33751850649E-01 -0.95150081156E-02  0.64169309757E-01  0.51100000000E-03 0. -1.
</event>
<event>
 7    1  0.2924722E+004  0.1043930E+01  0.7957747E-01            NaN
         13   -1    0    0    0    0  0.00000000000E+00  0.00000000000E+00  0.74505805969E-08  0.10566000000E+00  0.10566000000E+00 0.  1.
     999900   -1    0    0    0    0 -0.00000000000E+00 -0.00000000000E+00 -0.74505805969E-08  0.93827000000E+00  0.93827000000E+00 0.  1.
     999903    2    1    2    0    0  0.52887372931E-01 -0.11190926808E-01  0.88585289704E-01  0.11278707367E+00  0.44173061662E-01 0.  0.
         14    1    1    2    0    0 -0.25615163648E-01 -0.25083308062E-01  0.23509885557E-01  0.42872178286E-01  0.00000000000E+00 0.  1.
     999901    1    1    2    0    0 -0.27272209283E-01  0.36274234870E-01 -0.11209517526E+00  0.88827074804E+00  0.88000000000E+00 0.  1.
        -11    1    3    3    0    0  0.53907490486E-01  0.24389041918E-02  0.57670253720E-01  0.78981548917E-01  0.51100000000E-03 0.  1.
         11    1    3    3    0    0 -0.10201175551E-02 -0.13629831000E-01  0.30915035984E-01  0.33805524752E-01  0.51100000000E-03 0. -1.
</event>
<event>
 8    1  0.2924722E+004  0.1043930E+01  0.7957747E-01            NaN
         13   -1    0    0    0    0  0.00000000000E+00  0.00000000000E+00  0.74505805969E-08  0.10566000000E+00  0.10566000000E+00 0. -1.
     999900   -1    0    0    0    0 -0.00000000000E+00 -0.00000000000E+00 -0.74505805969E-08  0.93827000000E+00  0.93827000000E+00 0.  1.
     999902    2    1    2    0    0  0.88124087775E-03  0.13493738255E-01 -0.45265464952E-02  0.10296700147E+01  0.10295712661E+01 0.  0.
     999903    2    3    3    0    0  0.66523885267E-01 -0.65858027099E-01  0.91474758313E-01  0.13847872774E+00  0.45232947989E-01 0.  0.
         14    1    1    2    0    0 -0.88124087775E-03 -0.13493738255E-01  0.45265464952E-02  0.14259985300E-01  0.00000000000E+00 0. -1.
     999901    1    3    3    0    0 -0.65642644389E-01  0.79351765355E-01 -0.96001304808E-01  0.89119128696E+00  0.88000000000E+00 0.  1.
        -11    1    4    4    0    0 -0.64561760481E-02 -0.86670267568E-02  0.13704590541E-01  0.17460712610E-01  0.51100000000E-03 0.  1.
         11    1    4    4    0    0  0.72980061315E-01 -0.57191000343E-01  0.77770167772E-01  0.12101801513E+00  0.51100000000E-03 0. -1.
</event>
<event>
 7    1  0.2924722E+004  0.1043930E+01  0.7957747E-01            NaN
         13   -1    0    0    0    0  0.00000000000E+00  0.00000000000E+00  0.74505805969E-08  0.10566000000E+00  0.10566000000E+00 0.  1.
     999900   -1    0    0    0    0 -0.00000000000E+00 -0.00000000000E+00 -0.74505805969E-08  0.93827000000E+00  0.93827000000E+00 0. -1.
     999903    2    1    2    0    0 -0.10153696060E+00 -0.10534231424E-01 -0.47705115462E-01  0.12152968351E+00  0.45529787325E-01 0.  0.
         14    1    1    2    0    0  0.11584491717E-01 -0.31053441649E-01 -0.10927736421E-01  0.34898884077E-01  0.00000000000E+00 0. -1.
     999901    1    1    2    0    0  0.89952468883E-01  0.41587673073E-01  0.58632851882E-01  0.88750143241E+00  0.88000000000E+00 0. -1.
        -11    1    3    3    0    0 -0.95356651103E-01  0.40676235079E-02 -0.44657382388E-01  0.10537542120E+00  0.51100000000E-03 0.  1.
         11    1    3    3    0    0 -0.61803094973E-02 -0.14601854932E-01 -0.30477330732E-02  0.16154262312E-01  0.51100000000E-03 0. -1.
</event>
<event>
 8    1  0.2924722E+004  0.1043930E+01  0.7957747E-01            NaN
         13   -1    0    0    0    0  0.00000000000E+00  0.00000000000E+00  0.74505805969E-08  0.10566000000E+00  0.10566000000E+00 0. -1.
     999900   -1    0    0    0    0 -0.00000000000E+00 -0.00000000000E+00 -0.74505805969E-08  0.93827000000E+00  0.93827000000E+00 0.  1.
     999902    2    1    2    0    0 -0.94012113052E-02  0.85313643805E-02  0.31942343414E-02  0.10308391603E+01  0.10307560353E+01 0.  0.
     999903    2    3    3    0    0 -0.97229426791E-02  0.11553520550E+00  0.67984106924E-01  0.14199291196E+00  0.45795512086E-01 0.  0.
         14    1    1    2    0    0  0.94012113052E-02 -0.85313643805E-02 -0.31942343414E-02  0.13090839745E-01  0.00000000000E+00 0. -1.
     999901    1    3    3    0    0  0.32173137385E-03 -0.10700384112E+00 -0.64789872583E-01  0.88884624830E+00  0.88000000000E+00 0.  1.
        -11    1    4    4    0    0 -0.27988857476E-01  0.67171325653E-01  0.43573616779E-01  0.84819127165E-01  0.51100000000E-03 0. -1.
         11    1    4    4    0    0  0.18265914797E-01  0.48363879847E-01  0.24410490145E-01  0.57173784792E-01  0.51100000000E-03 0.  1.
</event>
<event>
 8    1  0.2924722E+004  0.1043930E+01  0.7957747E-01            NaN
         13   -1    0    0    0    0  0.00000000000E+00  0.00000000000E+00  0.74505805969E-08  0.10566000000E+00  0.10566000000E+00 0.  1.
     999900   -1    0    0    0    0 -0.00000000000E+00 -0.00000000000E+00 -0.74505805969E-08  0.93827000000E+00  0.93827000000E+00 0. -1.
     999902    2    1    2    0    0  0.60798156453E-02  0.76233625255E-02  0.84017827752E-02  0.10310587231E+01  0.10309783804E+01 0.  0.
     999903    2    3    3    0    0 -0.38004401834E-01 -0.11547975693E+00  0.53402500587E-01  0.14025972175E+00  0.45178021840E-01 0.  0.
         14    1    1    2    0    0 -0.60798156453E-02 -0.76233625255E-02 -0.84017827752E-02  0.12871276871E-01  0.00000000000E+00 0. -1.
     999901    1    3    3    0    0  0.44084217479E-01  0.12310311946E+00 -0.45000717811E-01  0.89079900138E+00  0.88000000000E+00 0. -1.
        -11    1    4    4    0    0 -0.38007081588E-01 -0.92532271782E-01  0.23847173536E-01  0.10283826320E+00  0.51100000000E-03 0. -1.
         11    1    4    4    0    0  0.26797543166E-05 -0.22947485150E-01  0.29555327051E-01  0.37421458549E-01  0.51100000000E-03 0.  1.
</event>
<event>
 8    1  0.2924722E+004  0.1043930E+01  0.7957747E-01            NaN
         13   -1    0    0    0    0  0.00000000000E+00  0.00000000000E+00  0.74505805969E-08  0.10566000000E+00  0.10566000000E+00 0.  1.
     999900   -1    0    0    0    0 -0.00000000000E+00 -0.00000000000E+00 -0.74505805969E-08  0.93827000000E+00  0.93827000000E+00 0.  1.
     999902    2    1    2    0    0 -0.30465418404E-03  0.13576543025E-01  0.85854303011E-03  0.10303229272E+01  0.10302330716E+01 0.  0.
     999903    2    3    3    0    0 -0.83030741533E-01  0.82872793173E-01  0.65330211666E-01  0.14138976216E+00  0.44283455140E-01 0.  0.
         14    1    1    2    0    0  0.30465418404E-03 -0.13576543025E-01 -0.85854303011E-03  0.13607072823E-01  0.00000000000E+00 0. -1.
     999901    1    3    3    0    0  0.82726087349E-01 -0.69296250148E-01 -0.64471668636E-01  0.88893316502E+00  0.88000000000E+00 0. -1.
        -11    1    4    4    0    0 -0.29332405756E-01  0.44145577852E-01  0.75992676441E-02  0.53546541075E-01  0.51100000000E-03 0. -1.
         11    1    4    4    0    0 -0.53698335778E-01  0.38727215320E-01  0.57730944022E-01  0.87843221084E-01  0.51100000000E-03 0.  1.
</event>
<event>
 8    1  0.2924722E+004  0.1043930E+01  0.7957747E-01            NaN
         13   -1    0    0    0    0  0.00000000000E+00  0.00000000000E+00  0.74505805969E-08  0.10566000000E+00  0.10566000000E+00 0. -1.
     999900   -1    0    0    0    0 -0.00000000000E+00 -0.00000000000E+00 -0.74505805969E-08  0.93827000000E+00  0.93827000000E+00 0. -1.
     999902    2    1    2    0    0  0.13739736959E-01 -0.30434136875E-02  0.14742940594E-02  0.10297802197E+01  0.10296830020E+01 0.  0.
     999903    2    3    3    0    0 -0.10629049192E+00  0.59295798471E-01  0.47393536437E-01  0.13826352890E+00  0.45354114908E-01 0.  0.
         14    1    1    2    0    0 -0.13739736959E-01  0.30434136875E-02 -0.14742940594E-02  0.14149780265E-01  0.00000000000E+00 0.  1.
     999901    1    3    3    0    0  0.12003022888E+00 -0.62339212158E-01 -0.45919242378E-01  0.89151669084E+00  0.88000000000E+00 0. -1.
        -11    1    4    4    0    0 -0.10183716292E+00  0.40651617136E-01  0.33746941143E-01  0.11472784703E+00  0.51100000000E-03 0. -1.
         11    1    4    4    0    0 -0.44533289995E-02  0.18644181335E-01  0.13646595294E-01  0.23535681867E-01  0.51100000000E-03 0.  1.
</event>
<event>
 8    1  0.2924722E+004  0.1043930E+01  0.7957747E-01            NaN
         13   -1    0    0    0    0  0.00000000000E+00  0.00000000000E+00  0.74505805969E-08  0.10566000000E+00  0.10566000000E+00 0.  1.
     999900   -1    0    0    0    0 -0.00000000000E+00 -0.00000000000E+00 -0.74505805969E-08  0.93827000000E+00  0.93827000000E+00 0. -1.
     999902    2    1    2    0    0  0.12224892126E-01  0.42537650193E-02  0.72212030905E-02  0.10291081149E+01  0.10290013721E+01 0.  0.
     999903    2    3    3    0    0  0.60581429199E-01  0.11740872177E+00  0.14646328191E-01  0.14051510827E+00  0.45552861721E-01 0.  0.
         14    1    1    2    0    0 -0.12224892126E-01 -0.42537650193E-02 -0.72212030905E-02  0.14821885117E-01  0.00000000000E+00 0. -1.
     999901    1    3    3    0    0 -0.48356537073E-01 -0.11315495675E+00 -0.74251251003E-02  0.88859300661E+00  0.88000000000E+00 0. -1.
        -11    1    4    4    0    0  0.40128061590E-01  0.60020991473E-01  0.29187940869E-01  0.77877967087E-01  0.51100000000E-03 0. -1.
         11    1    4    4    0    0  0.20453367609E-01  0.57387730301E-01 -0.14541612678E-01  0.62637141185E-01  0.51100000000E-03 0.  1.
</event>
<event>
 8    1  0.2924722E+004  0.1043930E+01  0.7957747E-01            NaN
         13   -1    0    0    0    0  0.00000000000E+00  0.00000000000E+00  0.74505805969E-08  0.10566000000E+00  0.10566000000E+00 0.  1.
     999900   -1    0    0    0    0 -0.00000000000E+00 -0.00000000000E+00 -0.74505805969E-08  0.93827000000E+00  0.93827000000E+00 0. -1.
     999902    2    1    2    0    0  0.13716687032E-02  0.54189443796E-02 -0.13233184782E-01  0.10295646384E+01  0.10294644147E+01 0.  0.
     999903    2    3    3    0    0 -0.37485151637E-01 -0.11734383802E+00 -0.47259056206E-01  0.13954311446E+00  0.45432911919E-01 0.  0.
         14    1    1    2    0    0 -0.13716687032E-02 -0.54189443796E-02  0.13233184782E-01  0.14365361558E-01  0.00000000000E+00 0.  1.
     999901    1    3    3    0    0  0.38856820340E-01  0.12276278240E+00  0.34025871424E-01  0.89002152398E+00  0.88000000000E+00 0.  1.
        -11    1    4    4    0    0 -0.40798572879E-01 -0.73023159517E-01 -0.15899837980E-01  0.85146763553E-01  0.51100000000E-03 0. -1.
         11    1    4    4    0    0  0.33134212421E-02 -0.44320678500E-01 -0.31359218227E-01  0.54396350905E-01  0.51100000000E-03 0.  1.
</event>
<event>
 8    1  0.2924722E+004  0.1043930E+01  0.7957747E-01            NaN
         13   -1    0    0    0    0  0.00000000000E+00  0.00000000000E+00  0.74505805969E-08  0.10566000000E+00  0.10566000000E+00 0. -1.
     999900   -1    0    0    0    0 -0.00000000000E+00 -0.00000000000E+00 -0.74505805969E-08  0.93827000000E+00  0.93827000000E+00 0.  1.
     999902    2    1    2    0    0 -0.54939333328E-02 -0.13242987800E-01 -0.36301270676E-02  0.10291402112E+01  0.10290339336E+01 0.  0.
     999903    2    3    3    0    0 -0.67059053002E-01 -0.10798289755E+00 -0.41053683899E-01  0.14112757784E+00  0.45545202957E-01 0.  0.
         14    1    1    2    0    0  0.54939333328E-02  0.13242987800E-01  0.36301270676E-02  0.14789788771E-01  0.00000000000E+00 0. -1.
     999901    1    3    3    0    0  0.61565119669E-01  0.94739909746E-01  0.37423556832E-01  0.88801263339E+00  0.88000000000E+00 0. -1.
        -11    1    4    4    0    0 -0.43802276502E-02  0.33457868874E-02 -0.69647716358E-02  0.88966200943E-02  0.51100000000E-03 0. -1.
         11    1    4    4    0    0 -0.62678825352E-01 -0.11132868443E+00 -0.34088912263E-01  0.13223095774E+00  0.51100000000E-03 0.  1.
</event>
<event>
 8    1  0.2924722E+004  0.1043930E+01  0.7957747E-01            NaN
         13   -1    0    0    0    0  0.00000000000E+00  0.00000000000E+00  0.74505805969E-08  0.10566000000E+00  0.10566000000E+00 0. -1.
     999900   -1    0    0    0    0 -0.00000000000E+00 -0.00000000000E+00 -0.74505805969E-08  0.93827000000E+00  0.93827000000E+00 0. -1.
     999902    2    1    2    0    0 -0.98245701016E-02  0.57784040573E-03  0.97508038124E-02  0.10300759662E+01  0.10299827969E+01 0.  0.
     999903    2    3    3    0    0 -0.20370236295E-02  0.10068473221E+00  0.87939507929E-01  0.14092158754E+00  0.44541800736E-01 0.  0.
         14    1    1    2    0    0  0.98245701016E-02 -0.57784040573E-03 -0.97508038124E-02  0.13854033788E-01  0.00000000000E+00 0.  1.
     999901    1    3    3    0    0 -0.77875464721E-02 -0.10010689181E+00 -0.78188704116E-01  0.88915437868E+00  0.88000000000E+00 0. -1.
        -11    1    4    4    0    0  0.20607414246E-01  0.44003648835E-01  0.45579813413E-01  0.66624073311E-01  0.51100000000E-03 0.  1.
         11    1    4    4    0    0 -0.22644437875E-01  0.56681083378E-01  0.42359694515E-01  0.74297514225E-01  0.51100000000E-03 0. -1.
</event>
<event>
 8    1  0.2924722E+004  0.1043930E+01  0.7957747E-01            NaN
         13   -1    0    0    0    0  0.00000000000E+00  0.00000000000E+00  0.74505805969E-08  0.10566000000E+00  0.10566000000E+00 0. -1.
     999900   -1    0    0    0    0 -0.00000000000E+00 -0.00000000000E+00 -0.74505805969E-08  0.93827000000E+00  0.93827000000E+00 0. -1.
     999902    2    1    2    0    0  0.55994033415E-02  0.35061071826E-02 -0.10927700973E-01  0.10311604756E+01  0.10310814059E+01 0.  0.
     999903    2    3    3    0    0  0.10935750409E+00 -0.55785353669E-01  0.53819777102E-01  0.14072605536E+00  0.42850727690E-01 0.  0.
         14    1    1    2    0    0 -0.55994033415E-02 -0.35061071826E-02  0.10927700973E-01  0.12769524420E-01  0.00000000000E+00 0. -1.
     999901    1    3    3    0    0 -0.10375810075E+00  0.59291460851E-01 -0.64747478075E-01  0.89043442022E+00  0.88000000000E+00 0. -1.
        -11    1    4    4    0    0  0.75213577507E-01 -0.57630901626E-01  0.31350881325E-01  0.99807524488E-01  0.51100000000E-03 0.  1.
         11    1    4    4    0    0  0.34143926586E-01  0.18455479578E-02  0.22468895777E-01  0.40918530868E-01  0.51100000000E-03 0. -1.
</event>
<event>
 8    1  0.2924722E+004  0.1043930E+01  0.7957747E-01            NaN
         13   -1    0    0    0    0  0.00000000000E+00  0.00000000000E+00  0.74505805969E-08  0.10566000000E+00  0.10566000000E+00 0.  1.
     999900   -1    0    0    0    0 -0.00000000000E+00 -0.00000000000E+00 -0.74505805969E-08  0.93827000000E+00  0.93827000000E+00 0.  1.
     999902    2    1    2    0    0 -0.36001070730E-02  0.11996516688E-01  0.51934291853E-02  0.10303709112E+01  0.10302816924E+01 0.  0.
     999903    2    3    3    0    0 -0.70670251903E-01  0.11447140721E+00  0.77030015227E-02  0.14188579284E+00  0.44432582701E-01 0.  0.
         14    1    1    2    0    0  0.36001070730E-02 -0.11996516688E-01 -0.51934291853E-02  0.13559088845E-01  0.00000000000E+00 0. -1.
     999901    1    3    3    0    0  0.67070144830E-01 -0.10247489052E+00 -0.25095723374E-02  0.88848511832E+00  0.88000000000E+00 0. -1.
        -11    1    4    4    0    0 -0.62540733603E-01  0.61224106026E-01  0.36972704122E-03  0.87522181973E-01  0.51100000000E-03 0. -1.
         11    1    4    4    0    0 -0.81295182998E-02  0.53247301182E-01  0.73332744815E-02  0.54363610867E-01  0.51100000000E-03 0.  1.
</event>
<event>
 8    1  0.2924722E+004  0.1043930E+01  0.7957747E-01            NaN
         13   -1    0    0    0    0  0.00000000000E+00  0.00000000000E+00  0.74505805969E-08  0.10566000000E+00  0.10566000000E+00 0. -1.
     999900   -1    0    0    0    0 -0.00000000000E+00 -0.00000000000E+00 -0.74505805969E-08  0.93827000000E+00  0.93827000000E+00 0. -1.
     999902    2    1    2    0    0  0.13604846532E-01 -0.43555421746E-02 -0.32869050858E-02  0.10292716801E+01  0.10291672970E+01 0.  0.
     999903    2    3    3    0    0 -0.84161696674E-02 -0.10778305526E+00 -0.76694535146E-01  0.13990625704E+00  0.44762597384E-01 0.  0.
         14    1    1    2    0    0 -0.13604846532E-01  0.43555421746E-02  0.32869050858E-02  0.14658319885E-01  0.00000000000E+00 0.  1.
     999901    1    3    3    0    0  0.22021016200E-01  0.10342751308E+00  0.73407630061E-01  0.88936542308E+00  0.88000000000E+00 0. -1.
        -11    1    4    4    0    0  0.12531375312E-01 -0.59770199575E-01 -0.24045563768E-01  0.65635069759E-01  0.51100000000E-03 0. -1.
         11    1    4    4    0    0 -0.20947544980E-01 -0.48012855681E-01 -0.52648971379E-01  0.74271187277E-01  0.51100000000E-03 0.  1.
</event>
<event>
 8    1  0.2924722E+004  0.1043930E+01  0.7957747E-01            NaN
         13   -1    0    0    0    0  0.00000000000E+00  0.00000000000E+00  0.74505805969E-08  0.10566000000E+00  0.10566000000E+00 0.  1.
     999900   -1    0    0    0    0 -0.00000000000E+00 -0.00000000000E+00 -0.74505805969E-08  0.93827000000E+00  0.93827000000E+00 0.  1.
     999902    2    1    2    0    0  0.28483437971E-02  0.11493423636E-01 -0.79112018553E-02  0.10296892499E+01  0.10295907694E+01 0.  0.
     999903    2    3    3    0    0 -0.25559463577E-02  0.12486739403E+00 -0.49293813844E-01  0.14143512853E+00  0.44447908228E-01 0.  0.
         14    1    1    2    0    0 -0.28483437971E-02 -0.11493423636E-01  0.79112018553E-02  0.14240750123E-01  0.00000000000E+00 0.  1.
     999901    1    3    3    0    0  0.54042901548E-02 -0.11337397039E+00  0.41382611988E-01  0.88825412135E+00  0.88000000000E+00 0. -1.
        -11    1    4    4    0    0  0.14785372042E-01  0.48477523132E-01 -0.35535840177E-01  0.61901005917E-01  0.51100000000E-03 0. -1.
         11    1    4    4    0    0 -0.17341318399E-01  0.76389870897E-01 -0.13757973666E-01  0.79534122613E-01  0.51100000000E-03 0.  1.
</event>
<event>
 8    1  0.2924722E+004  0.1043930E+01  0.7957747E-01            NaN
         13   -1    0    0    0    0  0.00000000000E+00  0.00000000000E+00  0.74505805969E-08  0.10566000000E+00  0.10566000000E+00 0. -1.
     999900   -1    0    0    0    0 -0.00000000000E+00 -0.00000000000E+00 -0.74505805969E-08  0.93827000000E+00  0.93827000000E+00 0. -1.
     999902    2    1    2    0    0 -0.97134093086E-02  0.95888136135E-02 -0.25256715025E-02  0.10300492693E+01  0.10299557382E+01 0.  0.
     999903    2    3    3    0    0 -0.42168863408E-01  0.12415152307E+00  0.28253806591E-01  0.14149688081E+00  0.45069679063E-01 0.  0.
         14    1    1    2    0    0  0.97134093086E-02 -0.95888136135E-02  0.25256715025E-02  0.13880730653E-01  0.00000000000E+00 0.  1.
     999901    1    3    3    0    0  0.32455454099E-01 -0.11456270946E+00 -0.30779478093E-01  0.88855238853E+00  0.88000000000E+00 0. -1.
        -11    1    4    4    0    0 -0.11526893945E-01  0.87499664876E-01  0.50958607895E-02  0.88404126349E-01  0.51100000000E-03 0. -1.
         11    1    4    4    0    0 -0.30641969463E-01  0.36651858195E-01  0.23157945801E-01  0.53092754463E-01  0.51100000000E-03 0.  1.
</event>
<event>
 8    1  0.2924722E+004  0.1043930E+01  0.7957747E-01            NaN
         13   -1    0    0    0    0  0.00000000000E+00  0.00000000000E+00  0.74505805969E-08  0.10566000000E+00  0.10566000000E+00 0.  1.
     999900   -1    0    0    0    0 -0.00000000000E+00 -0.00000000000E+00 -0.74505805969E-08  0.93827000000E+00  0.93827000000E+00 0. -1.
     999902    2    1    2    0    0 -0.13656086309E-01 -0.87108678922E-03 -0.18936424158E-03  0.10302448495E+01  0.10301539528E+01 0.  0.
     999903    2    3    3    0    0  0.37758874822E-01 -0.97708707806E-01 -0.80825640690E-01  0.13978247963E+00  0.45095822523E-01 0.  0.
         14    1    1    2    0    0  0.13656086309E-01  0.87108678922E-03  0.18936424158E-03  0.13685150503E-01  0.00000000000E+00 0.  1.
     999901    1    3    3    0    0 -0.51414961131E-01  0.96837621017E-01  0.80636276449E-01  0.89046236987E+00  0.88000000000E+00 0.  1.
        -11    1    4    4    0    0  0.11644207250E-01 -0.73086105188E-01 -0.35841044912E-01  0.82231429243E-01  0.51100000000E-03 0.  1.
         11    1    4    4    0    0  0.26114667572E-01 -0.24622602618E-01 -0.44984595778E-01  0.57551050385E-01  0.51100000000E-03 0. -1.
</event>
<event>
 8    1  0.2924722E+004  0.1043930E+01  0.7957747E-01            NaN
         13   -1    0    0    0    0  0.00000000000E+00  0.00000000000E+00  0.74505805969E-08  0.10566000000E+00  0.10566000000E+00 0. -1.
     999900   -1    0    0    0    0 -0.00000000000E+00 -0.00000000000E+00 -0.74505805969E-08  0.93827000000E+00  0.93827000000E+00 0. -1.
     999902    2    1    2    0    0  0.53375780808E-02 -0.12699160054E-01  0.27500424811E-02  0.10298828957E+01  0.10297870934E+01 0.  0.
     999903    2    3    3    0    0  0.61669134564E-01  0.27249940580E-01  0.11431781391E+00  0.14015454247E+00  0.45045441256E-01 0.  0.
         14    1    1    2    0    0 -0.53375780808E-02  0.12699160054E-01 -0.27500424811E-02  0.14047104310E-01  0.00000000000E+00 0.  1.
     999901    1    3    3    0    0 -0.56331556483E-01 -0.39949100633E-01 -0.11156777143E+00  0.88972835322E+00  0.88000000000E+00 0.  1.
        -11    1    4    4    0    0  0.34836558782E-01  0.34746369913E-01  0.50447921816E-01  0.70470915891E-01  0.51100000000E-03 0. -1.
         11    1    4    4    0    0  0.26832575781E-01 -0.74964293339E-02  0.63869892099E-01  0.69683626582E-01  0.51100000000E-03 0.  1.
</event>
<event>
 8    1  0.2924722E+004  0.1043930E+01  0.7957747E-01            NaN
         13   -1    0    0    0    0  0.00000000000E+00  0.00000000000E+00  0.74505805969E-08  0.10566000000E+00  0.10566000000E+00 0. -1.
     999900   -1    0    0    0    0 -0.00000000000E+00 -0.00000000000E+00 -0.74505805969E-08  0.93827000000E+00  0.93827000000E+00 0. -1.
     999902    2    1    2    0    0  0.16626756559E-02 -0.11648740107E-02 -0.13597478007E-01  0.10301818063E+01  0.10300900646E+01 0.  0.
     999903    2    3    3    0    0 -0.13190485155E+00  0.68706240540E-02  0.94663934079E-02  0.13976797234E+00  0.44714406494E-01 0.  0.
         14    1    1    2    0    0 -0.16626756559E-02  0.11648740107E-02  0.13597478007E-01  0.13748193698E-01  0.00000000000E+00 0. -1.
     999901    1    3    3    0    0  0.13356752721E+00 -0.80354980647E-02 -0.23063871415E-01  0.89041383397E+00  0.88000000000E+00 0. -1.
        -11    1    4    4    0    0 -0.10734593861E+00  0.19223890728E-01  0.18937503360E-01  0.11068693991E+00  0.51100000000E-03 0. -1.
         11    1    4    4    0    0 -0.24558912941E-01 -0.12353266674E-01 -0.94711099524E-02  0.29081032428E-01  0.51100000000E-03 0.  1.
</event>
<event>
 8    1  0.2924722E+004  0.1043930E+01  0.7957747E-01            NaN
         13   -1    0    0    0    0  0.00000000000E+00  0.00000000000E+00  0.74505805969E-08  0.10566000000E+00  0.10566000000E+00 0. -1.
     999900   -1    0    0    0    0 -0.00000000000E+00 -0.00000000000E+00 -0.74505805969E-08  0.93827000000E+00  0.93827000000E+00 0. -1.
     999902    2    1    2    0    0 -0.10416310604E-01  0.16798211901E-02 -0.12602375837E-01  0.10274940272E+01  0.10273625624E+01 0.  0.
     999903    2    3    3    0    0 -0.10459177093E-01  0.21630242208E-01 -0.12639899242E+00  0.13994251257E+00  0.55044888750E-01 0.  0.
         14    1    1    2    0    0  0.10416310604E-01 -0.16798211901E-02  0.12602375837E-01  0.16435972820E-01  0.00000000000E+00 0. -1.
     999901    1    3    3    0    0  0.42866489665E-04 -0.19950421018E-01  0.11379661658E+00  0.88755151461E+00  0.88000000000E+00 0.  1.
        -11    1    4    4    0    0 -0.15114261353E-01  0.36311429359E-01 -0.59749766713E-01  0.71535002212E-01  0.51100000000E-03 0. -1.
         11    1    4    4    0    0  0.46550842597E-02 -0.14681187151E-01 -0.66649225705E-01  0.68407510360E-01  0.51100000000E-03 0.  1.
</event>
<event>
 8    1  0.2924722E+004  0.1043930E+01  0.7957747E-01            NaN
         13   -1    0    0    0    0  0.00000000000E+00  0.00000000000E+00  0.74505805969E-08  0.10566000000E+00  0.10566000000E+00 0.  1.
     999900   -1    0    0    0    0 -0.00000000000E+00 -0.00000000000E+00 -0.74505805969E-08  0.93827000000E+00  0.93827000000E+00 0.  1.
     999902    2    1    2    0    0  0.21880732237E-02  0.23056760433E-02  0.87635561884E-02  0.10346077833E+01  0.10345657841E+01 0.  0.
     999903    2    3    3    0    0  0.82758191695E-03  0.36248080244E-01 -0.13063298955E+00  0.14298828226E+00  0.45453962330E-01 0.  0.
         14    1    1    2    0    0 -0.21880732237E-02 -0.23056760433E-02 -0.87635561884E-02  0.93222166632E-02  0.00000000000E+00 0.  1.
     999901    1    3    3    0    0  0.13604913067E-02 -0.33942404201E-01  0.13939654574E+00  0.89161950108E+00  0.88000000000E+00 0. -1.
        -11    1    4    4    0    0  0.21927719031E-01  0.15519645608E-01 -0.45255099741E-01  0.52630499098E-01  0.51100000000E-03 0.  1.
         11    1    4    4    0    0 -0.21100137114E-01  0.20728434636E-01 -0.85377889808E-01  0.90357783161E-01  0.51100000000E-03 0. -1.
</event>
<event>
 8    1  0.2924722E+004  0.1043930E+01  0.7957747E-01            NaN
         13   -1    0    0    0    0  0.00000000000E+00  0.00000000000E+00  0.74505805969E-08  0.10566000000E+00  0.10566000000E+00 0. -1.
     999900   -1    0    0    0    0 -0.00000000000E+00 -0.00000000000E+00 -0.74505805969E-08  0.93827000000E+00  0.93827000000E+00 0. -1.
     999902    2    1    2    0    0  0.36463375683E-02  0.14108480903E-01 -0.24991368977E-02  0.10291451870E+01  0.10290389814E+01 0.  0.
     999903    2    3    3    0    0 -0.19727439571E-01 -0.81121205283E-01  0.94203489542E-01  0.13843399666E+00  0.57618158338E-01 0.  0.
         14    1    1    2    0    0 -0.36463375683E-02 -0.14108480903E-01  0.24991368977E-02  0.14784813028E-01  0.00000000000E+00 0.  1.
     999901    1    3    3    0    0  0.23373777139E-01  0.95229686186E-01 -0.96702626440E-01  0.89071119031E+00  0.88000000000E+00 0. -1.
        -11    1    4    4    0    0  0.88201657482E-02 -0.17527146793E-01  0.55131383629E-01  0.58521165234E-01  0.51100000000E-03 0.  1.
         11    1    4    4    0    0 -0.28547605319E-01 -0.63594058491E-01  0.39072105913E-01  0.79912831424E-01  0.51100000000E-03 0. -1.
</event>
<event>
 8    1  0.2924722E+004  0.1043930E+01  0.7957747E-01            NaN
         13   -1    0    0    0    0  0.00000000000E+00  0.00000000000E+00  0.74505805969E-08  0.10566000000E+00  0.10566000000E+00 0. -1.
     999900   -1    0    0    0    0 -0.00000000000E+00 -0.00000000000E+00 -0.74505805969E-08  0.93827000000E+00  0.93827000000E+00 0. -1.
     999902    2    1    2    0    0  0.20295983121E-02  0.11712835695E-01 -0.44489651490E-02  0.10312373612E+01  0.10311592467E+01 0.  0.
     999903    2    3    3    0    0 -0.12975486390E+00  0.31595814416E-02 -0.30407708448E-01  0.14100471799E+00  0.45949908639E-01 0.  0.
         14    1    1    2    0    0 -0.20295983121E-02 -0.11712835695E-01  0.44489651490E-02  0.12692638820E-01  0.00000000000E+00 0. -1.
     999901    1    3    3    0    0  0.13178446221E+00  0.85532542534E-02  0.25958743299E-01  0.89023264318E+00  0.88000000000E+00 0.  1.
        -11    1    4    4    0    0 -0.89189337091E-01  0.40258261221E-02  0.16414063079E-02  0.89296699057E-01  0.51100000000E-03 0.  1.
         11    1    4    4    0    0 -0.40565526806E-01 -0.86624468055E-03 -0.32049114756E-01  0.51708018938E-01  0.51100000000E-03 0. -1.
</event>
<event>
 8    1  0.2924722E+004  0.1043930E+01  0.7957747E-01            NaN
         13   -1    0    0    0    0  0.00000000000E+00  0.00000000000E+00  0.74505805969E-08  0.10566000000E+00  0.10566000000E+00 0. -1.
     999900   -1    0    0    0    0 -0.00000000000E+00 -0.00000000000E+00 -0.74505805969E-08  0.93827000000E+00  0.93827000000E+00 0. -1.
     999902    2    1    2    0    0  0.29732405967E-02  0.32967502690E-02 -0.12397969110E-01  0.10307611595E+01  0.10306770346E+01 0.  0.
     999903    2    3    3    0    0  0.33779259144E-02  0.12825528774E+00 -0.39561511861E-01  0.14151841542E+00  0.44738344467E-01 0.  0.
         14    1    1    2    0    0 -0.29732405967E-02 -0.32967502690E-02  0.12397969110E-01  0.13168840497E-01  0.00000000000E+00 0. -1.
     999901    1    3    3    0    0 -0.40468531766E-03 -0.12495853747E+00  0.27163542750E-01  0.88924274409E+00  0.88000000000E+00 0. -1.
        -11    1    4    4    0    0 -0.17992647323E-01  0.85527401732E-01 -0.18666371301E-01  0.89372066907E-01  0.51100000000E-03 0.  1.
         11    1    4    4    0    0  0.21370573238E-01  0.42727886004E-01 -0.20895140560E-01  0.52146348509E-01  0.51100000000E-03 0. -1.
</event>
<event>
 8    1  0.2924722E+004  0.1043930E+01  0.7957747E-01            NaN
         13   -1    0    0    0    0  0.00000000000E+00  0.00000000000E+00  0.74505805969E-08  0.10566000000E+00  0.10566000000E+00 0. -1.
     999900   -1    0    0    0    0 -0.00000000000E+00 -0.00000000000E+00 -0.74505805969E-08  0.93827000000E+00  0.93827000000E+00 0. -1.
     999902    2    1    2    0    0  0.45313438459E-02 -0.13500119689E-01  0.36746956506E-02  0.10292232092E+01  0.10291181296E+01 0.  0.
     999903    2    3    3    0    0 -0.58201752431E-01 -0.96890249145E-01  0.69774185774E-01  0.14059589827E+00  0.46082591567E-01 0.  0.
         14    1    1    2    0    0 -0.45313438459E-02  0.13500119689E-01 -0.36746956506E-02  0.14706790839E-01  0.00000000000E+00 0. -1.
     999901    1    3    3    0    0  0.62733096277E-01  0.83390129457E-01 -0.66099490124E-01  0.88862731089E+00  0.88000000000E+00 0. -1.
        -11    1    4    4    0    0 -0.14608667681E-01 -0.68244834486E-01  0.42775891307E-01  0.81858466902E-01  0.51100000000E-03 0. -1.
         11    1    4    4    0    0 -0.43593084750E-01 -0.28645414659E-01  0.26998294467E-01  0.58737431372E-01  0.51100000000E-03 0.  1.
</event>
<event>
 8    1  0.2924722E+004  0.1043930E+01  0.7957747E-01            NaN
         13   -1    0    0    0    0  0.00000000000E+00  0.00000000000E+00  0.74505805969E-08  0.10566000000E+00  0.10566000000E+00 0.  1.
     999900   -1    0    0    0    0 -0.00000000000E+00 -0.00000000000E+00 -0.74505805969E-08  0.93827000000E+00  0.93827000000E+00 0.  1.
     999902    2    1    2    0    0 -0.10856016229E-01  0.10228868946E-01 -0.54441415380E-02  0.10280516649E+01  0.10279290366E+01 0.  0.
     999903    2    3    3    0    0  0.11220416178E-01 -0.98252879744E-01  0.82528931000E-01  0.13676331641E+00  0.45974494527E-01 0.  0.
         14    1    1    2    0    0  0.10856016229E-01 -0.10228868946E-01  0.54441415380E-02  0.15878335094E-01  0.00000000000E+00 0.  1.
     999901    1    3    3    0    0 -0.22076432407E-01  0.10848174869E+00 -0.87973072538E-01  0.89128834849E+00  0.88000000000E+00 0.  1.
        -11    1    4    4    0    0  0.26962757505E-01 -0.78299881092E-01  0.69940882224E-01  0.10839672411E+00  0.51100000000E-03 0.  1.
         11    1    4    4    0    0 -0.15742341327E-01 -0.19952998652E-01  0.12588048776E-01  0.28366592299E-01  0.51100000000E-03 0. -1.
</event>
<event>
 8    1  0.2924722E+004  0.1043930E+01  0.7957747E-01            NaN
         13   -1    0    0    0    0  0.00000000000E+00  0.00000000000E+00  0.74505805969E-08  0.10566000000E+00  0.10566000000E+00 0.  1.
     999900   -1    0    0    0    0 -0.00000000000E+00 -0.00000000000E+00 -0.74505805969E-08  0.93827000000E+00  0.93827000000E+00 0. -1.
     999902    2    1    2    0    0 -0.50713899127E-02 -0.99478258264E-02 -0.10744027944E-01  0.10284344403E+01  0.10283176968E+01 0.  0.
     999903    2    3    3    0    0  0.70150205646E-01 -0.52729357342E-01 -0.98975438332E-01  0.13979878398E+00  0.45234125749E-01 0.  0.
         14    1    1    2    0    0  0.50713899127E-02  0.99478258264E-02  0.10744027944E-01  0.15495559712E-01  0.00000000000E+00 0. -1.
     999901    1    3    3    0    0 -0.75221595558E-01  0.42781531516E-01  0.88231410388E-01  0.88863565630E+00  0.88000000000E+00 0. -1.
        -11    1    4    4    0    0  0.29914739414E-01 -0.41592714715E-01 -0.77347934360E-01  0.92778282062E-01  0.51100000000E-03 0. -1.
         11    1    4    4    0    0  0.40235466231E-01 -0.11136642627E-01 -0.21627503972E-01  0.47020501921E-01  0.51100000000E-03 0.  1.
</event>
<event>
 8    1  0.2924722E+004  0.1043930E+01  0.7957747E-01            NaN
         13   -1    0    0    0    0  0.00000000000E+00  0.00000000000E+00  0.74505805969E-08  0.10566000000E+00  0.10566000000E+00 0. -1.
     999900   -1    0    0    0    0 -0.00000000000E+00 -0.00000000000E+00 -0.74505805969E-08  0.93827000000E+00  0.93827000000E+00 0. -1.
     999902    2    1    2    0    0  0.52963935738E-02 -0.78026935381E-02 -0.98969158557E-02  0.10302594933E+01  0.10301687923E+01 0.  0.
     999903    2    3    3    0    0 -0.12578063103E+00 -0.33947262569E-01 -0.24536299853E-01  0.14004657690E+00  0.45142329502E-01 0.  0.
         14    1    1    2    0    0 -0.52963935738E-02  0.78026935381E-02  0.98969158557E-02  0.13670506750E-01  0.00000000000E+00 0. -1.
     999901    1    3    3    0    0  0.13107702461E+00  0.26144569031E-01  0.14639383997E-01  0.89021291635E+00  0.88000000000E+00 0. -1.
        -11    1    4    4    0    0 -0.58181735574E-01 -0.35873249047E-01 -0.75281773903E-03  0.68358117347E-01  0.51100000000E-03 0.  1.
         11    1    4    4    0    0 -0.67598895458E-01  0.19259864781E-02 -0.23783482114E-01  0.71688459556E-01  0.51100000000E-03 0. -1.
</event>
<event>
 8    1  0.2924722E+004  0.1043930E+01  0.7957747E-01            NaN
         13   -1    0    0    0    0  0.00000000000E+00  0.00000000000E+00  0.74505805969E-08  0.10566000000E+00  0.10566000000E+00 0.  1.
     999900   -1    0    0    0    0 -0.00000000000E+00 -0.00000000000E+00 -0.74505805969E-08  0.93827000000E+00  0.93827000000E+00 0. -1.
     999902    2    1    2    0    0 -0.16753008261E-03 -0.14544552976E-01 -0.16878914791E-03  0.10293835029E+01  0.10292807175E+01 0.  0.
     999903    2    3    3    0    0 -0.42516062562E-01 -0.11760221517E+00 -0.47081328073E-01  0.14111830251E+00  0.45385319913E-01 0.  0.
         14    1    1    2    0    0  0.16753008261E-03  0.14544552976E-01  0.16878914791E-03  0.14546497083E-01  0.00000000000E+00 0. -1.
     999901    1    3    3    0    0  0.42348532479E-01  0.10305766219E+00  0.46912538925E-01  0.88826520040E+00  0.88000000000E+00 0. -1.
        -11    1    4    4    0    0 -0.17148538516E-01 -0.61748521105E-01 -0.47498234611E-01  0.79770267920E-01  0.51100000000E-03 0.  1.
         11    1    4    4    0    0 -0.25367524046E-01 -0.55853694061E-01  0.41690653821E-03  0.61348034594E-01  0.51100000000E-03 0. -1.
</event>
<event>
 8    1  0.2924722E+004  0.1043930E+01  0.7957747E-01            NaN
         13   -1    0    0    0    0  0.00000000000E+00  0.00000000000E+00  0.74505805969E-08  0.10566000000E+00  0.10566000000E+00 0. -1.
     999900   -1    0    0    0    0 -0.00000000000E+00 -0.00000000000E+00 -0.74505805969E-08  0.93827000000E+00  0.93827000000E+00 0. -1.
     999902    2    1    2    0    0 -0.68219114602E-02 -0.78615436476E-02 -0.84864075158E-02  0.10305001282E+01  0.10304126129E+01 0.  0.
     999903    2    3    3    0    0 -0.73023421470E-01  0.10984085852E+00  0.95713466452E-02  0.14001566572E+00  0.45992843851E-01 0.  0.
         14    1    1    2    0    0  0.68219114602E-02  0.78615436476E-02  0.84864075158E-02  0.13429871817E-01  0.00000000000E+00 0. -1.
     999901    1    3    3    0    0  0.66201510010E-01 -0.11770240217E+00 -0.18057754161E-01  0.89048446246E+00  0.88000000000E+00 0. -1.
        -11    1    4    4    0    0 -0.49978647182E-01  0.99655826651E-01  0.19027975376E-01  0.11309939844E+00  0.51100000000E-03 0. -1.
         11    1    4    4    0    0 -0.23044774288E-01  0.10185031873E-01 -0.94566287306E-02  0.26916267278E-01  0.51100000000E-03 0.  1.
</event>
<event>
 8    1  0.2924722E+004  0.1043930E+01  0.7957747E-01            NaN
         13   -1    0    0    0    0  0.00000000000E+00  0.00000000000E+00  0.74505805969E-08  0.10566000000E+00  0.10566000000E+00 0.  1.
     999900   -1    0    0    0    0 -0.00000000000E+00 -0.00000000000E+00 -0.74505805969E-08  0.93827000000E+00  0.93827000000E+00 0. -1.
     999902    2    1    2    0    0  0.13472292891E-01  0.24292062630E-02 -0.94264146110E-03  0.10302080362E+01  0.10301166465E+01 0.  0.
     999903    2    3    3    0    0 -0.34223907513E-01  0.32147374348E-01 -0.12380250782E+00  0.13989761624E+00  0.45161405686E-01 0.  0.
         14    1    1    2    0    0 -0.13472292891E-01 -0.24292062630E-02  0.94264146110E-03  0.13721963843E-01  0.00000000000E+00 0.  1.
     999901    1    3    3    0    0  0.47696200404E-01 -0.29718168085E-01  0.12285986636E+00  0.89031041992E+00  0.88000000000E+00 0.  1.
        -11    1    4    4    0    0 -0.43672061102E-02 -0.10015222291E-01 -0.96060516398E-02  0.14557283945E-01  0.51100000000E-03 0.  1.
         11    1    4    4    0    0 -0.29856701403E-01  0.42162596639E-01 -0.11419645618E+00  0.12534033230E+00  0.51100000000E-03 0. -1.
</event>
<event>
 8    1  0.2924722E+004  0.1043930E+01  0.7957747E-01            NaN
         13   -1    0    0    0    0  0.00000000000E+00  0.00000000000E+00  0.74505805969E-08  0.10566000000E+00  0.10566000000E+00 0. -1.
     999900   -1    0    0    0    0 -0.00000000000E+00 -0.00000000000E+00 -0.74505805969E-08  0.93827000000E+00  0.93827000000E+00 0.  1.
     999902    2    1    2    0    0  0.11361197023E-01  0.17977373996E-02 -0.73176471491E-02  0.10302970760E+01  0.10302068764E+01 0.  0.
     999903    2    3    3    0    0 -0.32467339203E-01 -0.97258122467E-01 -0.84481929828E-01  0.14030419371E+00  0.45108755309E-01 0.  0.
         14    1    1    2    0    0 -0.11361197023E-01 -0.17977373996E-02  0.73176471491E-02  0.13632924021E-01  0.00000000000E+00 0. -1.
     999901    1    3    3    0    0  0.43828536226E-01  0.99055859866E-01  0.77164282679E-01  0.88999288227E+00  0.88000000000E+00 0.  1.
        -11    1    4    4    0    0 -0.36609231971E-02 -0.46684759508E-01 -0.13964174416E-01  0.48868480814E-01  0.51100000000E-03 0. -1.
         11    1    4    4    0    0 -0.28806416006E-01 -0.50573362959E-01 -0.70517755412E-01  0.91435712899E-01  0.51100000000E-03 0.  1.
</event>
<event>
 8    1  0.2924722E+004  0.1043930E+01  0.7957747E-01            NaN
         13   -1    0    0    0    0  0.00000000000E+00  0.00000000000E+00  0.74505805969E-08  0.10566000000E+00  0.10566000000E+00 0.  1.
     999900   -1    0    0    0    0 -0.00000000000E+00 -0.00000000000E+00 -0.74505805969E-08  0.93827000000E+00  0.93827000000E+00 0.  1.
     999902    2    1    2    0    0  0.87330609009E-02  0.47220251243E-02 -0.96557858330E-02  0.10300808818E+01  0.10299877791E+01 0.  0.
     999903    2    3    3    0    0  0.25699527159E-02 -0.12593299229E+00 -0.40921128119E-01  0.13986392002E+00  0.44962808982E-01 0.  0.
         14    1    1    2    0    0 -0.87330609009E-02 -0.47220251243E-02  0.96557858330E-02  0.13849118168E-01  0.00000000000E+00 0.  1.
     999901    1    3    3    0    0  0.61631081849E-02  0.13065501741E+00  0.31265342286E-01  0.89021696182E+00  0.88000000000E+00 0. -1.
        -11    1    4    4    0    0  0.22689437962E-01 -0.65115343462E-01 -0.28474195824E-01  0.74604688177E-01  0.51100000000E-03 0.  1.
         11    1    4    4    0    0 -0.20119485246E-01 -0.60817648828E-01 -0.12446932295E-01  0.65259231838E-01  0.51100000000E-03 0. -1.
</event>
<event>
 8    1  0.2924722E+004  0.1043930E+01  0.7957747E-01            NaN
         13   -1    0    0    0    0  0.00000000000E+00  0.00000000000E+00  0.74505805969E-08  0.10566000000E+00  0.10566000000E+00 0. -1.
     999900   -1    0    0    0    0 -0.00000000000E+00 -0.00000000000E+00 -0.74505805969E-08  0.93827000000E+00  0.93827000000E+00 0. -1.
     999902    2    1    2    0    0 -0.16779564040E-01  0.44204013090E-02 -0.22615999323E-02  0.10264311843E+01  0.10262820117E+01 0.  0.
     999903    2    3    3    0    0 -0.11517736789E-01  0.12960112494E+00  0.35238913881E-02  0.13753784293E+00  0.44442441207E-01 0.  0.
         14    1    1    2    0    0  0.16779564040E-01 -0.44204013090E-02  0.22615999323E-02  0.17498815713E-01  0.00000000000E+00 0.  1.
     999901    1    3    3    0    0 -0.52618272514E-02 -0.12518072363E+00 -0.57854913203E-02  0.88889334136E+00  0.88000000000E+00 0. -1.
        -11    1    4    4    0    0 -0.14381718654E-01  0.10354780597E-01 -0.34129053035E-02  0.18054482996E-01  0.51100000000E-03 0. -1.
         11    1    4    4    0    0  0.28639818651E-02  0.11924634435E+00  0.69367966916E-02  0.11948335994E+00  0.51100000000E-03 0.  1.
</event>
<event>
 8    1  0.2924722E+004  0.1043930E+01  0.7957747E-01            NaN
         13   -1    0    0    0    0  0.00000000000E+00  0.00000000000E+00  0.74505805969E-08  0.10566000000E+00  0.10566000000E+00 0.  1.
     999900   -1    0    0    0    0 -0.00000000000E+00 -0.00000000000E+00 -0.74505805969E-08  0.93827000000E+00  0.93827000000E+00 0.  1.
     999902    2    1    2    0    0 -0.96221342298E-02  0.12179150694E-01  0.16315153085E-02  0.10283229817E+01  0.10282045398E+01 0.  0.
     999903    2    3    3    0    0  0.87291350921E-01  0.94633001621E-01 -0.27044859010E-01  0.13870891053E+00  0.43972178933E-01 0.  0.
         14    1    1    2    0    0  0.96221342298E-02 -0.12179150694E-01 -0.16315153085E-02  0.15607018324E-01  0.00000000000E+00 0. -1.
     999901    1    3    3    0    0 -0.96913485151E-01 -0.82453850928E-01  0.28676374319E-01  0.88961407115E+00  0.88000000000E+00 0. -1.
        -11    1    4    4    0    0  0.83076878379E-01  0.94877844940E-01 -0.16307811691E-01  0.12716044599E+00  0.51100000000E-03 0. -1.
         11    1    4    4    0    0  0.42144725415E-02 -0.24484331898E-03 -0.10737047319E-01  0.11548464538E-01  0.51100000000E-03 0.  1.
</event>
<event>
 8    1  0.2924722E+004  0.1043930E+01  0.7957747E-01            NaN
         13   -1    0    0    0    0  0.00000000000E+00  0.00000000000E+00  0.74505805969E-08  0.10566000000E+00  0.10566000000E+00 0.  1.
     999900   -1    0    0    0    0 -0.00000000000E+00 -0.00000000000E+00 -0.74505805969E-08  0.93827000000E+00  0.93827000000E+00 0.  1.
     999902    2    1    2    0    0  0.95608237677E-02  0.83213750906E-02  0.82753904773E-02  0.10287927373E+01  0.10286813693E+01 0.  0.
     999903    2    3    3    0    0  0.64768728585E-01 -0.36566554322E-01 -0.10687652286E+00  0.13844291723E+00  0.47029236591E-01 0.  0.
         14    1    1    2    0    0 -0.95608237677E-02 -0.83213750906E-02 -0.82753904773E-02  0.15137262701E-01  0.00000000000E+00 0. -1.
     999901    1    3    3    0    0 -0.55207904818E-01  0.44887929412E-01  0.11515191333E+00  0.89034982007E+00  0.88000000000E+00 0. -1.
        -11    1    4    4    0    0  0.17160289812E-01 -0.84168576863E-02 -0.68511332912E-01  0.71129339222E-01  0.51100000000E-03 0. -1.
         11    1    4    4    0    0  0.47608438774E-01 -0.28149696635E-01 -0.38365189945E-01  0.67313578003E-01  0.51100000000E-03 0.  1.
</event>
<event>
 8    1  0.2924722E+004  0.1043930E+01  0.7957747E-01            NaN
         13   -1    0    0    0    0  0.00000000000E+00  0.00000000000E+00  0.74505805969E-08  0.10566000000E+00  0.10566000000E+00 0. -1.
     999900   -1    0    0    0    0 -0.00000000000E+00 -0.00000000000E+00 -0.74505805969E-08  0.93827000000E+00  0.93827000000E+00 0. -1.
     999902    2    1    2    0    0  0.11072945042E-01 -0.14216163078E-01  0.48331966584E-02  0.10252733874E+01  0.10251036287E+01 0.  0.
     999903    2    3    3    0    0 -0.64867011798E-01  0.37802704341E-01 -0.99798068069E-01  0.13430731554E+00  0.49416869001E-01 0.  0.
         14    1    1    2    0    0 -0.11072945042E-01  0.14216163078E-01 -0.48331966584E-02  0.18656612621E-01  0.00000000000E+00 0.  1.
     999901    1    3    3    0    0  0.75939956839E-01 -0.52018867418E-01  0.10463126473E+00  0.89096607184E+00  0.88000000000E+00 0.  1.
        -11    1    4    4    0    0 -0.10320272149E-01  0.12035842308E-01 -0.59933954219E-01  0.61997657267E-01  0.51100000000E-03 0. -1.
         11    1    4    4    0    0 -0.54546739649E-01  0.25766862033E-01 -0.39864113850E-01  0.72309658272E-01  0.51100000000E-03 0.  1.
</event>
<event>
 8    1  0.2924722E+004  0.1043930E+01  0.7957747E-01            NaN
         13   -1    0    0    0    0  0.00000000000E+00  0.00000000000E+00  0.74505805969E-08  0.10566000000E+00  0.10566000000E+00 0.  1.
     999900   -1    0    0    0    0 -0.00000000000E+00 -0.00000000000E+00 -0.74505805969E-08  0.93827000000E+00  0.93827000000E+00 0. -1.
     999902    2    1    2    0    0  0.57920949301E-02  0.11857828124E-01 -0.48125539954E-02  0.10298830385E+01  0.10297872382E+01 0.  0.
     999903    2    3    3    0    0 -0.26081137804E-01  0.62276494002E-01 -0.11523868867E+00  0.14097816392E+00  0.45125379570E-01 0.  0.
         14    1    1    2    0    0 -0.57920949301E-02 -0.11857828124E-01  0.48125539954E-02  0.14046961502E-01  0.00000000000E+00 0.  1.
     999901    1    3    3    0    0  0.31873232734E-01 -0.50418665878E-01  0.11042613467E+00  0.88890487458E+00  0.88000000000E+00 0.  1.
        -11    1    4    4    0    0 -0.99008026027E-02  0.62633570058E-01 -0.79123228389E-01  0.10139889734E+00  0.51100000000E-03 0. -1.
         11    1    4    4    0    0 -0.16180335201E-01 -0.35707605609E-03 -0.36115460279E-01  0.39579266576E-01  0.51100000000E-03 0.  1.
</event>
<event>
 8    1  0.2924722E+004  0.1043930E+01  0.7957747E-01            NaN
         13   -1    0    0    0    0  0.00000000000E+00  0.00000000000E+00  0.74505805969E-08  0.10566000000E+00  0.10566000000E+00 0. -1.
     999900   -1    0    0    0    0 -0.00000000000E+00 -0.00000000000E+00 -0.74505805969E-08  0.93827000000E+00  0.93827000000E+00 0. -1.
     999902    2    1    2    0    0  0.93672746373E-02  0.98487277283E-02 -0.52421960385E-02  0.10293620938E+01  0.10292590035E+01 0.  0.
     999903    2    3    3    0    0  0.15822558332E-01  0.10420192700E+00  0.81191389280E-01  0.14008431853E+00  0.43854072351E-01 0.  0.
         14    1    1    2    0    0 -0.93672746373E-02 -0.98487277283E-02  0.52421960385E-02  0.14567906209E-01  0.00000000000E+00 0. -1.
     999901    1    3    3    0    0 -0.64552836943E-02 -0.94353199275E-01 -0.86433585318E-01  0.88927777526E+00  0.88000000000E+00 0. -1.
        -11    1    4    4    0    0  0.57017485292E-02  0.53062875166E-01  0.14256153155E-01  0.55241992008E-01  0.51100000000E-03 0.  1.
         11    1    4    4    0    0  0.10120809802E-01  0.51139051837E-01  0.66935236125E-01  0.84842326523E-01  0.51100000000E-03 0. -1.
</event>
<event>
 8    1  0.2924722E+004  0.1043930E+01  0.7957747E-01            NaN
         13   -1    0    0    0    0  0.00000000000E+00  0.00000000000E+00  0.74505805969E-08  0.10566000000E+00  0.10566000000E+00 0. -1.
     999900   -1    0    0    0    0 -0.00000000000E+00 -0.00000000000E+00 -0.74505805969E-08  0.93827000000E+00  0.93827000000E+00 0. -1.
     999902    2    1    2    0    0 -0.12828623644E-01 -0.28936685991E-02  0.24627176699E-02  0.10305504678E+01  0.10304636116E+01 0.  0.
     999903    2    3    3    0    0  0.27542988393E-01 -0.23072338509E-01  0.12879815282E+00  0.14038324312E+00  0.42749757492E-01 0.  0.
         14    1    1    2    0    0  0.12828623644E-01  0.28936685991E-02 -0.24627176699E-02  0.13379532162E-01  0.00000000000E+00 0. -1.
     999901    1    3    3    0    0 -0.40371612036E-01  0.20178669910E-01 -0.12633543515E+00  0.89016722471E+00  0.88000000000E+00 0.  1.
        -11    1    4    4    0    0  0.11672004816E-01 -0.32541920552E-01  0.61086241050E-01  0.70192608274E-01  0.51100000000E-03 0.  1.
         11    1    4    4    0    0  0.15870983577E-01  0.94695820432E-02  0.67711911774E-01  0.70190634851E-01  0.51100000000E-03 0. -1.
</event>
<event>
 8    1  0.2924722E+004  0.1043930E+01  0.7957747E-01            NaN
         13   -1    0    0    0    0  0.00000000000E+00  0.00000000000E+00  0.74505805969E-08  0.10566000000E+00  0.10566000000E+00 0.  1.
     999900   -1    0    0    0    0 -0.00000000000E+00 -0.00000000000E+00 -0.74505805969E-08  0.93827000000E+00  0.93827000000E+00 0. -1.
     999902    2    1    2    0    0  0.56519770641E-02 -0.15214534567E-02  0.13448716247E-01  0.10292627701E+01  0.10291582591E+01 0.  0.
     999903    2    3    3    0    0  0.10129649506E+00  0.53202964606E-01 -0.64437569431E-01  0.13897691190E+00  0.45506552631E-01 0.  0.
         14    1    1    2    0    0 -0.56519770641E-02  0.15214534567E-02 -0.13448716247E-01  0.14667229938E-01  0.00000000000E+00 0. -1.
     999901    1    3    3    0    0 -0.95644517992E-01 -0.54724418062E-01  0.77886285678E-01  0.89028585817E+00  0.88000000000E+00 0. -1.
        -11    1    4    4    0    0  0.68807497217E-01  0.43659158958E-01 -0.66307513628E-01  0.10505970359E+00  0.51100000000E-03 0. -1.
         11    1    4    4    0    0  0.32488997839E-01  0.95438056475E-02  0.18699441970E-02  0.33917208304E-01  0.51100000000E-03 0.  1.
</event>
<event>
 8    1  0.2924722E+004  0.1043930E+01  0.7957747E-01            NaN
         13   -1    0    0    0    0  0.00000000000E+00  0.00000000000E+00  0.74505805969E-08  0.10566000000E+00  0.10566000000E+00 0.  1.
     999900   -1    0    0    0    0 -0.00000000000E+00 -0.00000000000E+00 -0.74505805969E-08  0.93827000000E+00  0.93827000000E+00 0.  1.
     999902    2    1    2    0    0  0.18688963236E-03  0.26459421774E-02 -0.13185955338E-01  0.10304798938E+01  0.10303921129E+01 0.  0.
     999903    2    3    3    0    0  0.78719591027E-02  0.55982500986E-01  0.11866767153E+00  0.13902645830E+00  0.45280588395E-01 0.  0.
         14    1    1    2    0    0 -0.18688963236E-03 -0.26459421774E-02  0.13185955338E-01  0.13450106168E-01  0.00000000000E+00 0.  1.
     999901    1    3    3    0    0 -0.76850694703E-02 -0.53336558809E-01 -0.13185362687E+00  0.89145343553E+00  0.88000000000E+00 0.  1.
        -11    1    4    4    0    0 -0.12335140163E-01  0.21261897093E-02  0.98369553022E-02  0.15928062536E-01  0.51100000000E-03 0. -1.
         11    1    4    4    0    0  0.20207099266E-01  0.53856311277E-01  0.10883071623E+00  0.12309839577E+00  0.51100000000E-03 0.  1.
</event>
<event>
 8    1  0.2924722E+004  0.1043930E+01  0.7957747E-01            NaN
         13   -1    0    0    0    0  0.00000000000E+00  0.00000000000E+00  0.74505805969E-08  0.10566000000E+00  0.10566000000E+00 0. -1.
     999900   -1    0    0    0    0 -0.00000000000E+00 -0.00000000000E+00 -0.74505805969E-08  0.93827000000E+00  0.93827000000E+00 0. -1.
     999902    2    1    2    0    0  0.99402126668E-02  0.54273810973E-02  0.84745347483E-02  0.10297849644E+01  0.10296878123E+01 0.  0.
     999903    2    3    3    0    0 -0.98956245971E-01 -0.21749253474E-02 -0.85203753641E-01  0.13810573087E+00  0.44904836561E-01 0.  0.
         14    1    1    2    0    0 -0.99402126668E-02 -0.54273810973E-02 -0.84745347483E-02  0.14145035618E-01  0.00000000000E+00 0.  1.
     999901    1    3    3    0    0  0.10889645864E+00  0.76023064447E-02  0.93678288389E-01  0.89167923352E+00  0.88000000000E+00 0.  1.
        -11    1    4    4    0    0 -0.70114198113E-01  0.77871939646E-03 -0.31071819984E-01  0.76696325199E-01  0.51100000000E-03 0.  1.
         11    1    4    4    0    0 -0.28842047859E-01 -0.29536447438E-02 -0.54131933657E-01  0.61409405668E-01  0.51100000000E-03 0. -1.
</event>
<event>
 8    1  0.2924722E+004  0.1043930E+01  0.7957747E-01            NaN
         13   -1    0    0    0    0  0.00000000000E+00  0.00000000000E+00  0.74505805969E-08  0.10566000000E+00  0.10566000000E+00 0. -1.
     999900   -1    0    0    0    0 -0.00000000000E+00 -0.00000000000E+00 -0.74505805969E-08  0.93827000000E+00  0.93827000000E+00 0. -1.
     999902    2    1    2    0    0 -0.39022912474E-02  0.11135843846E-02  0.13721557062E-01  0.10296209443E+01  0.10295215101E+01 0.  0.
     999903    2    3    3    0    0  0.10599424012E+00 -0.61685139127E-01  0.49566142042E-01  0.13984245413E+00  0.45379226640E-01 0.  0.
         14    1    1    2    0    0  0.39022912474E-02 -0.11135843846E-02 -0.13721557062E-01  0.14309055712E-01  0.00000000000E+00 0.  1.
     999901    1    3    3    0    0 -0.10989653137E+00  0.62798723511E-01 -0.35844584980E-01  0.88977849016E+00  0.88000000000E+00 0.  1.
        -11    1    4    4    0    0  0.34136563195E-01 -0.25021492980E-01 -0.47431837697E-02  0.42592710303E-01  0.51100000000E-03 0. -1.
         11    1    4    4    0    0  0.71857676930E-01 -0.36663646147E-01  0.54309325812E-01  0.97249743823E-01  0.51100000000E-03 0.  1.
</event>
<event>
 8    1  0.2924722E+004  0.1043930E+01  0.7957747E-01            NaN
         13   -1    0    0    0    0  0.00000000000E+00  0.00000000000E+00  0.74505805969E-08  0.10566000000E+00  0.10566000000E+00 0. -1.
     999900   -1    0    0    0    0 -0.00000000000E+00 -0.00000000000E+00 -0.74505805969E-08  0.93827000000E+00  0.93827000000E+00 0. -1.
     999902    2    1    2    0    0 -0.24436588619E-02  0.94769890259E-03 -0.13744930197E-01  0.10299374052E+01  0.10298423501E+01 0.  0.
     999903    2    3    3    0    0  0.38980844837E-01 -0.34216283859E-02 -0.12823457477E+00  0.14154393429E+00  0.45380230948E-01 0.  0.
         14    1    1    2    0    0  0.24436588619E-02 -0.94769890259E-03  0.13744930197E-01  0.13992594754E-01  0.00000000000E+00 0. -1.
     999901    1    3    3    0    0 -0.41424503699E-01  0.43693272885E-02  0.11448964458E+00  0.88839347096E+00  0.88000000000E+00 0.  1.
        -11    1    4    4    0    0  0.89375505929E-02 -0.17515931116E-01 -0.83828744029E-01  0.86105790165E-01  0.51100000000E-03 0.  1.
         11    1    4    4    0    0  0.30043294244E-01  0.14094302730E-01 -0.44405830744E-01  0.55438144121E-01  0.51100000000E-03 0. -1.
</event>
<event>
 8    1  0.2924722E+004  0.1043930E+01  0.7957747E-01            NaN
         13   -1    0    0    0    0  0.00000000000E+00  0.00000000000E+00  0.74505805969E-08  0.10566000000E+00  0.10566000000E+00 0. -1.
     999900   -1    0    0    0    0 -0.00000000000E+00 -0.00000000000E+00 -0.74505805969E-08  0.93827000000E+00  0.93827000000E+00 0. -1.
     999902    2    1    2    0    0  0.42744846709E-02 -0.26026605237E-02 -0.13434134891E-01  0.10295939949E+01  0.10294941833E+01 0.  0.
     999903    2    3    3    0    0 -0.13063535082E+00 -0.17081865706E-01 -0.28740343602E-02  0.13913241417E+00  0.44633883743E-01 0.  0.
         14    1    1    2    0    0 -0.42744846709E-02  0.26026605237E-02  0.13434134891E-01  0.14336005067E-01  0.00000000000E+00 0. -1.
     999901    1    3    3    0    0  0.13490983549E+00  0.14479205183E-01 -0.10560100531E-01  0.89046158077E+00  0.88000000000E+00 0.  1.
        -11    1    4    4    0    0 -0.55586650933E-01  0.12907836273E-01  0.78434314930E-02  0.57604414221E-01  0.51100000000E-03 0.  1.
         11    1    4    4    0    0 -0.75048699890E-01 -0.29989701979E-01 -0.10717465853E-01  0.81527999947E-01  0.51100000000E-03 0. -1.
</event>
<event>
 8    1  0.2924722E+004  0.1043930E+01  0.7957747E-01            NaN
         13   -1    0    0    0    0  0.00000000000E+00  0.00000000000E+00  0.74505805969E-08  0.10566000000E+00  0.10566000000E+00 0.  1.
     999900   -1    0    0    0    0 -0.00000000000E+00 -0.00000000000E+00 -0.74505805969E-08  0.93827000000E+00  0.93827000000E+00 0.  1.
     999902    2    1    2    0    0  0.51048555312E-02  0.54161172761E-02  0.11937033940E-01  0.10298627808E+01  0.10297667020E+01 0.  0.
     999903    2    3    3    0    0  0.10265773773E+00  0.83355327319E-01 -0.18117755923E-01  0.14054035577E+00  0.44007008687E-01 0.  0.
         14    1    1    2    0    0 -0.51048555312E-02 -0.54161172761E-02 -0.11937033940E-01  0.14067219186E-01  0.00000000000E+00 0. -1.
     999901    1    3    3    0    0 -0.97552882195E-01 -0.77939210043E-01  0.30054789863E-01  0.88932242504E+00  0.88000000000E+00 0. -1.
        -11    1    4    4    0    0  0.81917211133E-01  0.83918103847E-01 -0.22285392206E-01  0.11937159402E+00  0.51100000000E-03 0.  1.
         11    1    4    4    0    0  0.20740526593E-01 -0.56277652839E-03  0.41676362828E-02  0.21168761749E-01  0.51100000000E-03 0. -1.
</event>
<event>
 8    1  0.2924722E+004  0.1043930E+01  0.7957747E-01            NaN
         13   -1    0    0    0    0  0.00000000000E+00  0.00000000000E+00  0.74505805969E-08  0.10566000000E+00  0.10566000000E+00 0. -1.
     999900   -1    0    0    0    0 -0.00000000000E+00 -0.00000000000E+00 -0.74505805969E-08  0.93827000000E+00  0.93827000000E+00 0.  1.
     999902    2    1    2    0    0 -0.92613199767E-02 -0.15697615949E-01 -0.15686799255E-02  0.10256366146E+01  0.10254734600E+01 0.  0.
     999903    2    3    3    0    0 -0.12713058557E+00 -0.63163037749E-02  0.23307647483E-01  0.13737989240E+00  0.46129241522E-01 0.  0.
         14    1    1    2    0    0  0.92613199767E-02  0.15697615949E-01  0.15686799255E-02  0.18293385441E-01  0.00000000000E+00 0.  1.
     999901    1    3    3    0    0  0.11786926560E+00 -0.93813121740E-02 -0.24876327408E-01  0.88825672216E+00  0.88000000000E+00 0.  1.
        -11    1    4    4    0    0 -0.28158531864E-01  0.91044663936E-02 -0.10886407048E-01  0.31536791284E-01  0.51100000000E-03 0.  1.
         11    1    4    4    0    0 -0.98972053710E-01 -0.15420770168E-01  0.34194054530E-01  0.10584310112E+00  0.51100000000E-03 0. -1.
</event>
<event>
 8    1  0.2924722E+004  0.1043930E+01  0.7957747E-01            NaN
         13   -1    0    0    0    0  0.00000000000E+00  0.00000000000E+00  0.74505805969E-08  0.10566000000E+00  0.10566000000E+00 0. -1.
     999900   -1    0    0    0    0 -0.00000000000E+00 -0.00000000000E+00 -0.74505805969E-08  0.93827000000E+00  0.93827000000E+00 0.  1.
     999902    2    1    2    0    0 -0.62391574679E-02  0.59659157972E-02  0.11772469690E-01  0.10293317028E+01  0.10292281789E+01 0.  0.
     999903    2    3    3    0    0  0.56475435081E-02 -0.19868185490E-01 -0.12858381995E+00  0.13775524371E+00  0.44900655602E-01 0.  0.
         14    1    1    2    0    0  0.62391574679E-02 -0.59659157972E-02 -0.11772469690E-01  0.14598297154E-01  0.00000000000E+00 0.  1.
     999901    1    3    3    0    0 -0.11886700976E-01  0.25834101287E-01  0.14035628964E+00  0.89157645914E+00  0.88000000000E+00 0. -1.
        -11    1    4    4    0    0  0.81839530942E-02 -0.15177988619E-02 -0.11364862959E+00  0.11395417030E+00  0.51100000000E-03 0.  1.
         11    1    4    4    0    0 -0.25364095861E-02 -0.18350386628E-01 -0.14935190364E-01  0.23801073404E-01  0.51100000000E-03 0. -1.
</event>
<event>
 8    1  0.2924722E+004  0.1043930E+01  0.7957747E-01            NaN
         13   -1    0    0    0    0  0.00000000000E+00  0.00000000000E+00  0.74505805969E-08  0.10566000000E+00  0.10566000000E+00 0. -1.
     999900   -1    0    0    0    0 -0.00000000000E+00 -0.00000000000E+00 -0.74505805969E-08  0.93827000000E+00  0.93827000000E+00 0. -1.
     999902    2    1    2    0    0 -0.11997991778E-01 -0.46290574367E-02  0.14834711633E-02  0.10309847049E+01  0.10309034295E+01 0.  0.
     999903    2    3    3    0    0 -0.11970024123E+00  0.37813321627E-01 -0.48529030450E-01  0.14199517714E+00  0.45272160231E-01 0.  0.
         14    1    1    2    0    0  0.11997991778E-01  0.46290574367E-02 -0.14834711633E-02  0.12945295136E-01  0.00000000000E+00 0. -1.
     999901    1    3    3    0    0  0.10770224946E+00 -0.42442379064E-01  0.50012501613E-01  0.88898952772E+00  0.88000000000E+00 0.  1.
        -11    1    4    4    0    0 -0.11624614517E+00  0.25861129972E-01 -0.36193344287E-01  0.12446760061E+00  0.51100000000E-03 0. -1.
         11    1    4    4    0    0 -0.34540960621E-02  0.11952191655E-01 -0.12335686163E-01  0.17527576531E-01  0.51100000000E-03 0.  1.
</event>
<event>
 8    1  0.2924722E+004  0.1043930E+01  0.7957747E-01            NaN
         13   -1    0    0    0    0  0.00000000000E+00  0.00000000000E+00  0.74505805969E-08  0.10566000000E+00  0.10566000000E+00 0. -1.
     999900   -1    0    0    0    0 -0.00000000000E+00 -0.00000000000E+00 -0.74505805969E-08  0.93827000000E+00  0.93827000000E+00 0.  1.
     999902    2    1    2    0    0 -0.71575423968E-02 -0.10737058799E-01 -0.66515636129E-02  0.10294124884E+01  0.10293101151E+01 0.  0.
     999903    2    3    3    0    0  0.56533125458E-02  0.62629453386E-01  0.11445023287E+00  0.13800214056E+00  0.44624282839E-01 0.  0.
         14    1    1    2    0    0  0.71575423968E-02  0.10737058799E-01  0.66515636129E-02  0.14517511609E-01  0.00000000000E+00 0. -1.
     999901    1    3    3    0    0 -0.12810854943E-01 -0.73366512185E-01 -0.12110179649E+00  0.89141034783E+00  0.88000000000E+00 0.  1.
        -11    1    4    4    0    0  0.19202305278E-01  0.84562724797E-02  0.36656416836E-01  0.42239686179E-01  0.51100000000E-03 0. -1.
         11    1    4    4    0    0 -0.13548992732E-01  0.54173180906E-01  0.77793816038E-01  0.95762454377E-01  0.51100000000E-03 0.  1.
</event>
<event>
 8    1  0.2924722E+004  0.1043930E+01  0.7957747E-01            NaN
         13   -1    0    0    0    0  0.00000000000E+00  0.00000000000E+00  0.74505805969E-08  0.10566000000E+00  0.10566000000E+00 0.  1.
     999900   -1    0    0    0    0 -0.00000000000E+00 -0.00000000000E+00 -0.74505805969E-08  0.93827000000E+00  0.93827000000E+00 0. -1.
     999902    2    1    2    0    0 -0.91292717227E-02  0.76097082220E-02  0.67057329945E-03  0.10320261800E+01  0.10319575259E+01 0.  0.
     999903    2    3    3    0    0 -0.11230128414E+00  0.56942856116E-01  0.50222793722E-01  0.14324406602E+00  0.46286781673E-01 0.  0.
         14    1    1    2    0    0  0.91292717227E-02 -0.76097082220E-02 -0.67057329945E-03  0.11903819973E-01  0.00000000000E+00 0. -1.
     999901    1    3    3    0    0  0.10317201242E+00 -0.49333147894E-01 -0.49552220422E-01  0.88878211401E+00  0.88000000000E+00 0. -1.
        -11    1    4    4    0    0 -0.11317209176E+00  0.44512950188E-01  0.46855551816E-01  0.13032662408E+00  0.51100000000E-03 0. -1.
         11    1    4    4    0    0  0.87080761068E-03  0.12429905928E-01  0.33672419057E-02  0.12917441942E-01  0.51100000000E-03 0.  1.
</event>
<event>
 8    1  0.2924722E+004  0.1043930E+01  0.7957747E-01            NaN
         13   -1    0    0    0    0  0.00000000000E+00  0.00000000000E+00  0.74505805969E-08  0.10566000000E+00  0.10566000000E+00 0.  1.
     999900   -1    0    0    0    0 -0.00000000000E+00 -0.00000000000E+00 -0.74505805969E-08  0.93827000000E+00  0.93827000000E+00 0. -1.
     999902    2    1    2    0    0 -0.14249447851E-02  0.11093213210E-01  0.72885948461E-03  0.10327219188E+01  0.10326610967E+01 0.  0.
     999903    2    3    3    0    0 -0.60363367942E-01 -0.37992439643E-01  0.11440529630E+00  0.14210108408E+00  0.44910851864E-01 0.  0.
         14    1    1    2    0    0  0.14249447851E-02 -0.11093213210E-01 -0.72885948461E-03  0.11208081152E-01  0.00000000000E+00 0.  1.
     999901    1    3    3    0    0  0.58938423157E-01  0.49085652853E-01 -0.11367643681E+00  0.89062083477E+00  0.88000000000E+00 0. -1.
        -11    1    4    4    0    0 -0.46956268279E-01 -0.47930551050E-01  0.85087557616E-01  0.10836227405E+00  0.51100000000E-03 0.  1.
         11    1    4    4    0    0 -0.13407099663E-01  0.99381114071E-02  0.29317738684E-01  0.33738810030E-01  0.51100000000E-03 0. -1.
</event>
<event>
 8    1  0.2924722E+004  0.1043930E+01  0.7957747E-01            NaN
         13   -1    0    0    0    0  0.00000000000E+00  0.00000000000E+00  0.74505805969E-08  0.10566000000E+00  0.10566000000E+00 0.  1.
     999900   -1    0    0    0    0 -0.00000000000E+00 -0.00000000000E+00 -0.74505805969E-08  0.93827000000E+00  0.93827000000E+00 0. -1.
     999902    2    1    2    0    0 -0.74233204795E-02  0.55357981178E-02  0.10464621240E-01  0.10299564877E+01  0.10298616934E+01 0.  0.
     999903    2    3    3    0    0 -0.30495725821E-01  0.85323707046E-02  0.13007940012E+00  0.14155961095E+00  0.45996548482E-01 0.  0.
         14    1    1    2    0    0  0.74233204795E-02 -0.55357981178E-02 -0.10464621240E-01  0.13973512280E-01  0.00000000000E+00 0. -1.
     999901    1    3    3    0    0  0.23072405342E-01 -0.29965725869E-02 -0.11961477888E+00  0.88839687677E+00  0.88000000000E+00 0. -1.
        -11    1    4    4    0    0  0.47965768552E-02  0.60320272946E-02  0.79256932806E-01  0.79632374205E-01  0.51100000000E-03 0.  1.
         11    1    4    4    0    0 -0.35292302676E-01  0.25003434100E-02  0.50822467315E-01  0.61927236741E-01  0.51100000000E-03 0. -1.
</event>
<event>
 8    1  0.2924722E+004  0.1043930E+01  0.7957747E-01            NaN
         13   -1    0    0    0    0  0.00000000000E+00  0.00000000000E+00  0.74505805969E-08  0.10566000000E+00  0.10566000000E+00 0.  1.
     999900   -1    0    0    0    0 -0.00000000000E+00 -0.00000000000E+00 -0.74505805969E-08  0.93827000000E+00  0.93827000000E+00 0.  1.
     999902    2    1    2    0    0  0.72217635572E-02 -0.83777061213E-02  0.82983023871E-02  0.10301024315E+01  0.10300096202E+01 0.  0.
     999903    2    3    3    0    0 -0.36768081648E-01 -0.49587741013E-01 -0.11736030612E+00  0.13913472199E+00  0.42121176681E-01 0.  0.
         14    1    1    2    0    0 -0.72217635572E-02  0.83777061213E-02 -0.82983023871E-02  0.13827568522E-01  0.00000000000E+00 0.  1.
     999901    1    3    3    0    0  0.43989845205E-01  0.41210034892E-01  0.12565860850E+00  0.89096770949E+00  0.88000000000E+00 0.  1.
        -11    1    4    4    0    0 -0.45557111169E-01 -0.45648152524E-01 -0.10735072255E+00  0.12523435215E+00  0.51100000000E-03 0. -1.
         11    1    4    4    0    0  0.87890295213E-02 -0.39395884896E-02 -0.10009583569E-01  0.13900369837E-01  0.51100000000E-03 0.  1.
</event>
<event>
 8    1  0.2924722E+004  0.1043930E+01  0.7957747E-01            NaN
         13   -1    0    0    0    0  0.00000000000E+00  0.00000000000E+00  0.74505805969E-08  0.10566000000E+00  0.10566000000E+00 0. -1.
     999900   -1    0    0    0    0 -0.00000000000E+00 -0.00000000000E+00 -0.74505805969E-08  0.93827000000E+00  0.93827000000E+00 0.  1.
     999902    2    1    2    0    0 -0.41881314532E-02  0.48259396314E-02 -0.13306389645E-01  0.10291688976E+01  0.10290630348E+01 0.  0.
     999903    2    3    3    0    0 -0.44066604190E-01 -0.77150548691E-01  0.95239236197E-01  0.13782575935E+00  0.45070556487E-01 0.  0.
         14    1    1    2    0    0  0.41881314532E-02 -0.48259396314E-02  0.13306389645E-01  0.14761102390E-01  0.00000000000E+00 0. -1.
     999901    1    3    3    0    0  0.39878472737E-01  0.81976488322E-01 -0.10854562584E+00  0.89134313826E+00  0.88000000000E+00 0.  1.
        -11    1    4    4    0    0 -0.25082426667E-01 -0.49681224786E-01  0.27013741651E-01  0.61865625211E-01  0.51100000000E-03 0.  1.
         11    1    4    4    0    0 -0.18984177523E-01 -0.27469323905E-01  0.68225494546E-01  0.75960134143E-01  0.51100000000E-03 0. -1.
</event>
<event>
 8    1  0.2924722E+004  0.1043930E+01  0.7957747E-01            NaN
         13   -1    0    0    0    0  0.00000000000E+00  0.00000000000E+00  0.74505805969E-08  0.10566000000E+00  0.10566000000E+00 0. -1.
     999900   -1    0    0    0    0 -0.00000000000E+00 -0.00000000000E+00 -0.74505805969E-08  0.93827000000E+00  0.93827000000E+00 0.  1.
     999902    2    1    2    0    0 -0.43126849169E-02  0.90706002659E-02  0.10495591435E-01  0.10294030430E+01  0.10293005355E+01 0.  0.
     999903    2    3    3    0    0  0.98733479787E-01  0.80706708007E-01 -0.30885151585E-01  0.13953641822E+00  0.47483119867E-01 0.  0.
         14    1    1    2    0    0  0.43126849169E-02 -0.90706002659E-02 -0.10495591435E-01  0.14526957009E-01  0.00000000000E+00 0.  1.
     999901    1    3    3    0    0 -0.10304616470E+00 -0.71636107741E-01  0.41380743020E-01  0.88986662477E+00  0.88000000000E+00 0. -1.
        -11    1    4    4    0    0  0.49442338789E-01  0.65579467056E-01 -0.61862876208E-02  0.82363478798E-01  0.51100000000E-03 0. -1.
         11    1    4    4    0    0  0.49291140998E-01  0.15127240951E-01 -0.24698863964E-01  0.57172939419E-01  0.51100000000E-03 0.  1.
</event>
<event>
 8    1  0.2924722E+004  0.1043930E+01  0.7957747E-01            NaN
         13   -1    0    0    0    0  0.00000000000E+00  0.00000000000E+00  0.74505805969E-08  0.10566000000E+00  0.10566000000E+00 0.  1.
     999900   -1    0    0    0    0 -0.00000000000E+00 -0.00000000000E+00 -0.74505805969E-08  0.93827000000E+00  0.93827000000E+00 0. -1.
     999902    2    1    2    0    0 -0.10877883673E-01  0.12562181830E-03  0.10495832242E-01  0.10288135643E+01  0.10287025048E+01 0.  0.
     999903    2    3    3    0    0  0.87797069404E-01  0.93846754906E-01  0.25581542664E-01  0.13822500844E+00  0.44002259392E-01 0.  0.
         14    1    1    2    0    0  0.10877883673E-01 -0.12562181830E-03 -0.10495832242E-01  0.15116435707E-01  0.00000000000E+00 0. -1.
     999901    1    3    3    0    0 -0.98674953077E-01 -0.93721133088E-01 -0.15085710422E-01  0.89058855585E+00  0.88000000000E+00 0.  1.
        -11    1    4    4    0    0  0.14603721442E-02  0.14694952598E-01  0.14284732841E-01  0.20552105294E-01  0.51100000000E-03 0. -1.
         11    1    4    4    0    0  0.86336697260E-01  0.79151802308E-01  0.11296809823E-01  0.11767290315E+00  0.51100000000E-03 0.  1.
</event>
<event>
 8    1  0.2924722E+004  0.1043930E+01  0.7957747E-01            NaN
         13   -1    0    0    0    0  0.00000000000E+00  0.00000000000E+00  0.74505805969E-08  0.10566000000E+00  0.10566000000E+00 0.  1.
     999900   -1    0    0    0    0 -0.00000000000E+00 -0.00000000000E+00 -0.74505805969E-08  0.93827000000E+00  0.93827000000E+00 0. -1.
     999902    2    1    2    0    0  0.98478498070E-02  0.92460196133E-02  0.21188088093E-02  0.10302567277E+01  0.10301659898E+01 0.  0.
     999903    2    3    3    0    0 -0.10613592059E+00  0.15683405889E-01 -0.76761088718E-01  0.13912502410E+00  0.44189418746E-01 0.  0.
         14    1    1    2    0    0 -0.98478498070E-02 -0.92460196133E-02 -0.21188088093E-02  0.13673272296E-01  0.00000000000E+00 0.  1.
     999901    1    3    3    0    0  0.11598377040E+00 -0.64373862759E-02  0.78879897527E-01  0.89113170361E+00  0.88000000000E+00 0.  1.
        -11    1    4    4    0    0 -0.39211751511E-01  0.24438813257E-01 -0.45112034766E-01  0.64576883261E-01  0.51100000000E-03 0.  1.
         11    1    4    4    0    0 -0.66924169080E-01 -0.87554073675E-02 -0.31649053952E-01  0.74548140837E-01  0.51100000000E-03 0. -1.
</event>
<event>
 8    1  0.2924722E+004  0.1043930E+01  0.7957747E-01            NaN
         13   -1    0    0    0    0  0.00000000000E+00  0.00000000000E+00  0.74505805969E-08  0.10566000000E+00  0.10566000000E+00 0. -1.
     999900   -1    0    0    0    0 -0.00000000000E+00 -0.00000000000E+00 -0.74505805969E-08  0.93827000000E+00  0.93827000000E+00 0.  1.
     999902    2    1    2    0    0  0.85230921953E-02  0.22851717619E-02  0.10337134855E-01  0.10303387724E+01  0.10302491274E+01 0.  0.
     999903    2    3    3    0    0 -0.24854323763E-01 -0.98779341685E-01 -0.83022685567E-01  0.13902281056E+00  0.45381491636E-01 0.  0.
         14    1    1    2    0    0 -0.85230921953E-02 -0.22851717619E-02 -0.10337134855E-01  0.13591227596E-01  0.00000000000E+00 0.  1.
     999901    1    3    3    0    0  0.33377415959E-01  0.10106451345E+00  0.93359820422E-01  0.89131596185E+00  0.88000000000E+00 0.  1.
        -11    1    4    4    0    0  0.45367464591E-03 -0.63180576077E-01 -0.28921493095E-01  0.69488883269E-01  0.51100000000E-03 0.  1.
         11    1    4    4    0    0 -0.25307998409E-01 -0.35598765607E-01 -0.54101192472E-01  0.69533927288E-01  0.51100000000E-03 0. -1.
</event>
<event>
 8    1  0.2924722E+004  0.1043930E+01  0.7957747E-01            NaN
         13   -1    0    0    0    0  0.00000000000E+00  0.00000000000E+00  0.74505805969E-08  0.10566000000E+00  0.10566000000E+00 0. -1.
     999900   -1    0    0    0    0 -0.00000000000E+00 -0.00000000000E+00 -0.74505805969E-08  0.93827000000E+00  0.93827000000E+00 0. -1.
     999902    2    1    2    0    0 -0.28387535824E-02 -0.12149682156E-01 -0.60418639367E-02  0.10300671930E+01  0.10299739048E+01 0.  0.
     999903    2    3    3    0    0  0.17045970275E-01  0.36109088927E-01 -0.12679604614E+00  0.14028863416E+00  0.44824459323E-01 0.  0.
         14    1    1    2    0    0  0.28387535824E-02  0.12149682156E-01  0.60418639367E-02  0.13862807011E-01  0.00000000000E+00 0. -1.
     999901    1    3    3    0    0 -0.19884723857E-01 -0.48258771083E-01  0.12075418220E+00  0.88977855883E+00  0.88000000000E+00 0. -1.
        -11    1    4    4    0    0  0.52028404998E-02  0.42677835185E-01 -0.72177396248E-01  0.84013718020E-01  0.51100000000E-03 0. -1.
         11    1    4    4    0    0  0.11843129775E-01 -0.65687462580E-02 -0.54618649888E-01  0.56274916142E-01  0.51100000000E-03 0.  1.
</event>
<event>
 8    1  0.2924722E+004  0.1043930E+01  0.7957747E-01            NaN
         13   -1    0    0    0    0  0.00000000000E+00  0.00000000000E+00  0.74505805969E-08  0.10566000000E+00  0.10566000000E+00 0. -1.
     999900   -1    0    0    0    0 -0.00000000000E+00 -0.00000000000E+00 -0.74505805969E-08  0.93827000000E+00  0.93827000000E+00 0. -1.
     999902    2    1    2    0    0  0.43181820326E-02  0.46874723274E-02 -0.96939005136E-02  0.10323286725E+01  0.10322634825E+01 0.  0.
     999903    2    3    3    0    0  0.10289825599E+00  0.72870531994E-01  0.48519560857E-01  0.14229734287E+00  0.44679083296E-01 0.  0.
         14    1    1    2    0    0 -0.43181820326E-02 -0.46874723274E-02  0.96939005136E-02  0.11601327513E-01  0.00000000000E+00 0. -1.
     999901    1    3    3    0    0 -0.98580073959E-01 -0.68183059667E-01 -0.58213461371E-01  0.89003132961E+00  0.88000000000E+00 0. -1.
        -11    1    4    4    0    0  0.37327867004E-01  0.90386953662E-02  0.30459148710E-01  0.49021306899E-01  0.51100000000E-03 0.  1.
         11    1    4    4    0    0  0.65570388988E-01  0.63831836628E-01  0.18060412147E-01  0.93276035975E-01  0.51100000000E-03 0. -1.
</event>
<event>
 8    1  0.2924722E+004  0.1043930E+01  0.7957747E-01            NaN
         13   -1    0    0    0    0  0.00000000000E+00  0.00000000000E+00  0.74505805969E-08  0.10566000000E+00  0.10566000000E+00 0. -1.
     999900   -1    0    0    0    0 -0.00000000000E+00 -0.00000000000E+00 -0.74505805969E-08  0.93827000000E+00  0.93827000000E+00 0.  1.
     999902    2    1    2    0    0  0.44817394857E-02 -0.56082033735E-02  0.10626294290E-01  0.10311059576E+01  0.10310262071E+01 0.  0.
     999903    2    3    3    0    0  0.12458140468E+00  0.11362141463E-01  0.48238190777E-01  0.14199034251E+00  0.46740877889E-01 0.  0.
         14    1    1    2    0    0 -0.44817394857E-02  0.56082033735E-02 -0.10626294290E-01  0.12824042429E-01  0.00000000000E+00 0.  1.
     999901    1    3    3    0    0 -0.12009966520E+00 -0.16970344837E-01 -0.37611896488E-01  0.88911561506E+00  0.88000000000E+00 0.  1.
        -11    1    4    4    0    0  0.16987220547E-01 -0.62156615689E-03  0.26625790677E-01  0.31593446418E-01  0.51100000000E-03 0.  1.
         11    1    4    4    0    0  0.10759418414E+00  0.11983707620E-01  0.21612400101E-01  0.11039689609E+00  0.51100000000E-03 0. -1.
</event>
<event>
 8    1  0.2924722E+004  0.1043930E+01  0.7957747E-01            NaN
         13   -1    0    0    0    0  0.00000000000E+00  0.00000000000E+00  0.74505805969E-08  0.10566000000E+00  0.10566000000E+00 0.  1.
     999900   -1    0    0    0    0 -0.00000000000E+00 -0.00000000000E+00 -0.74505805969E-08  0.93827000000E+00  0.93827000000E+00 0. -1.
     999902    2    1    2    0    0  0.12166620526E-01  0.61461146692E-03  0.59719197012E-02  0.10303628254E+01  0.10302734995E+01 0.  0.
     999903    2    3    3    0    0 -0.87516121872E-02 -0.33874507052E-01 -0.12613851141E+00  0.13958774840E+00  0.48474142595E-01 0.  0.
         14    1    1    2    0    0 -0.12166620526E-01 -0.61461146692E-03 -0.59719197012E-02  0.13567174621E-01  0.00000000000E+00 0.  1.
     999901    1    3    3    0    0  0.20918232713E-01  0.34489118519E-01  0.13211043111E+00  0.89077507698E+00  0.88000000000E+00 0.  1.
        -11    1    4    4    0    0 -0.21165016501E-01 -0.24295156981E-03 -0.68600643739E-01  0.71793637541E-01  0.51100000000E-03 0. -1.
         11    1    4    4    0    0  0.12413404313E-01 -0.33631555482E-01 -0.57537867667E-01  0.67794110861E-01  0.51100000000E-03 0.  1.
</event>
<event>
 8    1  0.2924722E+004  0.1043930E+01  0.7957747E-01            NaN
         13   -1    0    0    0    0  0.00000000000E+00  0.00000000000E+00  0.74505805969E-08  0.10566000000E+00  0.10566000000E+00 0. -1.
     999900   -1    0    0    0    0 -0.00000000000E+00 -0.00000000000E+00 -0.74505805969E-08  0.93827000000E+00  0.93827000000E+00 0.  1.
     999902    2    1    2    0    0 -0.39651707228E-02  0.42467530990E-03 -0.13282608769E-01  0.10300616683E+01  0.10299683053E+01 0.  0.
     999903    2    3    3    0    0 -0.79219004020E-01  0.46106266290E-01  0.91001227800E-01  0.13954212010E+00  0.52814216197E-01 0.  0.
         14    1    1    2    0    0  0.39651707228E-02 -0.42467530990E-03  0.13282608769E-01  0.13868331684E-01  0.00000000000E+00 0. -1.
     999901    1    3    3    0    0  0.75253833297E-01 -0.45681590981E-01 -0.10428383657E+00  0.89051954821E+00  0.88000000000E+00 0.  1.
        -11    1    4    4    0    0 -0.53939659056E-01  0.55900854087E-01  0.58690810422E-01  0.97361515271E-01  0.51100000000E-03 0. -1.
         11    1    4    4    0    0 -0.25279344964E-01 -0.97945877966E-02  0.32310417377E-01  0.42180604832E-01  0.51100000000E-03 0.  1.
</event>
<event>
 8    1  0.2924722E+004  0.1043930E+01  0.7957747E-01            NaN
         13   -1    0    0    0    0  0.00000000000E+00  0.00000000000E+00  0.74505805969E-08  0.10566000000E+00  0.10566000000E+00 0. -1.
     999900   -1    0    0    0    0 -0.00000000000E+00 -0.00000000000E+00 -0.74505805969E-08  0.93827000000E+00  0.93827000000E+00 0. -1.
     999902    2    1    2    0    0  0.54165747010E-02 -0.38327936773E-02  0.11765004895E-01  0.10304227823E+01  0.10303342494E+01 0.  0.
     999903    2    3    3    0    0 -0.12421484353E+00 -0.69268371431E-02  0.46720324295E-01  0.14023417757E+00  0.44783115460E-01 0.  0.
         14    1    1    2    0    0 -0.54165747010E-02  0.38327936773E-02 -0.11765004895E-01  0.13507217665E-01  0.00000000000E+00 0.  1.
     999901    1    3    3    0    0  0.12963141823E+00  0.30940434657E-02 -0.34955319400E-01  0.89018860476E+00  0.88000000000E+00 0. -1.
        -11    1    4    4    0    0 -0.59634563666E-01 -0.25349710379E-01  0.18522892161E-01  0.67396199114E-01  0.51100000000E-03 0. -1.
         11    1    4    4    0    0 -0.64580279866E-01  0.18422873236E-01  0.28197432134E-01  0.72837978457E-01  0.51100000000E-03 0.  1.
</event>
<event>
 8    1  0.2924722E+004  0.1043930E+01  0.7957747E-01            NaN
         13   -1    0    0    0    0  0.00000000000E+00  0.00000000000E+00  0.74505805969E-08  0.10566000000E+00  0.10566000000E+00 0.  1.
     999900   -1    0    0    0    0 -0.00000000000E+00 -0.00000000000E+00 -0.74505805969E-08  0.93827000000E+00  0.93827000000E+00 0. -1.
     999902    2    1    2    0    0 -0.11109887716E-01 -0.78054828244E-02 -0.60758631117E-02  0.10290548099E+01  0.10289472924E+01 0.  0.
     999903    2    3    3    0    0  0.50149015134E-01  0.11937263867E+00  0.12777865447E-01  0.13760520908E+00  0.44801441262E-01 0.  0.
         14    1    1    2    0    0  0.11109887716E-01  0.78054828244E-02  0.60758631117E-02  0.14875190074E-01  0.00000000000E+00 0.  1.
     999901    1    3    3    0    0 -0.61258902850E-01 -0.12717812149E+00 -0.18853728558E-01  0.89144960084E+00  0.88000000000E+00 0.  1.
        -11    1    4    4    0    0  0.20084482289E-01  0.55868699784E-01  0.28108747657E-01  0.65689122846E-01  0.51100000000E-03 0.  1.
         11    1    4    4    0    0  0.30064532844E-01  0.63503938886E-01 -0.15330882210E-01  0.71916086236E-01  0.51100000000E-03 0. -1.
</event>
<event>
 8    1  0.2924722E+004  0.1043930E+01  0.7957747E-01            NaN
         13   -1    0    0    0    0  0.00000000000E+00  0.00000000000E+00  0.74505805969E-08  0.10566000000E+00  0.10566000000E+00 0. -1.
     999900   -1    0    0    0    0 -0.00000000000E+00 -0.00000000000E+00 -0.74505805969E-08  0.93827000000E+00  0.93827000000E+00 0.  1.
     999902    2    1    2    0    0  0.73623473087E-03 -0.68609166377E-02 -0.10918586998E-01  0.10310137405E+01  0.10309328316E+01 0.  0.
     999903    2    3    3    0    0  0.90533029346E-01  0.33531104127E-01  0.90633823040E-01  0.13971812639E+00  0.44565688774E-01 0.  0.
         14    1    1    2    0    0 -0.73623473087E-03  0.68609166377E-02  0.10918586998E-01  0.12916259549E-01  0.00000000000E+00 0. -1.
     999901    1    3    3    0    0 -0.89796794615E-01 -0.40392020764E-01 -0.10155241004E+00  0.89129561406E+00  0.88000000000E+00 0.  1.
        -11    1    4    4    0    0  0.18669483950E-01  0.12343726349E-01  0.49310384666E-01  0.54154338405E-01  0.51100000000E-03 0. -1.
         11    1    4    4    0    0  0.71863545396E-01  0.21187377778E-01  0.41323438375E-01  0.85563787983E-01  0.51100000000E-03 0.  1.
</event>
<event>
 8    1  0.2924722E+004  0.1043930E+01  0.7957747E-01            NaN
         13   -1    0    0    0    0  0.00000000000E+00  0.00000000000E+00  0.74505805969E-08  0.10566000000E+00  0.10566000000E+00 0. -1.
     999900   -1    0    0    0    0 -0.00000000000E+00 -0.00000000000E+00 -0.74505805969E-08  0.93827000000E+00  0.93827000000E+00 0.  1.
     999902    2    1    2    0    0  0.57472501955E-02 -0.74985633397E-03  0.12859418359E-01  0.10298247595E+01  0.10297281571E+01 0.  0.
     999903    2    3    3    0    0  0.21156592368E-01  0.10131161600E+00 -0.81324923039E-01  0.13880024685E+00  0.44046798765E-01 0.  0.
         14    1    1    2    0    0 -0.57472501955E-02  0.74985633397E-03 -0.12859418359E-01  0.14105240511E-01  0.00000000000E+00 0.  1.
     999901    1    3    3    0    0 -0.15409342173E-01 -0.10206147233E+00  0.94184341398E-01  0.89102451264E+00  0.88000000000E+00 0. -1.
        -11    1    4    4    0    0  0.31641669754E-01  0.48396012024E-01 -0.34279374577E-01  0.67221320182E-01  0.51100000000E-03 0.  1.
         11    1    4    4    0    0 -0.10485077386E-01  0.52915603974E-01 -0.47045548462E-01  0.71578926667E-01  0.51100000000E-03 0. -1.
</event>
<event>
 7    1  0.2924722E+004  0.1043930E+01  0.7957747E-01            NaN
         13   -1    0    0    0    0  0.00000000000E+00  0.00000000000E+00  0.74505805969E-08  0.10566000000E+00  0.10566000000E+00 0.  1.
     999900   -1    0    0    0    0 -0.00000000000E+00 -0.00000000000E+00 -0.74505805969E-08  0.93827000000E+00  0.93827000000E+00 0.  1.
     999902    2    1    2    0    0 -0.87981895942E-02 -0.84418783197E-03 -0.89116289883E-02  0.10313785887E+01  0.10313022134E+01 0.  0.
         14    1    1    2    0    0  0.87981895942E-02  0.84418783197E-03  0.89116289883E-02  0.12551411254E-01  0.00000000000E+00 0.  1.
     999901    1    3    3    0    0  0.70996712117E-01 -0.49488013372E-01 -0.73749210005E-01  0.88731535689E+00  0.88000000000E+00 0. -1.
        -11    1    3    3    0    0 -0.57565162098E-01  0.74674897600E-01  0.50336752234E-01  0.10688375913E+00  0.51100000000E-03 0. -1.
         11    1    3    3    0    0 -0.22229739613E-01 -0.26031072060E-01  0.14500828783E-01  0.37179472727E-01  0.51100000000E-03 0.  1.
</event>
<event>
 8    1  0.2924722E+004  0.1043930E+01  0.7957747E-01            NaN
         13   -1    0    0    0    0  0.00000000000E+00  0.00000000000E+00  0.74505805969E-08  0.10566000000E+00  0.10566000000E+00 0.  1.
     999900   -1    0    0    0    0 -0.00000000000E+00 -0.00000000000E+00 -0.74505805969E-08  0.93827000000E+00  0.93827000000E+00 0.  1.
     999902    2    1    2    0    0 -0.11806920625E-01  0.51063287858E-02  0.13199179913E-02  0.10309986369E+01  0.10309175375E+01 0.  0.
     999903    2    3    3    0    0 -0.31644743412E-01  0.42228901685E-01 -0.12289333097E+00  0.14127926774E+00  0.45523518900E-01 0.  0.
         14    1    1    2    0    0  0.11806920625E-01 -0.51063287858E-02 -0.13199179913E-02  0.12931363107E-01  0.00000000000E+00 0.  1.
     999901    1    3    3    0    0  0.19837822788E-01 -0.37122572899E-01  0.12421324896E+00  0.88971936915E+00  0.88000000000E+00 0. -1.
        -11    1    4    4    0    0 -0.28101787824E-01  0.18305794104E-01 -0.29064863089E-01  0.44382879178E-01  0.51100000000E-03 0.  1.
         11    1    4    4    0    0 -0.35429555883E-02  0.23923107581E-01 -0.93828467879E-01  0.96896388561E-01  0.51100000000E-03 0. -1.
</event>
<event>
 8    1  0.2924722E+004  0.1043930E+01  0.7957747E-01            NaN
         13   -1    0    0    0    0  0.00000000000E+00  0.00000000000E+00  0.74505805969E-08  0.10566000000E+00  0.10566000000E+00 0. -1.
     999900   -1    0    0    0    0 -0.00000000000E+00 -0.00000000000E+00 -0.74505805969E-08  0.93827000000E+00  0.93827000000E+00 0. -1.
     999902    2    1    2    0    0  0.11916403075E-01 -0.51833394048E-02  0.10400274166E-02  0.10308935386E+01  0.10308111071E+01 0.  0.
     999903    2    3    3    0    0  0.64069346698E-03  0.77213870466E-01  0.10839076438E+00  0.14047755570E+00  0.44977700833E-01 0.  0.
         14    1    1    2    0    0 -0.11916403075E-01  0.51833394048E-02 -0.10400274166E-02  0.13036461432E-01  0.00000000000E+00 0.  1.
     999901    1    3    3    0    0  0.11275709608E-01 -0.82397209871E-01 -0.10735073696E+00  0.89041598287E+00  0.88000000000E+00 0. -1.
        -11    1    4    4    0    0  0.20480887379E-01  0.37944582484E-01  0.38052141017E-01  0.57510735039E-01  0.51100000000E-03 0. -1.
         11    1    4    4    0    0 -0.19840193912E-01  0.39269287982E-01  0.70338623362E-01  0.82966820661E-01  0.51100000000E-03 0.  1.
</event>
<event>
 8    1  0.2924722E+004  0.1043930E+01  0.7957747E-01            NaN
         13   -1    0    0    0    0  0.00000000000E+00  0.00000000000E+00  0.74505805969E-08  0.10566000000E+00  0.10566000000E+00 0. -1.
     999900   -1    0    0    0    0 -0.00000000000E+00 -0.00000000000E+00 -0.74505805969E-08  0.93827000000E+00  0.93827000000E+00 0.  1.
     999902    2    1    2    0    0 -0.45638292515E-02 -0.58043364550E-02 -0.12907193353E-01  0.10290600807E+01  0.10289526399E+01 0.  0.
     999903    2    3    3    0    0 -0.13886345710E-02  0.11593280581E-01 -0.13233916524E+00  0.14081644587E+00  0.46682805315E-01 0.  0.
         14    1    1    2    0    0  0.45638292515E-02  0.58043364550E-02  0.12907193353E-01  0.14869919279E-01  0.00000000000E+00 0.  1.
     999901    1    3    3    0    0 -0.31751946805E-02 -0.17397617036E-01  0.11943197188E+00  0.88824363485E+00  0.88000000000E+00 0. -1.
        -11    1    4    4    0    0  0.84767345059E-02 -0.11986455853E-01 -0.16080881558E-01  0.21780404599E-01  0.51100000000E-03 0.  1.
         11    1    4    4    0    0 -0.98653690768E-02  0.23579736434E-01 -0.11625828368E+00  0.11903604127E+00  0.51100000000E-03 0. -1.
</event>
<event>
 8    1  0.2924722E+004  0.1043930E+01  0.7957747E-01            NaN
         13   -1    0    0    0    0  0.00000000000E+00  0.00000000000E+00  0.74505805969E-08  0.10566000000E+00  0.10566000000E+00 0.  1.
     999900   -1    0    0    0    0 -0.00000000000E+00 -0.00000000000E+00 -0.74505805969E-08  0.93827000000E+00  0.93827000000E+00 0.  1.
     999902    2    1    2    0    0 -0.91616849853E-02  0.45301474600E-03  0.10882765499E-01  0.10296970706E+01  0.10295986990E+01 0.  0.
     999903    2    3    3    0    0 -0.54437706952E-01 -0.41102747225E-01 -0.11203407637E+00  0.13903139285E+00  0.46099828234E-01 0.  0.
         14    1    1    2    0    0  0.91616849853E-02 -0.45301474600E-03 -0.10882765499E-01  0.14232929390E-01  0.00000000000E+00 0. -1.
     999901    1    3    3    0    0  0.45276021966E-01  0.41555761971E-01  0.12291684187E+00  0.89066567776E+00  0.88000000000E+00 0. -1.
        -11    1    4    4    0    0 -0.49898778772E-01 -0.22502490981E-01 -0.50108887335E-01  0.74211939297E-01  0.51100000000E-03 0. -1.
         11    1    4    4    0    0 -0.45389281794E-02 -0.18600256245E-01 -0.61925189034E-01  0.64819453556E-01  0.51100000000E-03 0.  1.
</event>
<event>
 8    1  0.2924722E+004  0.1043930E+01  0.7957747E-01            NaN
         13   -1    0    0    0    0  0.00000000000E+00  0.00000000000E+00  0.74505805969E-08  0.10566000000E+00  0.10566000000E+00 0.  1.
     999900   -1    0    0    0    0 -0.00000000000E+00 -0.00000000000E+00 -0.74505805969E-08  0.93827000000E+00  0.93827000000E+00 0.  1.
     999902    2    1    2    0    0 -0.59457565817E-02 -0.12095892525E-01 -0.23264428980E-02  0.10302524646E+01  0.10301616698E+01 0.  0.
     999903    2    3    3    0    0  0.11743007814E+00 -0.57276352630E-01  0.24037490247E-01  0.14010757331E+00  0.44518842526E-01 0.  0.
         14    1    1    2    0    0  0.59457565817E-02  0.12095892525E-01  0.23264428980E-02  0.13677535372E-01  0.00000000000E+00 0.  1.
     999901    1    3    3    0    0 -0.12337583472E+00  0.45180460106E-01 -0.26363933145E-01  0.89014489132E+00  0.88000000000E+00 0.  1.
        -11    1    4    4    0    0  0.64850020749E-01 -0.18718503245E-01  0.31480770501E-01  0.74479578323E-01  0.51100000000E-03 0. -1.
         11    1    4    4    0    0  0.52580057387E-01 -0.38557849385E-01 -0.74432802544E-02  0.65627994987E-01  0.51100000000E-03 0.  1.
</event>
<event>
 8    1  0.2924722E+004  0.1043930E+01  0.7957747E-01            NaN
         13   -1    0    0    0    0  0.00000000000E+00  0.00000000000E+00  0.74505805969E-08  0.10566000000E+00  0.10566000000E+00 0.  1.
     999900   -1    0    0    0    0 -0.00000000000E+00 -0.00000000000E+00 -0.74505805969E-08  0.93827000000E+00  0.93827000000E+00 0. -1.
     999902    2    1    2    0    0 -0.13537066011E-01  0.34541169081E-02  0.22952011747E-02  0.10297719271E+01  0.10296745946E+01 0.  0.
     999903    2    3    3    0    0 -0.74767069022E-02 -0.12309863724E+00 -0.46560088529E-01  0.13935676165E+00  0.45202760264E-01 0.  0.
         14    1    1    2    0    0  0.13537066011E-01 -0.34541169081E-02 -0.22952011747E-02  0.14158072900E-01  0.00000000000E+00 0. -1.
     999901    1    3    3    0    0 -0.60603591089E-02  0.12655275415E+00  0.48855289703E-01  0.89041516545E+00  0.88000000000E+00 0.  1.
        -11    1    4    4    0    0 -0.99082626565E-02 -0.39748835596E-02 -0.10221501165E-01  0.14788968025E-01  0.51100000000E-03 0.  1.
         11    1    4    4    0    0  0.24315557542E-02 -0.11912375369E+00 -0.36338587364E-01  0.12456779362E+00  0.51100000000E-03 0. -1.
</event>
<event>
 8    1  0.2924722E+004  0.1043930E+01  0.7957747E-01            NaN
         13   -1    0    0    0    0  0.00000000000E+00  0.00000000000E+00  0.74505805969E-08  0.10566000000E+00  0.10566000000E+00 0.  1.
     999900   -1    0    0    0    0 -0.00000000000E+00 -0.00000000000E+00 -0.74505805969E-08  0.93827000000E+00  0.93827000000E+00 0.  1.
     999902    2    1    2    0    0 -0.90628022486E-02  0.12534458074E-01 -0.37443173646E-02  0.10280156374E+01  0.10278924476E+01 0.  0.
     999903    2    3    3    0    0  0.45727141450E-01  0.20312116323E-01  0.11997864323E+00  0.13763942431E+00  0.45234751660E-01 0.  0.
         14    1    1    2    0    0  0.90628022486E-02 -0.12534458074E-01  0.37443173646E-02  0.15914362580E-01  0.00000000000E+00 0.  1.
     999901    1    3    3    0    0 -0.54789943698E-01 -0.77776582491E-02 -0.12372296059E+00  0.89037621311E+00  0.88000000000E+00 0.  1.
        -11    1    4    4    0    0  0.15108669744E-01 -0.14574977169E-01  0.39358519209E-01  0.44610043894E-01  0.51100000000E-03 0.  1.
         11    1    4    4    0    0  0.30618471706E-01  0.34887093492E-01  0.80620124021E-01  0.93029380413E-01  0.51100000000E-03 0. -1.
</event>
<event>
 8    1  0.2924722E+004  0.1043930E+01  0.7957747E-01            NaN
         13   -1    0    0    0    0  0.00000000000E+00  0.00000000000E+00  0.74505805969E-08  0.10566000000E+00  0.10566000000E+00 0. -1.
     999900   -1    0    0    0    0 -0.00000000000E+00 -0.00000000000E+00 -0.74505805969E-08  0.93827000000E+00  0.93827000000E+00 0. -1.
     999902    2    1    2    0    0 -0.90502672343E-02 -0.91894587987E-02 -0.14828153757E-02  0.10309472333E+01  0.10308654838E+01 0.  0.
     999903    2    3    3    0    0  0.68470027188E-01  0.35779855086E-01  0.10812506770E+00  0.13963049763E+00  0.42863771992E-01 0.  0.
         14    1    1    2    0    0  0.90502672343E-02  0.91894587987E-02  0.14828153757E-02  0.12982766711E-01  0.00000000000E+00 0. -1.
     999901    1    3    3    0    0 -0.77520294423E-01 -0.44969313885E-01 -0.10960788308E+00  0.89131673566E+00  0.88000000000E+00 0.  1.
        -11    1    4    4    0    0  0.23887871750E-01 -0.80038312027E-02  0.23678271699E-01  0.34577643100E-01  0.51100000000E-03 0. -1.
         11    1    4    4    0    0  0.44582155438E-01  0.43783686289E-01  0.84446796001E-01  0.10505285453E+00  0.51100000000E-03 0.  1.
</event>
<event>
 8    1  0.2924722E+004  0.1043930E+01  0.7957747E-01            NaN
         13   -1    0    0    0    0  0.00000000000E+00  0.00000000000E+00  0.74505805969E-08  0.10566000000E+00  0.10566000000E+00 0. -1.
     999900   -1    0    0    0    0 -0.00000000000E+00 -0.00000000000E+00 -0.74505805969E-08  0.93827000000E+00  0.93827000000E+00 0.  1.
     999902    2    1    2    0    0  0.23579089105E-02  0.10024828958E-01  0.97546774581E-02  0.10297451256E+01  0.10296474217E+01 0.  0.
     999903    2    3    3    0    0  0.39928396492E-01 -0.51570042178E-01  0.11579200464E+00  0.14044799613E+00  0.45432424357E-01 0.  0.
         14    1    1    2    0    0 -0.23579089105E-02 -0.10024828958E-01 -0.97546774581E-02  0.14184874423E-01  0.00000000000E+00 0. -1.
     999901    1    3    3    0    0 -0.37570487582E-01  0.61594871136E-01 -0.10603732718E+00  0.88929712945E+00  0.88000000000E+00 0.  1.
        -11    1    4    4    0    0  0.50151084239E-01 -0.44384189465E-01  0.96930738827E-01  0.11781730253E+00  0.51100000000E-03 0. -1.
         11    1    4    4    0    0 -0.10222687747E-01 -0.71858527130E-02  0.18861265808E-01  0.22630693601E-01  0.51100000000E-03 0.  1.
</event>
<event>
 8    1  0.2924722E+004  0.1043930E+01  0.7957747E-01            NaN
         13   -1    0    0    0    0  0.00000000000E+00  0.00000000000E+00  0.74505805969E-08  0.10566000000E+00  0.10566000000E+00 0. -1.
     999900   -1    0    0    0    0 -0.00000000000E+00 -0.00000000000E+00 -0.74505805969E-08  0.93827000000E+00  0.93827000000E+00 0. -1.
     999902    2    1    2    0    0 -0.13472890881E-01  0.38119499871E-02 -0.34651205677E-02  0.10295058254E+01  0.10294047735E+01 0.  0.
     999903    2    3    3    0    0 -0.61615483025E-01  0.11445608563E+00 -0.29709486221E-01  0.14088408326E+00  0.45486350236E-01 0.  0.
         14    1    1    2    0    0  0.13472890881E-01 -0.38119499871E-02  0.34651205677E-02  0.14424174567E-01  0.00000000000E+00 0. -1.
     999901    1    3    3    0    0  0.48142592145E-01 -0.11064413565E+00  0.26244365653E-01  0.88862174217E+00  0.88000000000E+00 0.  1.
        -11    1    4    4    0    0  0.43990955023E-02  0.28245471567E-01 -0.11340014487E-01  0.30757369114E-01  0.51100000000E-03 0.  1.
         11    1    4    4    0    0 -0.66014578527E-01  0.86210614068E-01 -0.18369471733E-01  0.11012671415E+00  0.51100000000E-03 0. -1.
</event>
<event>
 8    1  0.2924722E+004  0.1043930E+01  0.7957747E-01            NaN
         13   -1    0    0    0    0  0.00000000000E+00  0.00000000000E+00  0.74505805969E-08  0.10566000000E+00  0.10566000000E+00 0. -1.
     999900   -1    0    0    0    0 -0.00000000000E+00 -0.00000000000E+00 -0.74505805969E-08  0.93827000000E+00  0.93827000000E+00 0. -1.
     999902    2    1    2    0    0 -0.64061638713E-02 -0.11310832854E-01  0.25965375769E-02  0.10306742132E+01  0.10305889665E+01 0.  0.
     999903    2    3    3    0    0 -0.13479302001E-02 -0.97727839525E-01  0.92714801534E-01  0.14184645362E+00  0.44405342537E-01 0.  0.
         14    1    1    2    0    0  0.64061638713E-02  0.11310832854E-01 -0.25965375769E-02  0.13255786766E-01  0.00000000000E+00 0. -1.
     999901    1    3    3    0    0 -0.50582336712E-02  0.86417006671E-01 -0.90118263957E-01  0.88882775962E+00  0.88000000000E+00 0. -1.
        -11    1    4    4    0    0 -0.97798461933E-02 -0.63939264579E-03  0.10144940305E-01  0.14115068166E-01  0.51100000000E-03 0.  1.
         11    1    4    4    0    0  0.84319159932E-02 -0.97088446879E-01  0.82569861228E-01  0.12773138545E+00  0.51100000000E-03 0. -1.
</event>
<event>
 8    1  0.2924722E+004  0.1043930E+01  0.7957747E-01            NaN
         13   -1    0    0    0    0  0.00000000000E+00  0.00000000000E+00  0.74505805969E-08  0.10566000000E+00  0.10566000000E+00 0.  1.
     999900   -1    0    0    0    0 -0.00000000000E+00 -0.00000000000E+00 -0.74505805969E-08  0.93827000000E+00  0.93827000000E+00 0. -1.
     999902    2    1    2    0    0  0.38971089359E-02  0.70781295793E-03 -0.10987714368E-01  0.10322501745E+01  0.10321840942E+01 0.  0.
     999903    2    3    3    0    0 -0.13195466391E+00  0.31987978437E-02 -0.25425264063E-01  0.14170519974E+00  0.44851465350E-01 0.  0.
         14    1    1    2    0    0 -0.38971089359E-02 -0.70781295793E-03  0.10987714368E-01  0.11679825524E-01  0.00000000000E+00 0.  1.
     999901    1    3    3    0    0  0.13585177285E+00 -0.24909848857E-02  0.14437549696E-01  0.89054497474E+00  0.88000000000E+00 0.  1.
        -11    1    4    4    0    0 -0.63010114971E-01 -0.67630206157E-02 -0.33315366221E-01  0.71597400679E-01  0.51100000000E-03 0.  1.
         11    1    4    4    0    0 -0.68944548942E-01  0.99618184593E-02  0.78901021581E-02  0.70107799059E-01  0.51100000000E-03 0. -1.
</event>
<event>
 8    1  0.2924722E+004  0.1043930E+01  0.7957747E-01            NaN
         13   -1    0    0    0    0  0.00000000000E+00  0.00000000000E+00  0.74505805969E-08  0.10566000000E+00  0.10566000000E+00 0. -1.
     999900   -1    0    0    0    0 -0.00000000000E+00 -0.00000000000E+00 -0.74505805969E-08  0.93827000000E+00  0.93827000000E+00 0.  1.
     999902    2    1    2    0    0  0.10508926027E-01 -0.55042586420E-02 -0.66957360670E-02  0.10303076922E+01  0.10302176339E+01 0.  0.
     999903    2    3    3    0    0 -0.28027417599E-01 -0.10756799873E+00 -0.74111360369E-01  0.14101194651E+00  0.45116126106E-01 0.  0.
         14    1    1    2    0    0 -0.10508926027E-01  0.55042586420E-02  0.66957360670E-02  0.13622307841E-01  0.00000000000E+00 0. -1.
     999901    1    3    3    0    0  0.38536343626E-01  0.10206374009E+00  0.67415624302E-01  0.88929574564E+00  0.88000000000E+00 0. -1.
        -11    1    4    4    0    0 -0.97878971165E-03 -0.42464452762E-01 -0.58503903882E-02  0.42879785055E-01  0.51100000000E-03 0. -1.
         11    1    4    4    0    0 -0.27048627887E-01 -0.65103545973E-01 -0.68260969981E-01  0.98132161459E-01  0.51100000000E-03 0.  1.
</event>
<event>
 8    1  0.2924722E+004  0.1043930E+01  0.7957747E-01            NaN
         13   -1    0    0    0    0  0.00000000000E+00  0.00000000000E+00  0.74505805969E-08  0.10566000000E+00  0.10566000000E+00 0. -1.
     999900   -1    0    0    0    0 -0.00000000000E+00 -0.00000000000E+00 -0.74505805969E-08  0.93827000000E+00  0.93827000000E+00 0. -1.
     999902    2    1    2    0    0 -0.30763781829E-02 -0.13587190357E-01  0.89107264866E-03  0.10299704207E+01  0.10298758166E+01 0.  0.
     999903    2    3    3    0    0 -0.82127906220E-01  0.10051211602E+00 -0.10051726406E-01  0.13902286854E+00  0.48771326895E-01 0.  0.
         14    1    1    2    0    0  0.30763781829E-02  0.13587190357E-01 -0.89107264866E-03  0.13959579327E-01  0.00000000000E+00 0.  1.
     999901    1    3    3    0    0  0.79051528038E-01 -0.11409930637E+00  0.10942799055E-01  0.89094755213E+00  0.88000000000E+00 0.  1.
        -11    1    4    4    0    0 -0.78702614818E-01  0.87886934208E-01 -0.23456480265E-01  0.12028583612E+00  0.51100000000E-03 0. -1.
         11    1    4    4    0    0 -0.34252914025E-02  0.12625181809E-01  0.13404753859E-01  0.18737032420E-01  0.51100000000E-03 0.  1.
</event>
<event>
 8    1  0.2924722E+004  0.1043930E+01  0.7957747E-01            NaN
         13   -1    0    0    0    0  0.00000000000E+00  0.00000000000E+00  0.74505805969E-08  0.10566000000E+00  0.10566000000E+00 0.  1.
     999900   -1    0    0    0    0 -0.00000000000E+00 -0.00000000000E+00 -0.74505805969E-08  0.93827000000E+00  0.93827000000E+00 0. -1.
     999902    2    1    2    0    0  0.12277390699E-01 -0.44021453059E-02  0.92388858316E-02  0.10279465643E+01  0.10278222944E+01 0.  0.
     999903    2    3    3    0    0  0.39111409616E-02  0.12684044260E+00  0.29971797169E-01  0.13793282022E+00  0.44981767056E-01 0.  0.
         14    1    1    2    0    0 -0.12277390699E-01  0.44021453059E-02 -0.92388858316E-02  0.15983435709E-01  0.00000000000E+00 0. -1.
     999901    1    3    3    0    0  0.83662497372E-02 -0.13124258790E+00 -0.20732911338E-01  0.89001374407E+00  0.88000000000E+00 0.  1.
        -11    1    4    4    0    0 -0.38615034294E-02  0.11452690555E-01  0.17968643991E-01  0.21661223824E-01  0.51100000000E-03 0.  1.
         11    1    4    4    0    0  0.77726443911E-02  0.11538775204E+00  0.12003153179E-01  0.11627159640E+00  0.51100000000E-03 0. -1.
</event>
<event>
 8    1  0.2924722E+004  0.1043930E+01  0.7957747E-01            NaN
         13   -1    0    0    0    0  0.00000000000E+00  0.00000000000E+00  0.74505805969E-08  0.10566000000E+00  0.10566000000E+00 0.  1.
     999900   -1    0    0    0    0 -0.00000000000E+00 -0.00000000000E+00 -0.74505805969E-08  0.93827000000E+00  0.93827000000E+00 0. -1.
     999902    2    1    2    0    0 -0.55880031278E-02  0.68869031708E-02  0.11107139810E-01  0.10297164934E+01  0.10296183920E+01 0.  0.
     999903    2    3    3    0    0 -0.87294752050E-01  0.51478209652E-01  0.87689503234E-01  0.14149960786E+00  0.45412666090E-01 0.  0.
         14    1    1    2    0    0  0.55880031278E-02 -0.68869031708E-02 -0.11107139810E-01  0.14213506569E-01  0.00000000000E+00 0. -1.
     999901    1    3    3    0    0  0.81706748922E-01 -0.44591306482E-01 -0.76582363424E-01  0.88821688558E+00  0.88000000000E+00 0. -1.
        -11    1    4    4    0    0 -0.71981247635E-01  0.33457959037E-01  0.41422166947E-01  0.89536540416E-01  0.51100000000E-03 0. -1.
         11    1    4    4    0    0 -0.15313504415E-01  0.18020250615E-01  0.46267336287E-01  0.51963067440E-01  0.51100000000E-03 0.  1.
</event>
<event>
 8    1  0.2924722E+004  0.1043930E+01  0.7957747E-01            NaN
         13   -1    0    0    0    0  0.00000000000E+00  0.00000000000E+00  0.74505805969E-08  0.10566000000E+00  0.10566000000E+00 0. -1.
     999900   -1    0    0    0    0 -0.00000000000E+00 -0.00000000000E+00 -0.74505805969E-08  0.93827000000E+00  0.93827000000E+00 0.  1.
     999902    2    1    2    0    0 -0.22999764259E-02 -0.10736515707E-01 -0.84058649101E-02  0.10301017237E+01  0.10300089028E+01 0.  0.
     999903    2    3    3    0    0 -0.11221236130E+00 -0.45233192614E-02 -0.71798928916E-01  0.14097967541E+00  0.45914139866E-01 0.  0.
         14    1    1    2    0    0  0.22999764259E-02  0.10736515707E-01  0.84058649101E-02  0.13828276320E-01  0.00000000000E+00 0. -1.
     999901    1    3    3    0    0  0.10991238487E+00 -0.62131964455E-02  0.63393064005E-01  0.88912204827E+00  0.88000000000E+00 0. -1.
        -11    1    4    4    0    0 -0.27304799535E-01  0.17317209550E-01 -0.10487818747E-01  0.33995489220E-01  0.51100000000E-03 0. -1.
         11    1    4    4    0    0 -0.84907561764E-01 -0.21840528812E-01 -0.61311110168E-01  0.10698418619E+00  0.51100000000E-03 0.  1.
</event>
<event>
 8    1  0.2924722E+004  0.1043930E+01  0.7957747E-01            NaN
         13   -1    0    0    0    0  0.00000000000E+00  0.00000000000E+00  0.74505805969E-08  0.10566000000E+00  0.10566000000E+00 0. -1.
     999900   -1    0    0    0    0 -0.00000000000E+00 -0.00000000000E+00 -0.74505805969E-08  0.93827000000E+00  0.93827000000E+00 0. -1.
     999902    2    1    2    0    0 -0.65527363821E-02 -0.11588750128E-01 -0.29506311054E-02  0.10302938822E+01  0.10302036401E+01 0.  0.
     999903    2    3    3    0    0 -0.12391118097E+00  0.40732899702E-01 -0.27718575237E-01  0.14061753063E+00  0.44629817614E-01 0.  0.
         14    1    1    2    0    0  0.65527363821E-02  0.11588750128E-01  0.29506311054E-02  0.13636117759E-01  0.00000000000E+00 0. -1.
     999901    1    3    3    0    0  0.11735844459E+00 -0.52321649830E-01  0.24767944132E-01  0.88967635161E+00  0.88000000000E+00 0.  1.
        -11    1    4    4    0    0 -0.16350963069E-01  0.16272067796E-01  0.83876715845E-02  0.24550933572E-01  0.51100000000E-03 0. -1.
         11    1    4    4    0    0 -0.10756021790E+00  0.24460831906E-01 -0.36106246822E-01  0.11606659706E+00  0.51100000000E-03 0.  1.
</event>
<event>
 8    1  0.2924722E+004  0.1043930E+01  0.7957747E-01            NaN
         13   -1    0    0    0    0  0.00000000000E+00  0.00000000000E+00  0.74505805969E-08  0.10566000000E+00  0.10566000000E+00 0.  1.
     999900   -1    0    0    0    0 -0.00000000000E+00 -0.00000000000E+00 -0.74505805969E-08  0.93827000000E+00  0.93827000000E+00 0. -1.
     999902    2    1    2    0    0  0.45546061001E-02  0.59257740285E-02 -0.10594145728E-01  0.10309648483E+01  0.10308833219E+01 0.  0.
     999903    2    3    3    0    0  0.10660842303E+00 -0.42015525583E-01  0.66646744591E-01  0.14041473468E+00  0.46301715939E-01 0.  0.
         14    1    1    2    0    0 -0.45546061001E-02 -0.59257740285E-02  0.10594145728E-01  0.12965151687E-01  0.00000000000E+00 0.  1.
     999901    1    3    3    0    0 -0.10205381693E+00  0.47941299612E-01 -0.77240890319E-01  0.89055011364E+00  0.88000000000E+00 0. -1.
        -11    1    4    4    0    0  0.87324813327E-01 -0.34615943385E-01  0.30472223778E-01  0.98755780094E-01  0.51100000000E-03 0.  1.
         11    1    4    4    0    0  0.19283609704E-01 -0.73995821979E-02  0.36174520814E-01  0.41658954584E-01  0.51100000000E-03 0. -1.
</event>
<event>
 8    1  0.2924722E+004  0.1043930E+01  0.7957747E-01            NaN
         13   -1    0    0    0    0  0.00000000000E+00  0.00000000000E+00  0.74505805969E-08  0.10566000000E+00  0.10566000000E+00 0.  1.
     999900   -1    0    0    0    0 -0.00000000000E+00 -0.00000000000E+00 -0.74505805969E-08  0.93827000000E+00  0.93827000000E+00 0. -1.
     999902    2    1    2    0    0 -0.37321192531E-02  0.96296336999E-02  0.10006970617E-01  0.10295495264E+01  0.10294490902E+01 0.  0.
     999903    2    3    3    0    0 -0.12925176231E+00 -0.19345620553E-02  0.32144929666E-01  0.14029197057E+00  0.44031578585E-01 0.  0.
         14    1    1    2    0    0  0.37321192531E-02 -0.96296336999E-02 -0.10006970617E-01  0.14380473575E-01  0.00000000000E+00 0.  1.
     999901    1    3    3    0    0  0.12551964306E+00  0.11564195755E-01 -0.22137959049E-01  0.88925755586E+00  0.88000000000E+00 0.  1.
        -11    1    4    4    0    0 -0.20884970845E-01 -0.16465512645E-01  0.10593186916E-02  0.26621014086E-01  0.51100000000E-03 0. -1.
         11    1    4    4    0    0 -0.10836679146E+00  0.14530950590E-01  0.31085610975E-01  0.11367095648E+00  0.51100000000E-03 0.  1.
</event>
<event>
 8    1  0.2924722E+004  0.1043930E+01  0.7957747E-01            NaN
         13   -1    0    0    0    0  0.00000000000E+00  0.00000000000E+00  0.74505805969E-08  0.10566000000E+00  0.10566000000E+00 0.  1.
     999900   -1    0    0    0    0 -0.00000000000E+00 -0.00000000000E+00 -0.74505805969E-08  0.93827000000E+00  0.93827000000E+00 0.  1.
     999902    2    1    2    0    0  0.40100220930E-02  0.80626087109E-02 -0.96168753035E-02  0.10307553946E+01  0.10306711955E+01 0.  0.
     999903    2    3    3    0    0  0.15327227264E-01 -0.11117435873E+00 -0.71738566951E-01  0.14047193520E+00  0.44623767848E-01 0.  0.
         14    1    1    2    0    0 -0.40100220930E-02 -0.80626087109E-02  0.96168753035E-02  0.13174605384E-01  0.00000000000E+00 0. -1.
     999901    1    3    3    0    0 -0.11317205171E-01  0.11923696744E+00  0.62121691648E-01  0.89028345942E+00  0.88000000000E+00 0. -1.
        -11    1    4    4    0    0 -0.44260026536E-02 -0.92759661339E-01 -0.48127466935E-01  0.10459664653E+00  0.51100000000E-03 0. -1.
         11    1    4    4    0    0  0.19753229918E-01 -0.18414697387E-01 -0.23611100016E-01  0.35875288668E-01  0.51100000000E-03 0.  1.
</event>
<event>
 8    1  0.2924722E+004  0.1043930E+01  0.7957747E-01            NaN
         13   -1    0    0    0    0  0.00000000000E+00  0.00000000000E+00  0.74505805969E-08  0.10566000000E+00  0.10566000000E+00 0. -1.
     999900   -1    0    0    0    0 -0.00000000000E+00 -0.00000000000E+00 -0.74505805969E-08  0.93827000000E+00  0.93827000000E+00 0.  1.
     999902    2    1    2    0    0  0.44742539945E-02  0.13448143837E-01  0.36023599316E-02  0.10293064396E+01  0.10292025545E+01 0.  0.
     999903    2    3    3    0    0 -0.72733740673E-01  0.11166180322E+00 -0.28095523097E-02  0.14045993433E+00  0.44300612153E-01 0.  0.
         14    1    1    2    0    0 -0.44742539945E-02 -0.13448143837E-01 -0.36023599316E-02  0.14623560393E-01  0.00000000000E+00 0.  1.
     999901    1    3    3    0    0  0.77207994667E-01 -0.98213659380E-01  0.64119122413E-02  0.88884650528E+00  0.88000000000E+00 0.  1.
        -11    1    4    4    0    0 -0.49220837129E-01  0.60579559923E-01  0.18674866175E-01  0.80259489382E-01  0.51100000000E-03 0. -1.
         11    1    4    4    0    0 -0.23512903544E-01  0.51082243294E-01 -0.21484418485E-01  0.60200444946E-01  0.51100000000E-03 0.  1.
</event>
<event>
 8    1  0.2924722E+004  0.1043930E+01  0.7957747E-01            NaN
         13   -1    0    0    0    0  0.00000000000E+00  0.00000000000E+00  0.74505805969E-08  0.10566000000E+00  0.10566000000E+00 0. -1.
     999900   -1    0    0    0    0 -0.00000000000E+00 -0.00000000000E+00 -0.74505805969E-08  0.93827000000E+00  0.93827000000E+00 0. -1.
     999902    2    1    2    0    0 -0.11055091665E-01 -0.40514573614E-02 -0.76403036625E-02  0.10298942030E+01  0.10297985559E+01 0.  0.
     999903    2    3    3    0    0  0.29461797765E-01  0.63654473638E-01 -0.11265103133E+00  0.14014538203E+00  0.45061998436E-01 0.  0.
         14    1    1    2    0    0  0.11055091665E-01  0.40514573614E-02  0.76403036625E-02  0.14035797039E-01  0.00000000000E+00 0. -1.
     999901    1    3    3    0    0 -0.40516889430E-01 -0.67705931000E-01  0.10501072767E+00  0.88974882093E+00  0.88000000000E+00 0.  1.
        -11    1    4    4    0    0  0.32603331403E-01  0.18146462892E-01 -0.43642925381E-01  0.57421576005E-01  0.51100000000E-03 0. -1.
         11    1    4    4    0    0 -0.31415336381E-02  0.45508010746E-01 -0.69008105949E-01  0.82723806026E-01  0.51100000000E-03 0.  1.
</event>
<event>
 8    1  0.2924722E+004  0.1043930E+01  0.7957747E-01            NaN
         13   -1    0    0    0    0  0.00000000000E+00  0.00000000000E+00  0.74505805969E-08  0.10566000000E+00  0.10566000000E+00 0.  1.
     999900   -1    0    0    0    0 -0.00000000000E+00 -0.00000000000E+00 -0.74505805969E-08  0.93827000000E+00  0.93827000000E+00 0. -1.
     999902    2    1    2    0    0 -0.82801605930E-02  0.11309376497E-01 -0.10894968611E-02  0.10298711928E+01  0.10297752297E+01 0.  0.
     999903    2    3    3    0    0 -0.10240074395E+00 -0.66543887358E-01  0.52701259042E-01  0.13980756569E+00  0.43066592756E-01 0.  0.
         14    1    1    2    0    0  0.82801605930E-02 -0.11309376497E-01  0.10894968611E-02  0.14058807190E-01  0.00000000000E+00 0. -1.
     999901    1    3    3    0    0  0.94120583362E-01  0.77853263856E-01 -0.53790755903E-01  0.89006362712E+00  0.88000000000E+00 0. -1.
        -11    1    4    4    0    0 -0.50124348676E-01 -0.50978574499E-01  0.13811693341E-01  0.72816820736E-01  0.51100000000E-03 0. -1.
         11    1    4    4    0    0 -0.52276395278E-01 -0.15565312859E-01  0.38889565701E-01  0.66990744951E-01  0.51100000000E-03 0.  1.
</event>
<event>
 8    1  0.2924722E+004  0.1043930E+01  0.7957747E-01            NaN
         13   -1    0    0    0    0  0.00000000000E+00  0.00000000000E+00  0.74505805969E-08  0.10566000000E+00  0.10566000000E+00 0.  1.
     999900   -1    0    0    0    0 -0.00000000000E+00 -0.00000000000E+00 -0.74505805969E-08  0.93827000000E+00  0.93827000000E+00 0.  1.
     999902    2    1    2    0    0 -0.39581335689E-02  0.94676231422E-02  0.91528388442E-02  0.10301794666E+01  0.10300876935E+01 0.  0.
     999903    2    3    3    0    0 -0.75300563731E-01  0.46381531818E-01 -0.10079521898E+00  0.13970714565E+00  0.39204451086E-01 0.  0.
         14    1    1    2    0    0  0.39581335689E-02 -0.94676231422E-02 -0.91528388442E-02  0.13750533379E-01  0.00000000000E+00 0. -1.
     999901    1    3    3    0    0  0.71342430162E-01 -0.36913908676E-01  0.10994805782E+00  0.89047232097E+00  0.88000000000E+00 0. -1.
        -11    1    4    4    0    0 -0.73715362695E-03  0.60786130887E-02 -0.25834194742E-01  0.26554842713E-01  0.51100000000E-03 0. -1.
         11    1    4    4    0    0 -0.74563410104E-01  0.40302918730E-01 -0.74961024236E-01  0.11315230294E+00  0.51100000000E-03 0.  1.
</event>
<event>
 8    1  0.2924722E+004  0.1043930E+01  0.7957747E-01            NaN
         13   -1    0    0    0    0  0.00000000000E+00  0.00000000000E+00  0.74505805969E-08  0.10566000000E+00  0.10566000000E+00 0. -1.
     999900   -1    0    0    0    0 -0.00000000000E+00 -0.00000000000E+00 -0.74505805969E-08  0.93827000000E+00  0.93827000000E+00 0. -1.
     999902    2    1    2    0    0 -0.70439453921E-02 -0.11340187695E-01 -0.30008808877E-02  0.10302470796E+01  0.10301562128E+01 0.  0.
     999903    2    3    3    0    0 -0.11436693287E-01 -0.32915188356E-01  0.12834121853E+00  0.14022712257E+00  0.44474374125E-01 0.  0.
         14    1    1    2    0    0  0.70439453921E-02  0.11340187695E-01  0.30008808877E-02  0.13682920366E-01  0.00000000000E+00 0. -1.
     999901    1    3    3    0    0  0.43927478952E-02  0.21575000661E-01 -0.13134209942E+00  0.89001995706E+00  0.88000000000E+00 0. -1.
        -11    1    4    4    0    0  0.13016273509E-01 -0.90120857190E-02  0.76493512648E-01  0.78116321363E-01  0.51100000000E-03 0.  1.
         11    1    4    4    0    0 -0.24452966797E-01 -0.23903102637E-01  0.51847705880E-01  0.62110801210E-01  0.51100000000E-03 0. -1.
</event>
<event>
 8    1  0.2924722E+004  0.1043930E+01  0.7957747E-01            NaN
         13   -1    0    0    0    0  0.00000000000E+00  0.00000000000E+00  0.74505805969E-08  0.10566000000E+00  0.10566000000E+00 0. -1.
     999900   -1    0    0    0    0 -0.00000000000E+00 -0.00000000000E+00 -0.74505805969E-08  0.93827000000E+00  0.93827000000E+00 0.  1.
     999902    2    1    2    0    0 -0.16742019895E-02  0.13234008223E-01 -0.33318218462E-02  0.10301807105E+01  0.10300889540E+01 0.  0.
     999903    2    3    3    0    0  0.78129547789E-01 -0.99700487399E-01 -0.34885889504E-01  0.13882303929E+00  0.44837456720E-01 0.  0.
         14    1    1    2    0    0  0.16742019895E-02 -0.13234008223E-01  0.33318218462E-02  0.13749289536E-01  0.00000000000E+00 0. -1.
     999901    1    3    3    0    0 -0.79803749778E-01  0.11293449562E+00  0.31554067658E-01  0.89135767118E+00  0.88000000000E+00 0.  1.
        -11    1    4    4    0    0  0.59014714316E-01 -0.93837466009E-01 -0.17308662056E-01  0.11219651258E+00  0.51100000000E-03 0.  1.
         11    1    4    4    0    0  0.19114833473E-01 -0.58630213901E-02 -0.17577227448E-01  0.26626526703E-01  0.51100000000E-03 0. -1.
</event>
<event>
 8    1  0.2924722E+004  0.1043930E+01  0.7957747E-01            NaN
         13   -1    0    0    0    0  0.00000000000E+00  0.00000000000E+00  0.74505805969E-08  0.10566000000E+00  0.10566000000E+00 0. -1.
     999900   -1    0    0    0    0 -0.00000000000E+00 -0.00000000000E+00 -0.74505805969E-08  0.93827000000E+00  0.93827000000E+00 0. -1.
     999902    2    1    2    0    0 -0.13655639266E-01  0.13897575709E-02  0.91935586648E-02  0.10274094240E+01  0.10272765913E+01 0.  0.
     999903    2    3    3    0    0  0.10473274116E+00 -0.66261138522E-01  0.35198707007E-01  0.13652855650E+00  0.45184203176E-01 0.  0.
         14    1    1    2    0    0  0.13655639266E-01 -0.13897575709E-02 -0.91935586648E-02  0.16520575982E-01  0.00000000000E+00 0. -1.
     999901    1    3    3    0    0 -0.11838838043E+00  0.67650896093E-01 -0.26005148342E-01  0.89088086751E+00  0.88000000000E+00 0.  1.
        -11    1    4    4    0    0  0.71840630810E-01 -0.21671673950E-01  0.30212511320E-01  0.80893724405E-01  0.51100000000E-03 0. -1.
         11    1    4    4    0    0  0.32892110352E-01 -0.44589464571E-01  0.49861956871E-02  0.55634832098E-01  0.51100000000E-03 0.  1.
</event>
<event>
 8    1  0.2924722E+004  0.1043930E+01  0.7957747E-01            NaN
         13   -1    0    0    0    0  0.00000000000E+00  0.00000000000E+00  0.74505805969E-08  0.10566000000E+00  0.10566000000E+00 0. -1.
     999900   -1    0    0    0    0 -0.00000000000E+00 -0.00000000000E+00 -0.74505805969E-08  0.93827000000E+00  0.93827000000E+00 0.  1.
     999902    2    1    2    0    0 -0.10099342985E-01  0.99782311023E-02 -0.20652748820E-03  0.10297312508E+01  0.10296333544E+01 0.  0.
     999903    2    3    3    0    0 -0.10742877156E+00 -0.49187993890E-01 -0.61409950713E-01  0.14028225349E+00  0.44130815706E-01 0.  0.
         14    1    1    2    0    0  0.10099342985E-01 -0.99782311023E-02  0.20652748820E-03  0.14198749180E-01  0.00000000000E+00 0.  1.
     999901    1    3    3    0    0  0.97329428573E-01  0.59166224992E-01  0.61203423224E-01  0.88944899734E+00  0.88000000000E+00 0. -1.
        -11    1    4    4    0    0 -0.79221442703E-01 -0.46986086117E-01 -0.63548912793E-01  0.11190377434E+00  0.51100000000E-03 0.  1.
         11    1    4    4    0    0 -0.28207328856E-01 -0.22019077726E-02  0.21389620805E-02  0.28378479149E-01  0.51100000000E-03 0. -1.
</event>
<event>
 8    1  0.2924722E+004  0.1043930E+01  0.7957747E-01            NaN
         13   -1    0    0    0    0  0.00000000000E+00  0.00000000000E+00  0.74505805969E-08  0.10566000000E+00  0.10566000000E+00 0. -1.
     999900   -1    0    0    0    0 -0.00000000000E+00 -0.00000000000E+00 -0.74505805969E-08  0.93827000000E+00  0.93827000000E+00 0. -1.
     999902    2    1    2    0    0  0.10627461884E-01 -0.44713667590E-03  0.91195041078E-02  0.10299189960E+01  0.10298236889E+01 0.  0.
     999903    2    3    3    0    0  0.71742058542E-01  0.10823718152E+00  0.31043563505E-01  0.14085885220E+00  0.44892126055E-01 0.  0.
         14    1    1    2    0    0 -0.10627461884E-01  0.44713667590E-03 -0.91195041078E-02  0.14011003978E-01  0.00000000000E+00 0.  1.
     999901    1    3    3    0    0 -0.61114596658E-01 -0.10868431820E+00 -0.21924059397E-01  0.88906014382E+00  0.88000000000E+00 0. -1.
        -11    1    4    4    0    0  0.45621945153E-01  0.79326940701E-01  0.76979645041E-03  0.91514911944E-01  0.51100000000E-03 0.  1.
         11    1    4    4    0    0  0.26120113389E-01  0.28910240818E-01  0.30273767054E-01  0.49343940259E-01  0.51100000000E-03 0. -1.
</event>
<event>
 8    1  0.2924722E+004  0.1043930E+01  0.7957747E-01            NaN
         13   -1    0    0    0    0  0.00000000000E+00  0.00000000000E+00  0.74505805969E-08  0.10566000000E+00  0.10566000000E+00 0. -1.
     999900   -1    0    0    0    0 -0.00000000000E+00 -0.00000000000E+00 -0.74505805969E-08  0.93827000000E+00  0.93827000000E+00 0. -1.
     999902    2    1    2    0    0 -0.13174500757E-02 -0.10642495416E-01 -0.10007417638E-01  0.10292621170E+01  0.10291575966E+01 0.  0.
     999903    2    3    3    0    0 -0.58755273511E-01  0.26808133962E-01  0.11337912207E+00  0.13801249352E+00  0.44964039354E-01 0.  0.
         14    1    1    2    0    0  0.13174500757E-02  0.10642495416E-01  0.10007417638E-01  0.14667882981E-01  0.00000000000E+00 0. -1.
     999901    1    3    3    0    0  0.57437823435E-01 -0.37450629378E-01 -0.12338653971E+00  0.89124962350E+00  0.88000000000E+00 0. -1.
        -11    1    4    4    0    0 -0.64503764177E-01  0.22230650534E-01  0.86655311863E-01  0.11029207411E+00  0.51100000000E-03 0. -1.
         11    1    4    4    0    0  0.57484906662E-02  0.45774834278E-02  0.26723810207E-01  0.27720419413E-01  0.51100000000E-03 0.  1.
</event>
<event>
 8    1  0.2924722E+004  0.1043930E+01  0.7957747E-01            NaN
         13   -1    0    0    0    0  0.00000000000E+00  0.00000000000E+00  0.74505805969E-08  0.10566000000E+00  0.10566000000E+00 0.  1.
     999900   -1    0    0    0    0 -0.00000000000E+00 -0.00000000000E+00 -0.74505805969E-08  0.93827000000E+00  0.93827000000E+00 0. -1.
     999902    2    1    2    0    0  0.10127889734E-01  0.10606196562E-01 -0.46561529553E-02  0.10285434696E+01  0.10284283756E+01 0.  0.
     999903    2    3    3    0    0  0.12689927368E+00  0.12166109460E-01  0.37768651988E-01  0.13981524712E+00  0.43248033185E-01 0.  0.
         14    1    1    2    0    0 -0.10127889734E-01 -0.10606196562E-01  0.46561529553E-02  0.15386530353E-01  0.00000000000E+00 0. -1.
     999901    1    3    3    0    0 -0.11677138395E+00 -0.15599128981E-02 -0.42424804944E-01  0.88872822252E+00  0.88000000000E+00 0. -1.
        -11    1    4    4    0    0  0.69877430391E-01  0.21060781955E-02  0.42336160220E-01  0.81730670049E-01  0.51100000000E-03 0.  1.
         11    1    4    4    0    0  0.57021843291E-01  0.10060031265E-01 -0.45675082320E-02  0.58084577073E-01  0.51100000000E-03 0. -1.
</event>
<event>
 8    1  0.2924722E+004  0.1043930E+01  0.7957747E-01            NaN
         13   -1    0    0    0    0  0.00000000000E+00  0.00000000000E+00  0.74505805969E-08  0.10566000000E+00  0.10566000000E+00 0.  1.
     999900   -1    0    0    0    0 -0.00000000000E+00 -0.00000000000E+00 -0.74505805969E-08  0.93827000000E+00  0.93827000000E+00 0. -1.
     999902    2    1    2    0    0 -0.45146193714E-02  0.19351207276E-03  0.15343441367E-01  0.10279349874E+01  0.10278105360E+01 0.  0.
     999903    2    3    3    0    0 -0.22412010829E-01  0.97517181515E-01 -0.86535946300E-01  0.13654751672E+00  0.33835711918E-01 0.  0.
         14    1    1    2    0    0  0.45146193714E-02 -0.19351207276E-03 -0.15343441367E-01  0.15995012597E-01  0.00000000000E+00 0. -1.
     999901    1    3    3    0    0  0.17897391458E-01 -0.97323669442E-01  0.10187938767E+00  0.89138747068E+00  0.88000000000E+00 0. -1.
        -11    1    4    4    0    0 -0.16837948870E-01  0.79914918952E-01 -0.50416235858E-01  0.95979001622E-01  0.51100000000E-03 0. -1.
         11    1    4    4    0    0 -0.55740619588E-02  0.17602262563E-01 -0.36119710442E-01  0.40568515101E-01  0.51100000000E-03 0.  1.
</event>
<event>
 8    1  0.2924722E+004  0.1043930E+01  0.7957747E-01            NaN
         13   -1    0    0    0    0  0.00000000000E+00  0.00000000000E+00  0.74505805969E-08  0.10566000000E+00  0.10566000000E+00 0.  1.
     999900   -1    0    0    0    0 -0.00000000000E+00 -0.00000000000E+00 -0.74505805969E-08  0.93827000000E+00  0.93827000000E+00 0.  1.
     999902    2    1    2    0    0  0.12150433618E-01  0.43111946941E-02 -0.45553807312E-02  0.10302562686E+01  0.10301655246E+01 0.  0.
     999903    2    3    3    0    0  0.12569276439E+00  0.54543378675E-01  0.13357850363E-01  0.14136031460E+00  0.32103819108E-01 0.  0.
         14    1    1    2    0    0 -0.12150433618E-01 -0.43111946941E-02  0.45553807312E-02  0.13673731400E-01  0.00000000000E+00 0. -1.
     999901    1    3    3    0    0 -0.11354233077E+00 -0.50232183981E-01 -0.17913231094E-01  0.88889595400E+00  0.88000000000E+00 0.  1.
        -11    1    4    4    0    0  0.90465862773E-01  0.23022723990E-01  0.11428978168E-01  0.94047864464E-01  0.51100000000E-03 0. -1.
         11    1    4    4    0    0  0.35226901615E-01  0.31520654685E-01  0.19288721943E-02  0.47312450139E-01  0.51100000000E-03 0.  1.
</event>
<event>
 8    1  0.2924722E+004  0.1043930E+01  0.7957747E-01            NaN
         13   -1    0    0    0    0  0.00000000000E+00  0.00000000000E+00  0.74505805969E-08  0.10566000000E+00  0.10566000000E+00 0.  1.
     999900   -1    0    0    0    0 -0.00000000000E+00 -0.00000000000E+00 -0.74505805969E-08  0.93827000000E+00  0.93827000000E+00 0. -1.
     999902    2    1    2    0    0 -0.48224389083E-02  0.11506322614E-01 -0.50774641121E-02  0.10304603297E+01  0.10303722915E+01 0.  0.
     999903    2    3    3    0    0  0.11993461525E+00  0.18214712439E-01  0.49397871714E-01  0.13996783263E+00  0.49343254428E-01 0.  0.
         14    1    1    2    0    0  0.48224389083E-02 -0.11506322614E-01  0.50774641121E-02  0.13469670335E-01  0.00000000000E+00 0.  1.
     999901    1    3    3    0    0 -0.12475705416E+00 -0.67083898247E-02 -0.54475335826E-01  0.89049249703E+00  0.88000000000E+00 0. -1.
        -11    1    4    4    0    0  0.13995854245E-01  0.20694299913E-01  0.98695055154E-02  0.26866452037E-01  0.51100000000E-03 0.  1.
         11    1    4    4    0    0  0.10593876101E+00 -0.24795874737E-02  0.39528366199E-01  0.11310138060E+00  0.51100000000E-03 0. -1.
</event>
<event>
 8    1  0.2924722E+004  0.1043930E+01  0.7957747E-01            NaN
         13   -1    0    0    0    0  0.00000000000E+00  0.00000000000E+00  0.74505805969E-08  0.10566000000E+00  0.10566000000E+00 0.  1.
     999900   -1    0    0    0    0 -0.00000000000E+00 -0.00000000000E+00 -0.74505805969E-08  0.93827000000E+00  0.93827000000E+00 0. -1.
     999902    2    1    2    0    0 -0.96493471997E-02 -0.66905315816E-02  0.84759939136E-02  0.10294484398E+01  0.10293465765E+01 0.  0.
     999903    2    3    3    0    0  0.52188877836E-01  0.90401558509E-01  0.79993864256E-01  0.13907455997E+00  0.45239298857E-01 0.  0.
         14    1    1    2    0    0  0.96493471997E-02  0.66905315816E-02 -0.84759939136E-02  0.14481560242E-01  0.00000000000E+00 0.  1.
     999901    1    3    3    0    0 -0.61838225035E-01 -0.97092090091E-01 -0.71517870342E-01  0.89037387979E+00  0.88000000000E+00 0. -1.
        -11    1    4    4    0    0  0.23913399088E-01  0.63322935822E-01  0.26296212075E-01  0.72618157148E-01  0.51100000000E-03 0.  1.
         11    1    4    4    0    0  0.28275478748E-01  0.27078622687E-01  0.53697652181E-01  0.66456402820E-01  0.51100000000E-03 0. -1.
</event>
<event>
 8    1  0.2924722E+004  0.1043930E+01  0.7957747E-01            NaN
         13   -1    0    0    0    0  0.00000000000E+00  0.00000000000E+00  0.74505805969E-08  0.10566000000E+00  0.10566000000E+00 0. -1.
     999900   -1    0    0    0    0 -0.00000000000E+00 -0.00000000000E+00 -0.74505805969E-08  0.93827000000E+00  0.93827000000E+00 0.  1.
     999902    2    1    2    0    0  0.75673497474E-02 -0.45886688525E-02 -0.10788666363E-01  0.10299759330E+01  0.10298814041E+01 0.  0.
     999903    2    3    3    0    0  0.11421834348E+00 -0.40221525580E-01  0.55565496487E-01  0.14034285702E+00  0.44102063543E-01 0.  0.
         14    1    1    2    0    0 -0.75673497474E-02  0.45886688525E-02  0.10788666363E-01  0.13954067003E-01  0.00000000000E+00 0. -1.
     999901    1    3    3    0    0 -0.10665099374E+00  0.35632856728E-01 -0.66354162851E-01  0.88963307598E+00  0.88000000000E+00 0.  1.
        -11    1    4    4    0    0  0.82990089732E-01 -0.93454025852E-02  0.46178646325E-01  0.95432803797E-01  0.51100000000E-03 0.  1.
         11    1    4    4    0    0  0.31228253751E-01 -0.30876122995E-01  0.93868501624E-02  0.44910053224E-01  0.51100000000E-03 0. -1.
</event>
<event>
 8    1  0.2924722E+004  0.1043930E+01  0.7957747E-01            NaN
         13   -1    0    0    0    0  0.00000000000E+00  0.00000000000E+00  0.74505805969E-08  0.10566000000E+00  0.10566000000E+00 0. -1.
     999900   -1    0    0    0    0 -0.00000000000E+00 -0.00000000000E+00 -0.74505805969E-08  0.93827000000E+00  0.93827000000E+00 0. -1.
     999902    2    1    2    0    0 -0.51014780449E-02  0.25285971855E-02 -0.17341694511E-01  0.10256775139E+01  0.10255150946E+01 0.  0.
     999903    2    3    3    0    0  0.55531356820E-01 -0.10545310634E+00 -0.47303588706E-01  0.13650143227E+00  0.46807288749E-01 0.  0.
         14    1    1    2    0    0  0.51014780449E-02 -0.25285971855E-02  0.17341694511E-01  0.18252486145E-01  0.00000000000E+00 0. -1.
     999901    1    3    3    0    0 -0.60632834865E-01  0.10798170353E+00  0.29961894195E-01  0.88917608159E+00  0.88000000000E+00 0.  1.
        -11    1    4    4    0    0  0.60825566628E-01 -0.76386793516E-01 -0.42784402428E-01  0.10660890203E+00  0.51100000000E-03 0. -1.
         11    1    4    4    0    0 -0.52942098078E-02 -0.29066312824E-01 -0.45191862779E-02  0.29892530243E-01  0.51100000000E-03 0.  1.
</event>
<event>
 8    1  0.2924722E+004  0.1043930E+01  0.7957747E-01            NaN
         13   -1    0    0    0    0  0.00000000000E+00  0.00000000000E+00  0.74505805969E-08  0.10566000000E+00  0.10566000000E+00 0.  1.
     999900   -1    0    0    0    0 -0.00000000000E+00 -0.00000000000E+00 -0.74505805969E-08  0.93827000000E+00  0.93827000000E+00 0.  1.
     999902    2    1    2    0    0  0.47872794742E-02  0.12740571589E-01 -0.13667652143E-02  0.10302512480E+01  0.10301604369E+01 0.  0.
     999903    2    3    3    0    0  0.10028328932E+00  0.78045094416E-01  0.42759103682E-01  0.14158299668E+00  0.45493176649E-01 0.  0.
         14    1    1    2    0    0 -0.47872794742E-02 -0.12740571589E-01  0.13667652143E-02  0.13678752002E-01  0.00000000000E+00 0. -1.
     999901    1    3    3    0    0 -0.95496009845E-01 -0.65304522827E-01 -0.44125868896E-01  0.88866825132E+00  0.88000000000E+00 0.  1.
        -11    1    4    4    0    0  0.63092559289E-01  0.22887287659E-01  0.31377128075E-01  0.74089704151E-01  0.51100000000E-03 0. -1.
         11    1    4    4    0    0  0.37190730030E-01  0.55157806757E-01  0.11381975607E-01  0.67493292527E-01  0.51100000000E-03 0.  1.
</event>
<event>
 8    1  0.2924722E+004  0.1043930E+01  0.7957747E-01            NaN
         13   -1    0    0    0    0  0.00000000000E+00  0.00000000000E+00  0.74505805969E-08  0.10566000000E+00  0.10566000000E+00 0. -1.
     999900   -1    0    0    0    0 -0.00000000000E+00 -0.00000000000E+00 -0.74505805969E-08  0.93827000000E+00  0.93827000000E+00 0.  1.
     999902    2    1    2    0    0 -0.84185115008E-02  0.88231886741E-03  0.99099513273E-02  0.10308970818E+01  0.10308146954E+01 0.  0.
     999903    2    3    3    0    0  0.46789606586E-01 -0.80331454046E-01  0.96485149982E-01  0.14121237456E+00  0.44599784386E-01 0.  0.
         14    1    1    2    0    0  0.84185115008E-02 -0.88231886741E-03 -0.99099513273E-02  0.13032918237E-01  0.00000000000E+00 0.  1.
     999901    1    3    3    0    0 -0.55208118087E-01  0.81213772913E-01 -0.86575198655E-01  0.88968470721E+00  0.88000000000E+00 0.  1.
        -11    1    4    4    0    0  0.12184649268E-01 -0.32234837862E-01  0.91240687646E-02  0.35651931247E-01  0.51100000000E-03 0.  1.
         11    1    4    4    0    0  0.34604957318E-01 -0.48096616183E-01  0.87361081218E-01  0.10556044331E+00  0.51100000000E-03 0. -1.
</event>
<event>
 8    1  0.2924722E+004  0.1043930E+01  0.7957747E-01            NaN
         13   -1    0    0    0    0  0.00000000000E+00  0.00000000000E+00  0.74505805969E-08  0.10566000000E+00  0.10566000000E+00 0.  1.
     999900   -1    0    0    0    0 -0.00000000000E+00 -0.00000000000E+00 -0.74505805969E-08  0.93827000000E+00  0.93827000000E+00 0.  1.
     999902    2    1    2    0    0  0.79923217438E-02  0.51120220873E-02  0.92560398517E-02  0.10306754064E+01  0.10305901752E+01 0.  0.
     999903    2    3    3    0    0 -0.10104493171E+00 -0.83920323602E-01  0.10162450552E-01  0.13948704094E+00  0.45832960311E-01 0.  0.
         14    1    1    2    0    0 -0.79923217438E-02 -0.51120220873E-02 -0.92560398517E-02  0.13254593559E-01  0.00000000000E+00 0. -1.
     999901    1    3    3    0    0  0.10903725346E+00  0.89032345689E-01 -0.90641070067E-03  0.89118836550E+00  0.88000000000E+00 0. -1.
        -11    1    4    4    0    0 -0.44225112517E-01 -0.64809041513E-01  0.12699757346E-01  0.79483441021E-01  0.51100000000E-03 0.  1.
         11    1    4    4    0    0 -0.56819819197E-01 -0.19111282090E-01 -0.25373067936E-02  0.60003599921E-01  0.51100000000E-03 0. -1.
</event>
<event>
 8    1  0.2924722E+004  0.1043930E+01  0.7957747E-01            NaN
         13   -1    0    0    0    0  0.00000000000E+00  0.00000000000E+00  0.74505805969E-08  0.10566000000E+00  0.10566000000E+00 0. -1.
     999900   -1    0    0    0    0 -0.00000000000E+00 -0.00000000000E+00 -0.74505805969E-08  0.93827000000E+00  0.93827000000E+00 0.  1.
     999902    2    1    2    0    0 -0.23911908511E-04 -0.92490030173E-02  0.99516663781E-02  0.10303439670E+01  0.10302543909E+01 0.  0.
     999903    2    3    3    0    0  0.86244083645E-01 -0.11782906803E-01 -0.99162548362E-01  0.13941495773E+00  0.45016003651E-01 0.  0.
         14    1    1    2    0    0  0.23911908511E-04  0.92490030173E-02 -0.99516663781E-02  0.13586032986E-01  0.00000000000E+00 0.  1.
     999901    1    3    3    0    0 -0.86267995554E-01  0.25339037859E-02  0.10911421474E+00  0.89092900928E+00  0.88000000000E+00 0. -1.
        -11    1    4    4    0    0  0.68294957644E-02  0.12149586282E-01 -0.22481066375E-01  0.26455886407E-01  0.51100000000E-03 0.  1.
         11    1    4    4    0    0  0.79414587881E-01 -0.23932493085E-01 -0.76681481987E-01  0.11295907132E+00  0.51100000000E-03 0. -1.
</event>
<event>
 8    1  0.2924722E+004  0.1043930E+01  0.7957747E-01            NaN
         13   -1    0    0    0    0  0.00000000000E+00  0.00000000000E+00  0.74505805969E-08  0.10566000000E+00  0.10566000000E+00 0. -1.
     999900   -1    0    0    0    0 -0.00000000000E+00 -0.00000000000E+00 -0.74505805969E-08  0.93827000000E+00  0.93827000000E+00 0. -1.
     999902    2    1    2    0    0 -0.11887471249E-01 -0.80069525401E-02  0.87400256087E-03  0.10295707820E+01  0.10294706445E+01 0.  0.
     999903    2    3    3    0    0  0.33135536083E-01  0.69769478867E-01 -0.10655465221E+00  0.13849437654E+00  0.43139940800E-01 0.  0.
         14    1    1    2    0    0  0.11887471249E-01  0.80069525401E-02 -0.87400256087E-03  0.14359218021E-01  0.00000000000E+00 0. -1.
     999901    1    3    3    0    0 -0.45023007333E-01 -0.77776431407E-01  0.10742865477E+00  0.89107640544E+00  0.88000000000E+00 0.  1.
        -11    1    4    4    0    0  0.25919020625E-01  0.22767031147E-01 -0.20388462709E-01  0.40075976221E-01  0.51100000000E-03 0.  1.
         11    1    4    4    0    0  0.72165154581E-02  0.47002447721E-01 -0.86166189498E-01  0.98418400316E-01  0.51100000000E-03 0. -1.
</event>
<event>
 8    1  0.2924722E+004  0.1043930E+01  0.7957747E-01            NaN
         13   -1    0    0    0    0  0.00000000000E+00  0.00000000000E+00  0.74505805969E-08  0.10566000000E+00  0.10566000000E+00 0.  1.
     999900   -1    0    0    0    0 -0.00000000000E+00 -0.00000000000E+00 -0.74505805969E-08  0.93827000000E+00  0.93827000000E+00 0. -1.
     999902    2    1    2    0    0  0.65628997300E-02  0.63755568794E-02  0.10054289416E-01  0.10303355852E+01  0.10302458978E+01 0.  0.
     999903    2    3    3    0    0  0.83653584383E-01  0.70811562252E-01  0.78493692587E-01  0.14197815467E+00  0.44545898794E-01 0.  0.
         14    1    1    2    0    0 -0.65628997300E-02 -0.63755568794E-02 -0.10054289416E-01  0.13594414811E-01  0.00000000000E+00 0. -1.
     999901    1    3    3    0    0 -0.77090684653E-01 -0.64436005373E-01 -0.68439403172E-01  0.88835743052E+00  0.88000000000E+00 0. -1.
        -11    1    4    4    0    0  0.25151652131E-01  0.42944785557E-01  0.51969463264E-01  0.71957949140E-01  0.51100000000E-03 0. -1.
         11    1    4    4    0    0  0.58501932252E-01  0.27866776695E-01  0.26524229323E-01  0.70020205532E-01  0.51100000000E-03 0.  1.
</event>
<event>
 8    1  0.2924722E+004  0.1043930E+01  0.7957747E-01            NaN
         13   -1    0    0    0    0  0.00000000000E+00  0.00000000000E+00  0.74505805969E-08  0.10566000000E+00  0.10566000000E+00 0. -1.
     999900   -1    0    0    0    0 -0.00000000000E+00 -0.00000000000E+00 -0.74505805969E-08  0.93827000000E+00  0.93827000000E+00 0. -1.
     999902    2    1    2    0    0  0.10274930179E-01 -0.91085105280E-02  0.17757138333E-02  0.10300847007E+01  0.10299916496E+01 0.  0.
     999903    2    3    3    0    0  0.89033776203E-01 -0.88694495957E-01  0.48874290316E-01  0.14174064523E+00  0.43680514411E-01 0.  0.
         14    1    1    2    0    0 -0.10274930179E-01  0.91085105280E-02 -0.17757138333E-02  0.13845299341E-01  0.00000000000E+00 0.  1.
     999901    1    3    3    0    0 -0.78758846024E-01  0.79585985429E-01 -0.47098576482E-01  0.88834405543E+00  0.88000000000E+00 0. -1.
        -11    1    4    4    0    0  0.58361695801E-01 -0.36113567455E-01  0.42034148088E-01  0.80482345999E-01  0.51100000000E-03 0. -1.
         11    1    4    4    0    0  0.30672080402E-01 -0.52580928502E-01  0.68401422278E-02  0.61258299234E-01  0.51100000000E-03 0.  1.
</event>
<event>
 8    1  0.2924722E+004  0.1043930E+01  0.7957747E-01            NaN
         13   -1    0    0    0    0  0.00000000000E+00  0.00000000000E+00  0.74505805969E-08  0.10566000000E+00  0.10566000000E+00 0. -1.
     999900   -1    0    0    0    0 -0.00000000000E+00 -0.00000000000E+00 -0.74505805969E-08  0.93827000000E+00  0.93827000000E+00 0. -1.
     999902    2    1    2    0    0 -0.16027417519E-02  0.25035105809E-02  0.16666113983E-01  0.10270008623E+01  0.10268613225E+01 0.  0.
     999903    2    3    3    0    0 -0.36961355347E-02 -0.12037483488E+00 -0.45783346312E-01  0.13626891323E+00  0.44377242189E-01 0.  0.
         14    1    1    2    0    0  0.16027417519E-02 -0.25035105809E-02 -0.16666113983E-01  0.16929137652E-01  0.00000000000E+00 0.  1.
     999901    1    3    3    0    0  0.20933937828E-02  0.12287834546E+00  0.62449460295E-01  0.89073194911E+00  0.88000000000E+00 0.  1.
        -11    1    4    4    0    0 -0.10329457667E-01 -0.63079088726E-01 -0.21740766021E-02  0.63958243099E-01  0.51100000000E-03 0. -1.
         11    1    4    4    0    0  0.66333221319E-02 -0.57295746154E-01 -0.43609269710E-01  0.72310670136E-01  0.51100000000E-03 0.  1.
</event>
<event>
 8    1  0.2924722E+004  0.1043930E+01  0.7957747E-01            NaN
         13   -1    0    0    0    0  0.00000000000E+00  0.00000000000E+00  0.74505805969E-08  0.10566000000E+00  0.10566000000E+00 0.  1.
     999900   -1    0    0    0    0 -0.00000000000E+00 -0.00000000000E+00 -0.74505805969E-08  0.93827000000E+00  0.93827000000E+00 0. -1.
     999902    2    1    2    0    0  0.56080864388E-02 -0.12470173420E-01  0.17815844694E-02  0.10301412400E+01  0.10300489525E+01 0.  0.
     999903    2    3    3    0    0  0.22552461602E-01  0.12840140976E+00  0.11340422129E-01  0.13872479067E+00  0.46048092453E-01 0.  0.
         14    1    1    2    0    0 -0.56080864388E-02  0.12470173420E-01 -0.17815844694E-02  0.13788759982E-01  0.00000000000E+00 0.  1.
     999901    1    3    3    0    0 -0.16944375163E-01 -0.14087158318E+00 -0.95588376596E-02  0.89141644935E+00  0.88000000000E+00 0. -1.
        -11    1    4    4    0    0  0.59079675073E-02  0.37237010027E-01  0.24725968976E-01  0.45090283417E-01  0.51100000000E-03 0.  1.
         11    1    4    4    0    0  0.16644494095E-01  0.91164399734E-01 -0.13385546847E-01  0.93634507250E-01  0.51100000000E-03 0. -1.
</event>
<event>
 8    1  0.2924722E+004  0.1043930E+01  0.7957747E-01            NaN
         13   -1    0    0    0    0  0.00000000000E+00  0.00000000000E+00  0.74505805969E-08  0.10566000000E+00  0.10566000000E+00 0.  1.
     999900   -1    0    0    0    0 -0.00000000000E+00 -0.00000000000E+00 -0.74505805969E-08  0.93827000000E+00  0.93827000000E+00 0. -1.
     999902    2    1    2    0    0 -0.13471818962E-01 -0.23388944856E-02 -0.30819281288E-02  0.10299136305E+01  0.10298182498E+01 0.  0.
     999903    2    3    3    0    0 -0.72231834857E-01  0.11259339221E+00 -0.13888573295E-01  0.14043122280E+00  0.40414427270E-01 0.  0.
         14    1    1    2    0    0  0.13471818962E-01  0.23388944856E-02  0.30819281288E-02  0.14016369521E-01  0.00000000000E+00 0.  1.
     999901    1    3    3    0    0  0.58760015895E-01 -0.11493228670E+00  0.10806645166E-01  0.88948240768E+00  0.88000000000E+00 0.  1.
        -11    1    4    4    0    0 -0.49636643946E-01  0.99673904281E-01 -0.93715232757E-03  0.11135449247E+00  0.51100000000E-03 0. -1.
         11    1    4    4    0    0 -0.22595190911E-01  0.12919487932E-01 -0.12951420967E-01  0.29076730332E-01  0.51100000000E-03 0.  1.
</event>
<event>
 8    1  0.2924722E+004  0.1043930E+01  0.7957747E-01            NaN
         13   -1    0    0    0    0  0.00000000000E+00  0.00000000000E+00  0.74505805969E-08  0.10566000000E+00  0.10566000000E+00 0.  1.
     999900   -1    0    0    0    0 -0.00000000000E+00 -0.00000000000E+00 -0.74505805969E-08  0.93827000000E+00  0.93827000000E+00 0. -1.
     999902    2    1    2    0    0  0.61422375352E-02 -0.96744680767E-02 -0.89054024359E-02  0.10294169505E+01  0.10293146406E+01 0.  0.
     999903    2    3    3    0    0  0.42519067275E-01  0.66699936074E-01  0.10388990875E+00  0.13819357465E+00  0.45250396470E-01 0.  0.
         14    1    1    2    0    0 -0.61422375352E-02  0.96744680767E-02  0.89054024359E-02  0.14513049544E-01  0.00000000000E+00 0.  1.
     999901    1    3    3    0    0 -0.36376829740E-01 -0.76374404151E-01 -0.11279531119E+00  0.89122337580E+00  0.88000000000E+00 0. -1.
        -11    1    4    4    0    0  0.15304955445E-01  0.10879671737E-01  0.20292815555E-02  0.18894126678E-01  0.51100000000E-03 0.  1.
         11    1    4    4    0    0  0.27214111830E-01  0.55820264337E-01  0.10186062720E+00  0.11929944798E+00  0.51100000000E-03 0. -1.
</event>
<event>
 8    1  0.2924722E+004  0.1043930E+01  0.7957747E-01            NaN
         13   -1    0    0    0    0  0.00000000000E+00  0.00000000000E+00  0.74505805969E-08  0.10566000000E+00  0.10566000000E+00 0. -1.
     999900   -1    0    0    0    0 -0.00000000000E+00 -0.00000000000E+00 -0.74505805969E-08  0.93827000000E+00  0.93827000000E+00 0. -1.
     999902    2    1    2    0    0 -0.28861179110E-02 -0.13075410783E-01 -0.29692257170E-02  0.10302145946E+01  0.10301232929E+01 0.  0.
     999903    2    3    3    0    0 -0.47458055364E-01 -0.73471092105E-01  0.10107931128E+00  0.14091127516E+00  0.44594751989E-01 0.  0.
         14    1    1    2    0    0  0.28861179110E-02  0.13075410783E-01  0.29692257170E-02  0.13715405393E-01  0.00000000000E+00 0. -1.
     999901    1    3    3    0    0  0.44571937453E-01  0.60395681322E-01 -0.10404853699E+00  0.88930331945E+00  0.88000000000E+00 0. -1.
        -11    1    4    4    0    0 -0.38800739395E-01 -0.35371807918E-01  0.82143423738E-01  0.97490847557E-01  0.51100000000E-03 0. -1.
         11    1    4    4    0    0 -0.86573159686E-02 -0.38099284186E-01  0.18935887539E-01  0.43420427602E-01  0.51100000000E-03 0.  1.
</event>
<event>
 8    1  0.2924722E+004  0.1043930E+01  0.7957747E-01            NaN
         13   -1    0    0    0    0  0.00000000000E+00  0.00000000000E+00  0.74505805969E-08  0.10566000000E+00  0.10566000000E+00 0.  1.
     999900   -1    0    0    0    0 -0.00000000000E+00 -0.00000000000E+00 -0.74505805969E-08  0.93827000000E+00  0.93827000000E+00 0.  1.
     999902    2    1    2    0    0  0.80525763857E-02  0.63127245542E-02  0.75594741203E-02  0.10312083599E+01  0.10311298858E+01 0.  0.
     999903    2    3    3    0    0  0.99008746357E-01  0.14547276906E-01 -0.89340634102E-01  0.14119124564E+00  0.44032531422E-01 0.  0.
         14    1    1    2    0    0 -0.80525763857E-02 -0.63127245542E-02 -0.75594741203E-02  0.12721640096E-01  0.00000000000E+00 0. -1.
     999901    1    3    3    0    0 -0.90956169971E-01 -0.82345523516E-02  0.96900108222E-01  0.89001711426E+00  0.88000000000E+00 0. -1.
        -11    1    4    4    0    0  0.21259612953E-01  0.84414779743E-02 -0.37793859630E-03  0.22883042890E-01  0.51100000000E-03 0. -1.
         11    1    4    4    0    0  0.77749133404E-01  0.61057989314E-02 -0.88962695506E-01  0.11830820275E+00  0.51100000000E-03 0.  1.
</event>
<event>
 8    1  0.2924722E+004  0.1043930E+01  0.7957747E-01            NaN
         13   -1    0    0    0    0  0.00000000000E+00  0.00000000000E+00  0.74505805969E-08  0.10566000000E+00  0.10566000000E+00 0. -1.
     999900   -1    0    0    0    0 -0.00000000000E+00 -0.00000000000E+00 -0.74505805969E-08  0.93827000000E+00  0.93827000000E+00 0.  1.
     999902    2    1    2    0    0  0.83708162219E-02 -0.77976720654E-02  0.77214070622E-02  0.10301280298E+01  0.10300355642E+01 0.  0.
     999903    2    3    3    0    0  0.10257890618E+00  0.57059182314E-01  0.63781128293E-01  0.14095747918E+00  0.44975508129E-01 0.  0.
         14    1    1    2    0    0 -0.83708162219E-02  0.77976720654E-02 -0.77214070622E-02  0.13801970181E-01  0.00000000000E+00 0. -1.
     999901    1    3    3    0    0 -0.94208089960E-01 -0.64856854379E-01 -0.56059721231E-01  0.88917055064E+00  0.88000000000E+00 0.  1.
        -11    1    4    4    0    0  0.41647115835E-01  0.83471269454E-02  0.42514515179E-01  0.60099100722E-01  0.51100000000E-03 0.  1.
         11    1    4    4    0    0  0.60931790346E-01  0.48712055368E-01  0.21266613114E-01  0.80858378461E-01  0.51100000000E-03 0. -1.
</event>
<event>
 8    1  0.2924722E+004  0.1043930E+01  0.7957747E-01            NaN
         13   -1    0    0    0    0  0.00000000000E+00  0.00000000000E+00  0.74505805969E-08  0.10566000000E+00  0.10566000000E+00 0. -1.
     999900   -1    0    0    0    0 -0.00000000000E+00 -0.00000000000E+00 -0.74505805969E-08  0.93827000000E+00  0.93827000000E+00 0. -1.
     999902    2    1    2    0    0  0.10570892085E-02 -0.12467738467E-01  0.51739974013E-02  0.10303899782E+01  0.10303010119E+01 0.  0.
     999903    2    3    3    0    0 -0.29975647133E-01  0.84092400951E-01 -0.96149352611E-01  0.13878843467E+00  0.45248870385E-01 0.  0.
         14    1    1    2    0    0 -0.10570892085E-02  0.12467738467E-01 -0.51739974013E-02  0.13540021758E-01  0.00000000000E+00 0.  1.
     999901    1    3    3    0    0  0.31032736341E-01 -0.96560139418E-01  0.10132335001E+00  0.89160154358E+00  0.88000000000E+00 0.  1.
        -11    1    4    4    0    0  0.10572890974E-01  0.25302446130E-01 -0.17420945665E-01  0.32492310977E-01  0.51100000000E-03 0.  1.
         11    1    4    4    0    0 -0.40548538107E-01  0.58789954820E-01 -0.78728406945E-01  0.10629612369E+00  0.51100000000E-03 0. -1.
</event>
<event>
 8    1  0.2924722E+004  0.1043930E+01  0.7957747E-01            NaN
         13   -1    0    0    0    0  0.00000000000E+00  0.00000000000E+00  0.74505805969E-08  0.10566000000E+00  0.10566000000E+00 0.  1.
     999900   -1    0    0    0    0 -0.00000000000E+00 -0.00000000000E+00 -0.74505805969E-08  0.93827000000E+00  0.93827000000E+00 0. -1.
     999902    2    1    2    0    0  0.10498517342E-01  0.83731096186E-02  0.31404860929E-02  0.10301390434E+01  0.10300467262E+01 0.  0.
     999903    2    3    3    0    0 -0.29683263655E-01 -0.10121620193E+00  0.78649592456E-01  0.13922601853E+00  0.45522633587E-01 0.  0.
         14    1    1    2    0    0 -0.10498517342E-01 -0.83731096186E-02 -0.31404860929E-02  0.13790956601E-01  0.00000000000E+00 0. -1.
     999901    1    3    3    0    0  0.40181780997E-01  0.10958931155E+00 -0.75509106363E-01  0.89091302486E+00  0.88000000000E+00 0.  1.
        -11    1    4    4    0    0  0.10862364053E-01 -0.31483246276E-01  0.15278249329E-01  0.36645214865E-01  0.51100000000E-03 0.  1.
         11    1    4    4    0    0 -0.40545627709E-01 -0.69732955655E-01  0.63371343127E-01  0.10258080367E+00  0.51100000000E-03 0. -1.
</event>
<event>
 7    1  0.2924722E+004  0.1043930E+01  0.7957747E-01            NaN
         13   -1    0    0    0    0  0.00000000000E+00  0.00000000000E+00  0.74505805969E-08  0.10566000000E+00  0.10566000000E+00 0. -1.
     999900   -1    0    0    0    0 -0.00000000000E+00 -0.00000000000E+00 -0.74505805969E-08  0.93827000000E+00  0.93827000000E+00 0.  1.
     999903    2    1    2    0    0  0.42334767851E-02  0.34626700256E-01 -0.80010991113E-01  0.98359484505E-01  0.45342020213E-01 0.  0.
         14    1    1    2    0    0 -0.31636741287E-01  0.53302077388E-02 -0.45157264286E-01  0.55393799577E-01  0.00000000000E+00 0.  1.
     999901    1    1    2    0    0  0.27403264502E-01 -0.39956907995E-01  0.12516825540E+00  0.89017671592E+00  0.88000000000E+00 0. -1.
        -11    1    3    3    0    0  0.12554099404E-01  0.60081074149E-03 -0.52016724909E-01  0.53516045974E-01  0.51100000000E-03 0. -1.
         11    1    3    3    0    0 -0.83206226191E-02  0.34025889515E-01 -0.27994266203E-01  0.44843438531E-01  0.51100000000E-03 0.  1.
</event>
<event>
 8    1  0.2924722E+004  0.1043930E+01  0.7957747E-01            NaN
         13   -1    0    0    0    0  0.00000000000E+00  0.00000000000E+00  0.74505805969E-08  0.10566000000E+00  0.10566000000E+00 0. -1.
     999900   -1    0    0    0    0 -0.00000000000E+00 -0.00000000000E+00 -0.74505805969E-08  0.93827000000E+00  0.93827000000E+00 0.  1.
     999902    2    1    2    0    0  0.98729023888E-02 -0.72047929119E-02  0.73592689872E-02  0.10296631825E+01  0.10295643386E+01 0.  0.
     999903    2    3    3    0    0  0.60578110503E-01  0.34671640542E-01 -0.11184075519E+00  0.13919515970E+00  0.44666629968E-01 0.  0.
         14    1    1    2    0    0 -0.98729023888E-02  0.72047929119E-02 -0.73592689872E-02  0.14266817533E-01  0.00000000000E+00 0.  1.
     999901    1    3    3    0    0 -0.50705208115E-01 -0.41876433454E-01  0.11920002418E+00  0.89046802277E+00  0.88000000000E+00 0. -1.
        -11    1    4    4    0    0  0.13465248585E-01  0.29703294829E-01 -0.64182908049E-01  0.71995176573E-01  0.51100000000E-03 0.  1.
         11    1    4    4    0    0  0.47112861918E-01  0.49683457132E-02 -0.47657847139E-01  0.67199983126E-01  0.51100000000E-03 0. -1.
</event>
<event>
 8    1  0.2924722E+004  0.1043930E+01  0.7957747E-01            NaN
         13   -1    0    0    0    0  0.00000000000E+00  0.00000000000E+00  0.74505805969E-08  0.10566000000E+00  0.10566000000E+00 0.  1.
     999900   -1    0    0    0    0 -0.00000000000E+00 -0.00000000000E+00 -0.74505805969E-08  0.93827000000E+00  0.93827000000E+00 0.  1.
     999902    2    1    2    0    0  0.23086333588E-02 -0.11956202919E-01 -0.69989902962E-02  0.10298848428E+01  0.10297890672E+01 0.  0.
     999903    2    3    3    0    0 -0.35712849774E-02 -0.69620370974E-01  0.11239931481E+00  0.13993221203E+00  0.45691004169E-01 0.  0.
         14    1    1    2    0    0 -0.23086333588E-02  0.11956202919E-01  0.69989902962E-02  0.14045157222E-01  0.00000000000E+00 0.  1.
     999901    1    3    3    0    0  0.58799183362E-02  0.57664168055E-01 -0.11939830511E+00  0.88995263075E+00  0.88000000000E+00 0.  1.
        -11    1    4    4    0    0 -0.22738575552E-01 -0.33468034994E-01  0.40800391254E-01  0.57463773214E-01  0.51100000000E-03 0.  1.
         11    1    4    4    0    0  0.19167290575E-01 -0.36152335980E-01  0.71598923557E-01  0.82468438814E-01  0.51100000000E-03 0. -1.
</event>
<event>
 8    1  0.2924722E+004  0.1043930E+01  0.7957747E-01            NaN
         13   -1    0    0    0    0  0.00000000000E+00  0.00000000000E+00  0.74505805969E-08  0.10566000000E+00  0.10566000000E+00 0.  1.
     999900   -1    0    0    0    0 -0.00000000000E+00 -0.00000000000E+00 -0.74505805969E-08  0.93827000000E+00  0.93827000000E+00 0. -1.
     999902    2    1    2    0    0  0.63424071336E-02  0.10742236348E-01  0.49564602354E-02  0.10305065776E+01  0.10304191469E+01 0.  0.
     999903    2    3    3    0    0  0.12371529796E+00 -0.31489383514E-01 -0.38201450313E-01  0.14066248429E+00  0.45050276997E-01 0.  0.
         14    1    1    2    0    0 -0.63424071336E-02 -0.10742236348E-01 -0.49564602354E-02  0.13423422368E-01  0.00000000000E+00 0. -1.
     999901    1    3    3    0    0 -0.11737289082E+00  0.42231619862E-01  0.43157910548E-01  0.88984409334E+00  0.88000000000E+00 0.  1.
        -11    1    4    4    0    0  0.60793048715E-01 -0.32218433768E-01 -0.37177071588E-02  0.68905041282E-01  0.51100000000E-03 0. -1.
         11    1    4    4    0    0  0.62922249241E-01  0.72905025406E-03 -0.34483743154E-01  0.71757443006E-01  0.51100000000E-03 0.  1.
</event>
<event>
 7    1  0.2924722E+004  0.1043930E+01  0.7957747E-01            NaN
         13   -1    0    0    0    0  0.00000000000E+00  0.00000000000E+00  0.74505805969E-08  0.10566000000E+00  0.10566000000E+00 0. -1.
     999900   -1    0    0    0    0 -0.00000000000E+00 -0.00000000000E+00 -0.74505805969E-08  0.93827000000E+00  0.93827000000E+00 0. -1.
     999902    2    1    2    0    0  0.12256724926E-01 -0.29127911533E-02 -0.69507052362E-02  0.10295416727E+01  0.10294411260E+01 0.  0.
         14    1    1    2    0    0 -0.12256724926E-01  0.29127911533E-02  0.69507052362E-02  0.14388327266E-01  0.00000000000E+00 0. -1.
     999901    1    3    3    0    0 -0.37739756518E-01  0.38885878860E-02 -0.12119138566E+00  0.88911571929E+00  0.88000000000E+00 0. -1.
        -11    1    3    3    0    0  0.34081276714E-01  0.20729432245E-01  0.28644665841E-01  0.49112328247E-01  0.51100000000E-03 0.  1.
         11    1    3    3    0    0  0.15915204731E-01 -0.27530811284E-01  0.85596014587E-01  0.91313625193E-01  0.51100000000E-03 0. -1.
</event>
<event>
 8    1  0.2924722E+004  0.1043930E+01  0.7957747E-01            NaN
         13   -1    0    0    0    0  0.00000000000E+00  0.00000000000E+00  0.74505805969E-08  0.10566000000E+00  0.10566000000E+00 0.  1.
     999900   -1    0    0    0    0 -0.00000000000E+00 -0.00000000000E+00 -0.74505805969E-08  0.93827000000E+00  0.93827000000E+00 0. -1.
     999902    2    1    2    0    0  0.44734544351E-02  0.14124860943E-02  0.12448302103E-01  0.10306271004E+01  0.10305412428E+01 0.  0.
     999903    2    3    3    0    0  0.84363574910E-01 -0.82452278466E-01  0.63984813399E-01  0.14154232266E+00  0.44995352665E-01 0.  0.
         14    1    1    2    0    0 -0.44734544351E-02 -0.14124860943E-02 -0.12448302103E-01  0.13302899564E-01  0.00000000000E+00 0. -1.
     999901    1    3    3    0    0 -0.79890120475E-01  0.83864764560E-01 -0.51536511295E-01  0.88908477778E+00  0.88000000000E+00 0.  1.
        -11    1    4    4    0    0  0.66957328960E-01 -0.51917160410E-01  0.23501282292E-01  0.87927508988E-01  0.51100000000E-03 0. -1.
         11    1    4    4    0    0  0.17406245950E-01 -0.30535118055E-01  0.40483531107E-01  0.53614813668E-01  0.51100000000E-03 0.  1.
</event>
<event>
 8    1  0.2924722E+004  0.1043930E+01  0.7957747E-01            NaN
         13   -1    0    0    0    0  0.00000000000E+00  0.00000000000E+00  0.74505805969E-08  0.10566000000E+00  0.10566000000E+00 0. -1.
     999900   -1    0    0    0    0 -0.00000000000E+00 -0.00000000000E+00 -0.74505805969E-08  0.93827000000E+00  0.93827000000E+00 0.  1.
     999902    2    1    2    0    0 -0.67623266388E-02 -0.13771537166E-01 -0.17081133259E-02  0.10284929683E+01  0.10283771117E+01 0.  0.
     999903    2    3    3    0    0 -0.95547623020E-01 -0.13556642078E-01 -0.90046266626E-01  0.13962486537E+00  0.45537260411E-01 0.  0.
         14    1    1    2    0    0  0.67623266388E-02  0.13771537166E-01  0.17081133259E-02  0.15437031730E-01  0.00000000000E+00 0. -1.
     999901    1    3    3    0    0  0.88785296382E-01 -0.21489508790E-03  0.88338153300E-01  0.88886810290E+00  0.88000000000E+00 0. -1.
        -11    1    4    4    0    0 -0.72864470216E-01 -0.17532871737E-01 -0.89294546268E-01  0.11657791268E+00  0.51100000000E-03 0. -1.
         11    1    4    4    0    0 -0.22683152805E-01  0.39762296581E-02 -0.75172035712E-03  0.23046952683E-01  0.51100000000E-03 0.  1.
</event>
<event>
 8    1  0.2924722E+004  0.1043930E+01  0.7957747E-01            NaN
         13   -1    0    0    0    0  0.00000000000E+00  0.00000000000E+00  0.74505805969E-08  0.10566000000E+00  0.10566000000E+00 0. -1.
     999900   -1    0    0    0    0 -0.00000000000E+00 -0.00000000000E+00 -0.74505805969E-08  0.93827000000E+00  0.93827000000E+00 0.  1.
     999902    2    1    2    0    0  0.13658219400E-02  0.97979548475E-02 -0.10377136924E-01  0.10295929724E+01  0.10294931464E+01 0.  0.
     999903    2    3    3    0    0  0.11099024685E+00  0.41267752859E-01  0.57681945485E-01  0.13962673632E+00  0.46330943645E-01 0.  0.
         14    1    1    2    0    0 -0.13658219400E-02 -0.97979548475E-02  0.10377136924E-01  0.14337027568E-01  0.00000000000E+00 0. -1.
     999901    1    3    3    0    0 -0.10962442491E+00 -0.31469798011E-01 -0.68059082409E-01  0.88996623611E+00  0.88000000000E+00 0. -1.
        -11    1    4    4    0    0  0.15746300873E-01  0.31207458160E-02  0.28904534182E-01  0.33066875615E-01  0.51100000000E-03 0.  1.
         11    1    4    4    0    0  0.95243945974E-01  0.38147007043E-01  0.28777411303E-01  0.10655986070E+00  0.51100000000E-03 0. -1.
</event>
<event>
 8    1  0.2924722E+004  0.1043930E+01  0.7957747E-01            NaN
         13   -1    0    0    0    0  0.00000000000E+00  0.00000000000E+00  0.74505805969E-08  0.10566000000E+00  0.10566000000E+00 0.  1.
     999900   -1    0    0    0    0 -0.00000000000E+00 -0.00000000000E+00 -0.74505805969E-08  0.93827000000E+00  0.93827000000E+00 0. -1.
     999902    2    1    2    0    0  0.15818744161E-02  0.11764296246E-01  0.77499985209E-02  0.10297538415E+01  0.10296562585E+01 0.  0.
     999903    2    3    3    0    0  0.12928921761E-01 -0.10613234919E-01  0.13241149405E+00  0.14061380874E+00  0.44267840238E-01 0.  0.
         14    1    1    2    0    0 -0.15818744161E-02 -0.11764296246E-01 -0.77499985209E-02  0.14176158503E-01  0.00000000000E+00 0.  1.
     999901    1    3    3    0    0 -0.11347047345E-01  0.22377531165E-01 -0.12466149553E+00  0.88914003276E+00  0.88000000000E+00 0. -1.
        -11    1    4    4    0    0  0.12452099995E-01  0.15538291902E-01  0.73571520590E-01  0.76220227449E-01  0.51100000000E-03 0. -1.
         11    1    4    4    0    0  0.47682176619E-03 -0.26151526820E-01  0.58839973457E-01  0.64393581291E-01  0.51100000000E-03 0.  1.
</event>
<event>
 8    1  0.2924722E+004  0.1043930E+01  0.7957747E-01            NaN
         13   -1    0    0    0    0  0.00000000000E+00  0.00000000000E+00  0.74505805969E-08  0.10566000000E+00  0.10566000000E+00 0.  1.
     999900   -1    0    0    0    0 -0.00000000000E+00 -0.00000000000E+00 -0.74505805969E-08  0.93827000000E+00  0.93827000000E+00 0. -1.
     999902    2    1    2    0    0  0.10047034685E-01  0.89600654884E-02  0.19303320503E-02  0.10303302992E+01  0.10302405416E+01 0.  0.
     999903    2    3    3    0    0 -0.11962544111E+00 -0.40587462766E-01 -0.34486873255E-01  0.13870474924E+00  0.45739203537E-01 0.  0.
         14    1    1    2    0    0 -0.10047034685E-01 -0.89600654884E-02 -0.19303320503E-02  0.13599700781E-01  0.00000000000E+00 0.  1.
     999901    1    3    3    0    0  0.12967247579E+00  0.49547528254E-01  0.36417205305E-01  0.89162554998E+00  0.88000000000E+00 0.  1.
        -11    1    4    4    0    0 -0.54739087069E-01 -0.42000218214E-01 -0.12111741140E-01  0.70052418785E-01  0.51100000000E-03 0.  1.
         11    1    4    4    0    0 -0.64886354040E-01  0.14127554488E-02 -0.22375132114E-01  0.68652330453E-01  0.51100000000E-03 0. -1.
</event>
<event>
 8    1  0.2924722E+004  0.1043930E+01  0.7957747E-01            NaN
         13   -1    0    0    0    0  0.00000000000E+00  0.00000000000E+00  0.74505805969E-08  0.10566000000E+00  0.10566000000E+00 0. -1.
     999900   -1    0    0    0    0 -0.00000000000E+00 -0.00000000000E+00 -0.74505805969E-08  0.93827000000E+00  0.93827000000E+00 0.  1.
     999902    2    1    2    0    0  0.65264782518E-02  0.30241569646E-02  0.11310180596E-01  0.10305262457E+01  0.10304390727E+01 0.  0.
     999903    2    3    3    0    0 -0.12599277008E+00  0.27419335304E-01 -0.27613143242E-01  0.13941934919E+00  0.45268876591E-01 0.  0.
         14    1    1    2    0    0 -0.65264782518E-02 -0.30241569646E-02 -0.11310180596E-01  0.13403754281E-01  0.00000000000E+00 0.  1.
     999901    1    3    3    0    0  0.13251924833E+00 -0.24395178339E-01  0.38923323838E-01  0.89110689653E+00  0.88000000000E+00 0. -1.
        -11    1    4    4    0    0 -0.27634730688E-01  0.26478504620E-01 -0.67306411872E-02  0.38863249979E-01  0.51100000000E-03 0. -1.
         11    1    4    4    0    0 -0.98358039391E-01  0.94083068328E-03 -0.20882502055E-01  0.10055609921E+00  0.51100000000E-03 0.  1.
</event>
<event>
 8    1  0.2924722E+004  0.1043930E+01  0.7957747E-01            NaN
         13   -1    0    0    0    0  0.00000000000E+00  0.00000000000E+00  0.74505805969E-08  0.10566000000E+00  0.10566000000E+00 0.  1.
     999900   -1    0    0    0    0 -0.00000000000E+00 -0.00000000000E+00 -0.74505805969E-08  0.93827000000E+00  0.93827000000E+00 0. -1.
     999902    2    1    2    0    0 -0.14722738089E-01  0.12624473340E-02  0.40012791185E-03  0.10291478184E+01  0.10290416509E+01 0.  0.
     999903    2    3    3    0    0  0.54943117914E-01  0.11308747159E+00 -0.36987565523E-01  0.13855475356E+00  0.44964622702E-01 0.  0.
         14    1    1    2    0    0  0.14722738089E-01 -0.12624473340E-02 -0.40012791185E-03  0.14782181587E-01  0.00000000000E+00 0.  1.
     999901    1    3    3    0    0 -0.69665856003E-01 -0.11182502425E+00  0.37387693434E-01  0.89059306485E+00  0.88000000000E+00 0. -1.
        -11    1    4    4    0    0  0.33533955468E-01  0.35014967254E-01 -0.30627979614E-01  0.57349004851E-01  0.51100000000E-03 0. -1.
         11    1    4    4    0    0  0.21409162445E-01  0.78072504335E-01 -0.63595859085E-02  0.81205748710E-01  0.51100000000E-03 0.  1.
</event>
<event>
 8    1  0.2924722E+004  0.1043930E+01  0.7957747E-01            NaN
         13   -1    0    0    0    0  0.00000000000E+00  0.00000000000E+00  0.74505805969E-08  0.10566000000E+00  0.10566000000E+00 0.  1.
     999900   -1    0    0    0    0 -0.00000000000E+00 -0.00000000000E+00 -0.74505805969E-08  0.93827000000E+00  0.93827000000E+00 0.  1.
     999902    2    1    2    0    0  0.10822644759E-02  0.96461385966E-02 -0.10025311807E-01  0.10299755683E+01  0.10298810345E+01 0.  0.
     999903    2    3    3    0    0 -0.91456738353E-01  0.30669586385E-01 -0.92958407756E-01  0.14099674361E+00  0.43975648011E-01 0.  0.
         14    1    1    2    0    0 -0.10822644759E-02 -0.96461385966E-02  0.10025311807E-01  0.13954431663E-01  0.00000000000E+00 0.  1.
     999901    1    3    3    0    0  0.92539002829E-01 -0.21023447788E-01  0.82933095949E-01  0.88897882472E+00  0.88000000000E+00 0. -1.
        -11    1    4    4    0    0 -0.84157277928E-02 -0.44967422394E-03 -0.32717174234E-01  0.33789070600E-01  0.51100000000E-03 0. -1.
         11    1    4    4    0    0 -0.83041010560E-01  0.31119260609E-01 -0.60241233522E-01  0.10720767301E+00  0.51100000000E-03 0.  1.
</event>
<event>
 8    1  0.2924722E+004  0.1043930E+01  0.7957747E-01            NaN
         13   -1    0    0    0    0  0.00000000000E+00  0.00000000000E+00  0.74505805969E-08  0.10566000000E+00  0.10566000000E+00 0. -1.
     999900   -1    0    0    0    0 -0.00000000000E+00 -0.00000000000E+00 -0.74505805969E-08  0.93827000000E+00  0.93827000000E+00 0.  1.
     999902    2    1    2    0    0 -0.15811155414E-02  0.28938137399E-02  0.12302964918E-01  0.10311927699E+01  0.10311141022E+01 0.  0.
     999903    2    3    3    0    0  0.19243601592E-02 -0.45055332990E-01  0.12718754074E+00  0.14242402903E+00  0.45543905546E-01 0.  0.
         14    1    1    2    0    0  0.15811155414E-02 -0.28938137399E-02 -0.12302964918E-01  0.12737230080E-01  0.00000000000E+00 0.  1.
     999901    1    3    3    0    0 -0.35054757007E-02  0.47949146730E-01 -0.11488457582E+00  0.88876874090E+00  0.88000000000E+00 0.  1.
        -11    1    4    4    0    0  0.54080496345E-02 -0.50035156794E-02  0.80382473075E-01  0.80721033620E-01  0.51100000000E-03 0.  1.
         11    1    4    4    0    0 -0.34836894752E-02 -0.40051817310E-01  0.46805067661E-01  0.61702995405E-01  0.51100000000E-03 0. -1.
</event>
<event>
 8    1  0.2924722E+004  0.1043930E+01  0.7957747E-01            NaN
         13   -1    0    0    0    0  0.00000000000E+00  0.00000000000E+00  0.74505805969E-08  0.10566000000E+00  0.10566000000E+00 0. -1.
     999900   -1    0    0    0    0 -0.00000000000E+00 -0.00000000000E+00 -0.74505805969E-08  0.93827000000E+00  0.93827000000E+00 0.  1.
     999902    2    1    2    0    0 -0.45458803263E-02 -0.24691684725E-03 -0.12754088856E-01  0.10303877410E+01  0.10302987451E+01 0.  0.
     999903    2    3    3    0    0  0.11367433643E+00  0.58870209478E-01 -0.35731979262E-01  0.14021987049E+00  0.44690954466E-01 0.  0.
         14    1    1    2    0    0  0.45458803263E-02  0.24691684725E-03  0.12754088856E-01  0.13542258985E-01  0.00000000000E+00 0. -1.
     999901    1    3    3    0    0 -0.11822021675E+00 -0.59117126325E-01  0.22977890406E-01  0.89016787053E+00  0.88000000000E+00 0.  1.
        -11    1    4    4    0    0  0.10421879335E+00  0.42901364045E-01 -0.42511084972E-01  0.12045554114E+00  0.51100000000E-03 0.  1.
         11    1    4    4    0    0  0.94555430756E-02  0.15968845433E-01  0.67791057103E-02  0.19764329347E-01  0.51100000000E-03 0. -1.
</event>
<event>
 8    1  0.2924722E+004  0.1043930E+01  0.7957747E-01            NaN
         13   -1    0    0    0    0  0.00000000000E+00  0.00000000000E+00  0.74505805969E-08  0.10566000000E+00  0.10566000000E+00 0. -1.
     999900   -1    0    0    0    0 -0.00000000000E+00 -0.00000000000E+00 -0.74505805969E-08  0.93827000000E+00  0.93827000000E+00 0. -1.
     999902    2    1    2    0    0  0.10146106754E-01 -0.56996006313E-02 -0.60498290259E-02  0.10308140036E+01  0.10307305568E+01 0.  0.
     999903    2    3    3    0    0  0.82703131840E-01  0.10277473550E+00  0.21102184713E-01  0.14077555764E+00  0.44384695046E-01 0.  0.
         14    1    1    2    0    0 -0.10146106754E-01  0.56996006313E-02  0.60498290259E-02  0.13115996374E-01  0.00000000000E+00 0. -1.
     999901    1    3    3    0    0 -0.72557025086E-01 -0.10847433613E+00 -0.27152013739E-01  0.89003844599E+00  0.88000000000E+00 0.  1.
        -11    1    4    4    0    0  0.48488709365E-01  0.82792024291E-01  0.29278027758E-01  0.10031519452E+00  0.51100000000E-03 0. -1.
         11    1    4    4    0    0  0.34214422475E-01  0.19982711213E-01 -0.81758430448E-02  0.40460363113E-01  0.51100000000E-03 0.  1.
</event>
<event>
 8    1  0.2924722E+004  0.1043930E+01  0.7957747E-01            NaN
         13   -1    0    0    0    0  0.00000000000E+00  0.00000000000E+00  0.74505805969E-08  0.10566000000E+00  0.10566000000E+00 0. -1.
     999900   -1    0    0    0    0 -0.00000000000E+00 -0.00000000000E+00 -0.74505805969E-08  0.93827000000E+00  0.93827000000E+00 0. -1.
     999902    2    1    2    0    0  0.22883958831E-02  0.13168055921E-01  0.46127119880E-02  0.10297909914E+01  0.10296939227E+01 0.  0.
     999903    2    3    3    0    0  0.12835271249E+00 -0.82614974695E-02  0.35960544590E-01  0.13999656329E+00  0.41990544425E-01 0.  0.
         14    1    1    2    0    0 -0.22883958831E-02 -0.13168055921E-01 -0.46127119880E-02  0.14139008606E-01  0.00000000000E+00 0.  1.
     999901    1    3    3    0    0 -0.12606431661E+00  0.21429553391E-01 -0.31347832602E-01  0.88979442811E+00  0.88000000000E+00 0.  1.
        -11    1    4    4    0    0  0.96041653573E-01 -0.13430738160E-01  0.86328782858E-02  0.97361037674E-01  0.51100000000E-03 0. -1.
         11    1    4    4    0    0  0.32311058918E-01  0.51692406910E-02  0.27327666304E-01  0.42635525614E-01  0.51100000000E-03 0.  1.
</event>
<event>
 7    1  0.2924722E+004  0.1043930E+01  0.7957747E-01            NaN
         13   -1    0    0    0    0  0.00000000000E+00  0.00000000000E+00  0.74505805969E-08  0.10566000000E+00  0.10566000000E+00 0. -1.
     999900   -1    0    0    0    0 -0.00000000000E+00 -0.00000000000E+00 -0.74505805969E-08  0.93827000000E+00  0.93827000000E+00 0.  1.
     999902    2    1    2    0    0 -0.70135932608E-02  0.12035060984E-01  0.16787390036E-02  0.10298996277E+01  0.10298040550E+01 0.  0.
         14    1    1    2    0    0  0.70135932608E-02 -0.12035060984E-01 -0.16787390036E-02  0.14030372339E-01  0.00000000000E+00 0.  1.
     999901    1    3    3    0    0 -0.93302813501E-01  0.58241823058E-01 -0.91480272288E-01  0.89155267101E+00  0.88000000000E+00 0. -1.
        -11    1    3    3    0    0  0.22100229980E-01  0.13128157591E-02  0.24502301784E-01  0.33026770416E-01  0.51100000000E-03 0. -1.
         11    1    3    3    0    0  0.64188990261E-01 -0.47519577833E-01  0.68656709508E-01  0.10532018624E+00  0.51100000000E-03 0.  1.
</event>
<event>
 8    1  0.2924722E+004  0.1043930E+01  0.7957747E-01            NaN
         13   -1    0    0    0    0  0.00000000000E+00  0.00000000000E+00  0.74505805969E-08  0.10566000000E+00  0.10566000000E+00 0.  1.
     999900   -1    0    0    0    0 -0.00000000000E+00 -0.00000000000E+00 -0.74505805969E-08  0.93827000000E+00  0.93827000000E+00 0. -1.
     999902    2    1    2    0    0  0.11524456947E-01 -0.10260579124E-01  0.68572585316E-02  0.10270446636E+01  0.10269058508E+01 0.  0.
     999903    2    3    3    0    0  0.17764627142E-01  0.40326192665E-01 -0.12063481841E+00  0.13639760054E+00  0.45932148070E-01 0.  0.
         14    1    1    2    0    0 -0.11524456947E-01  0.10260579124E-01 -0.68572585316E-02  0.16885336433E-01  0.00000000000E+00 0. -1.
     999901    1    3    3    0    0 -0.62401701947E-02 -0.50586771788E-01  0.12749207694E+00  0.89064706303E+00  0.88000000000E+00 0.  1.
        -11    1    4    4    0    0  0.41855069403E-02  0.39314375848E-01 -0.46577734659E-01  0.61097341216E-01  0.51100000000E-03 0.  1.
         11    1    4    4    0    0  0.13579120201E-01  0.10118168169E-02 -0.74057083752E-01  0.75300259320E-01  0.51100000000E-03 0. -1.
</event>
<event>
 8    1  0.2924722E+004  0.1043930E+01  0.7957747E-01            NaN
         13   -1    0    0    0    0  0.00000000000E+00  0.00000000000E+00  0.74505805969E-08  0.10566000000E+00  0.10566000000E+00 0. -1.
     999900   -1    0    0    0    0 -0.00000000000E+00 -0.00000000000E+00 -0.74505805969E-08  0.93827000000E+00  0.93827000000E+00 0.  1.
     999902    2    1    2    0    0 -0.55685619926E-02  0.11491873500E-01  0.39817132782E-02  0.10305536747E+01  0.10304668603E+01 0.  0.
     999903    2    3    3    0    0 -0.49894090657E-01  0.17720673895E-01  0.12193863011E+00  0.14155570802E+00  0.48636883066E-01 0.  0.
         14    1    1    2    0    0  0.55685619926E-02 -0.11491873500E-01 -0.39817132782E-02  0.13376325349E-01  0.00000000000E+00 0.  1.
     999901    1    3    3    0    0  0.44325528665E-01 -0.62288003950E-02 -0.11795691683E+00  0.88899796663E+00  0.88000000000E+00 0.  1.
        -11    1    4    4    0    0 -0.38868274638E-02  0.13991603448E-01  0.42519518285E-02  0.15139769157E-01  0.51100000000E-03 0. -1.
         11    1    4    4    0    0 -0.46007263194E-01  0.37290704470E-02  0.11768667828E+00  0.12641593886E+00  0.51100000000E-03 0.  1.
</event>
<event>
 8    1  0.2924722E+004  0.1043930E+01  0.7957747E-01            NaN
         13   -1    0    0    0    0  0.00000000000E+00  0.00000000000E+00  0.74505805969E-08  0.10566000000E+00  0.10566000000E+00 0. -1.
     999900   -1    0    0    0    0 -0.00000000000E+00 -0.00000000000E+00 -0.74505805969E-08  0.93827000000E+00  0.93827000000E+00 0. -1.
     999902    2    1    2    0    0  0.25995889254E-02  0.40705307526E-02  0.12804109842E-01  0.10302452526E+01  0.10301543613E+01 0.  0.
     999903    2    3    3    0    0 -0.28707386059E-01 -0.54011224491E-01  0.11944930484E+00  0.14135447493E+00  0.44402981530E-01 0.  0.
         14    1    1    2    0    0 -0.25995889254E-02 -0.40705307526E-02 -0.12804109842E-01  0.13684747423E-01  0.00000000000E+00 0.  1.
     999901    1    3    3    0    0  0.31306974985E-01  0.58081755244E-01 -0.10664519500E+00  0.88889077765E+00  0.88000000000E+00 0. -1.
        -11    1    4    4    0    0 -0.26525133403E-01 -0.16178830690E-01  0.26014232106E-01  0.40525777693E-01  0.51100000000E-03 0.  1.
         11    1    4    4    0    0 -0.21822526561E-02 -0.37832393801E-01  0.93435072737E-01  0.10082869723E+00  0.51100000000E-03 0. -1.
</event>
<event>
 8    1  0.2924722E+004  0.1043930E+01  0.7957747E-01            NaN
         13   -1    0    0    0    0  0.00000000000E+00  0.00000000000E+00  0.74505805969E-08  0.10566000000E+00  0.10566000000E+00 0. -1.
     999900   -1    0    0    0    0 -0.00000000000E+00 -0.00000000000E+00 -0.74505805969E-08  0.93827000000E+00  0.93827000000E+00 0. -1.
     999902    2    1    2    0    0  0.99528357505E-02  0.76162164672E-04  0.94129512659E-02  0.10302307886E+01  0.10301397039E+01 0.  0.
     999903    2    3    3    0    0 -0.12158999923E+00 -0.15184707620E-01 -0.45527043199E-01  0.13862840273E+00  0.46156463500E-01 0.  0.
         14    1    1    2    0    0 -0.99528357505E-02 -0.76162164672E-04 -0.94129512659E-02  0.13699211353E-01  0.00000000000E+00 0.  1.
     999901    1    3    3    0    0  0.13154283498E+00  0.15260869784E-01  0.54939994465E-01  0.89160238592E+00  0.88000000000E+00 0.  1.
        -11    1    4    4    0    0 -0.47562558804E-01 -0.21988385041E-01 -0.36232912859E-01  0.63708485871E-01  0.51100000000E-03 0.  1.
         11    1    4    4    0    0 -0.74027440426E-01  0.68036774212E-02 -0.92941303402E-02  0.74919916859E-01  0.51100000000E-03 0. -1.
</event>
<event>
 8    1  0.2924722E+004  0.1043930E+01  0.7957747E-01            NaN
         13   -1    0    0    0    0  0.00000000000E+00  0.00000000000E+00  0.74505805969E-08  0.10566000000E+00  0.10566000000E+00 0.  1.
     999900   -1    0    0    0    0 -0.00000000000E+00 -0.00000000000E+00 -0.74505805969E-08  0.93827000000E+00  0.93827000000E+00 0. -1.
     999902    2    1    2    0    0 -0.29456935519E-02  0.15359099847E-02 -0.13510607866E-01  0.10300169610E+01  0.10299229909E+01 0.  0.
     999903    2    3    3    0    0 -0.96340118216E-01  0.85153032183E-01 -0.35002848047E-01  0.14087340785E+00  0.45690922503E-01 0.  0.
         14    1    1    2    0    0  0.29456935519E-02 -0.15359099847E-02  0.13510607866E-01  0.13913039024E-01  0.00000000000E+00 0.  1.
     999901    1    3    3    0    0  0.93394424664E-01 -0.83617122199E-01  0.21492240182E-01  0.88914355313E+00  0.88000000000E+00 0. -1.
        -11    1    4    4    0    0 -0.46343272525E-01  0.37876001439E-01  0.69886974427E-02  0.60261043853E-01  0.51100000000E-03 0. -1.
         11    1    4    4    0    0 -0.49996845691E-01  0.47277030744E-01 -0.41991545490E-01  0.80612363994E-01  0.51100000000E-03 0.  1.
</event>
<event>
 8    1  0.2924722E+004  0.1043930E+01  0.7957747E-01            NaN
         13   -1    0    0    0    0  0.00000000000E+00  0.00000000000E+00  0.74505805969E-08  0.10566000000E+00  0.10566000000E+00 0. -1.
     999900   -1    0    0    0    0 -0.00000000000E+00 -0.00000000000E+00 -0.74505805969E-08  0.93827000000E+00  0.93827000000E+00 0.  1.
     999902    2    1    2    0    0 -0.12565496857E-01 -0.40318125819E-02 -0.18291773795E-02  0.10306073458E+01  0.10305212313E+01 0.  0.
     999903    2    3    3    0    0  0.12058884693E+00  0.41740925765E-01 -0.31578235495E-01  0.13891780945E+00  0.44911000209E-01 0.  0.
         14    1    1    2    0    0  0.12565496857E-01  0.40318125819E-02  0.18291773795E-02  0.13322654159E-01  0.00000000000E+00 0. -1.
     999901    1    3    3    0    0 -0.13315434378E+00 -0.45772738347E-01  0.29749058116E-01  0.89168953639E+00  0.88000000000E+00 0.  1.
        -11    1    4    4    0    0  0.38935367952E-01 -0.73635334387E-02 -0.46353115138E-02  0.39899019238E-01  0.51100000000E-03 0. -1.
         11    1    4    4    0    0  0.81653478973E-01  0.49104459204E-01 -0.26942923982E-01  0.99018790216E-01  0.51100000000E-03 0.  1.
</event>
<event>
 8    1  0.2924722E+004  0.1043930E+01  0.7957747E-01            NaN
         13   -1    0    0    0    0  0.00000000000E+00  0.00000000000E+00  0.74505805969E-08  0.10566000000E+00  0.10566000000E+00 0. -1.
     999900   -1    0    0    0    0 -0.00000000000E+00 -0.00000000000E+00 -0.74505805969E-08  0.93827000000E+00  0.93827000000E+00 0. -1.
     999902    2    1    2    0    0 -0.76927752473E-02 -0.22470051150E-02 -0.12182705269E-01  0.10293476089E+01  0.10292443120E+01 0.  0.
     999903    2    3    3    0    0  0.12224127806E+00 -0.14826575882E-01 -0.46422120991E-01  0.13905920539E+00  0.44940982100E-01 0.  0.
         14    1    1    2    0    0  0.76927752473E-02  0.22470051150E-02  0.12182705269E-01  0.14582391116E-01  0.00000000000E+00 0.  1.
     999901    1    3    3    0    0 -0.12993405331E+00  0.12579570767E-01  0.34239415722E-01  0.89028840350E+00  0.88000000000E+00 0. -1.
        -11    1    4    4    0    0  0.48760000906E-01 -0.27559632067E-01 -0.13978790122E-01  0.57729877034E-01  0.51100000000E-03 0.  1.
         11    1    4    4    0    0  0.73481277153E-01  0.12733056185E-01 -0.32443330868E-01  0.81329328355E-01  0.51100000000E-03 0. -1.
</event>
<event>
 8    1  0.2924722E+004  0.1043930E+01  0.7957747E-01            NaN
         13   -1    0    0    0    0  0.00000000000E+00  0.00000000000E+00  0.74505805969E-08  0.10566000000E+00  0.10566000000E+00 0.  1.
     999900   -1    0    0    0    0 -0.00000000000E+00 -0.00000000000E+00 -0.74505805969E-08  0.93827000000E+00  0.93827000000E+00 0. -1.
     999902    2    1    2    0    0  0.41638098466E-02  0.36552658591E-02 -0.12627809648E-01  0.10301401538E+01  0.10300478516E+01 0.  0.
     999903    2    3    3    0    0 -0.52491814548E-01 -0.63761376304E-01 -0.10469289710E+00  0.14096590558E+00  0.45715206771E-01 0.  0.
         14    1    1    2    0    0 -0.41638098466E-02 -0.36552658591E-02  0.12627809648E-01  0.13789846172E-01  0.00000000000E+00 0.  1.
     999901    1    3    3    0    0  0.56655624394E-01  0.67416642163E-01  0.92065087455E-01  0.88917424825E+00  0.88000000000E+00 0.  1.
        -11    1    4    4    0    0 -0.86850537831E-02 -0.27608011388E-01 -0.10154243104E-01  0.30675759584E-01  0.51100000000E-03 0. -1.
         11    1    4    4    0    0 -0.43806760765E-01 -0.36153364916E-01 -0.94538653999E-01  0.11029014600E+00  0.51100000000E-03 0.  1.
</event>
<event>
 8    1  0.2924722E+004  0.1043930E+01  0.7957747E-01            NaN
         13   -1    0    0    0    0  0.00000000000E+00  0.00000000000E+00  0.74505805969E-08  0.10566000000E+00  0.10566000000E+00 0. -1.
     999900   -1    0    0    0    0 -0.00000000000E+00 -0.00000000000E+00 -0.74505805969E-08  0.93827000000E+00  0.93827000000E+00 0. -1.
     999902    2    1    2    0    0 -0.13214315103E-01 -0.31078153669E-02  0.56128605945E-03  0.10303435478E+01  0.10302539662E+01 0.  0.
     999903    2    3    3    0    0  0.21074256932E-01  0.88568403821E-01  0.96041917869E-01  0.13978373156E+00  0.45021718766E-01 0.  0.
         14    1    1    2    0    0  0.13214315103E-01  0.31078153669E-02 -0.56128605945E-03  0.13586452150E-01  0.00000000000E+00 0.  1.
     999901    1    3    3    0    0 -0.34288572035E-01 -0.91676219188E-01 -0.95480631809E-01  0.89055981629E+00  0.88000000000E+00 0. -1.
        -11    1    4    4    0    0 -0.10848721387E-02  0.22267217587E-01  0.17010796048E-02  0.22364273282E-01  0.51100000000E-03 0.  1.
         11    1    4    4    0    0  0.22159129070E-01  0.66301186235E-01  0.94340838264E-01  0.11741945828E+00  0.51100000000E-03 0. -1.
</event>
<event>
 8    1  0.2924722E+004  0.1043930E+01  0.7957747E-01            NaN
         13   -1    0    0    0    0  0.00000000000E+00  0.00000000000E+00  0.74505805969E-08  0.10566000000E+00  0.10566000000E+00 0.  1.
     999900   -1    0    0    0    0 -0.00000000000E+00 -0.00000000000E+00 -0.74505805969E-08  0.93827000000E+00  0.93827000000E+00 0. -1.
     999902    2    1    2    0    0 -0.25910391263E-02 -0.10028801605E-01  0.88016438934E-02  0.10303373814E+01  0.10302477179E+01 0.  0.
     999903    2    3    3    0    0 -0.10859865439E+00 -0.12504044634E-01  0.77070131960E-01  0.14134675839E+00  0.45706476559E-01 0.  0.
         14    1    1    2    0    0  0.25910391263E-02  0.10028801605E-01 -0.88016438934E-02  0.13592618607E-01  0.00000000000E+00 0. -1.
     999901    1    3    3    0    0  0.10600761527E+00  0.24752430290E-02 -0.68268488066E-01  0.88899062300E+00  0.88000000000E+00 0. -1.
        -11    1    4    4    0    0 -0.20744214966E-01  0.58098195082E-02  0.37533633757E-01  0.43279455187E-01  0.51100000000E-03 0. -1.
         11    1    4    4    0    0 -0.87854439425E-01 -0.18313864142E-01  0.39536498203E-01  0.98067303204E-01  0.51100000000E-03 0.  1.
</event>
<event>
 8    1  0.2924722E+004  0.1043930E+01  0.7957747E-01            NaN
         13   -1    0    0    0    0  0.00000000000E+00  0.00000000000E+00  0.74505805969E-08  0.10566000000E+00  0.10566000000E+00 0. -1.
     999900   -1    0    0    0    0 -0.00000000000E+00 -0.00000000000E+00 -0.74505805969E-08  0.93827000000E+00  0.93827000000E+00 0.  1.
     999902    2    1    2    0    0  0.20156663114E-01  0.16776500855E-01 -0.30632245452E-02  0.10175268677E+01  0.10171842513E+01 0.  0.
     999903    2    3    3    0    0 -0.90314355615E-01  0.37699309992E-01  0.68242928005E-01  0.12751216150E+00  0.44992591652E-01 0.  0.
         14    1    1    2    0    0 -0.20156663114E-01 -0.16776500855E-01  0.30632245452E-02  0.26403132266E-01  0.00000000000E+00 0.  1.
     999901    1    3    3    0    0  0.11047101873E+00 -0.20922809137E-01 -0.71306152550E-01  0.89001470623E+00  0.88000000000E+00 0.  1.
        -11    1    4    4    0    0 -0.27783826370E-01  0.33275228653E-01  0.39100319498E-01  0.58380458679E-01  0.51100000000E-03 0.  1.
         11    1    4    4    0    0 -0.62530529245E-01  0.44240813396E-02  0.29142608506E-01  0.69131702821E-01  0.51100000000E-03 0. -1.
</event>
<event>
 8    1  0.2924722E+004  0.1043930E+01  0.7957747E-01            NaN
         13   -1    0    0    0    0  0.00000000000E+00  0.00000000000E+00  0.74505805969E-08  0.10566000000E+00  0.10566000000E+00 0.  1.
     999900   -1    0    0    0    0 -0.00000000000E+00 -0.00000000000E+00 -0.74505805969E-08  0.93827000000E+00  0.93827000000E+00 0. -1.
     999902    2    1    2    0    0 -0.12836161509E-01 -0.17591053022E-02 -0.80692822407E-02  0.10286664876E+01  0.10285532402E+01 0.  0.
     999903    2    3    3    0    0  0.53057586229E-01  0.11707857913E+00 -0.23913824683E-01  0.13809620363E+00  0.44454350735E-01 0.  0.
         14    1    1    2    0    0  0.12836161509E-01  0.17591053022E-02  0.80692822407E-02  0.15263512362E-01  0.00000000000E+00 0.  1.
     999901    1    3    3    0    0 -0.65893747737E-01 -0.11883768443E+00  0.15844542443E-01  0.89057028401E+00  0.88000000000E+00 0.  1.
        -11    1    4    4    0    0  0.17038529098E-01  0.86657318120E-01 -0.21432555967E-01  0.90881339305E-01  0.51100000000E-03 0. -1.
         11    1    4    4    0    0  0.36019057130E-01  0.30421261007E-01 -0.24812687162E-02  0.47214864326E-01  0.51100000000E-03 0.  1.
</event>
<event>
 8    1  0.2924722E+004  0.1043930E+01  0.7957747E-01            NaN
         13   -1    0    0    0    0  0.00000000000E+00  0.00000000000E+00  0.74505805969E-08  0.10566000000E+00  0.10566000000E+00 0. -1.
     999900   -1    0    0    0    0 -0.00000000000E+00 -0.00000000000E+00 -0.74505805969E-08  0.93827000000E+00  0.93827000000E+00 0.  1.
     999902    2    1    2    0    0 -0.11004475296E-01  0.58330557397E-02  0.64107892844E-02  0.10299221010E+01  0.10298268363E+01 0.  0.
     999903    2    3    3    0    0 -0.22225259508E-01 -0.12823654788E+00  0.22355514279E-01  0.13955431244E+00  0.45133831296E-01 0.  0.
         14    1    1    2    0    0  0.11004475296E-01 -0.58330557397E-02 -0.64107892844E-02  0.14007899023E-01  0.00000000000E+00 0. -1.
     999901    1    3    3    0    0  0.11220784213E-01  0.13406960362E+00 -0.15944724995E-01  0.89036778854E+00  0.88000000000E+00 0.  1.
        -11    1    4    4    0    0  0.50145959138E-02 -0.92637924043E-01  0.12019261076E-01  0.93550280069E-01  0.51100000000E-03 0. -1.
         11    1    4    4    0    0 -0.27239855422E-01 -0.35598623842E-01  0.10336253203E-01  0.46004032368E-01  0.51100000000E-03 0.  1.
</event>
<event>
 8    1  0.2924722E+004  0.1043930E+01  0.7957747E-01            NaN
         13   -1    0    0    0    0  0.00000000000E+00  0.00000000000E+00  0.74505805969E-08  0.10566000000E+00  0.10566000000E+00 0.  1.
     999900   -1    0    0    0    0 -0.00000000000E+00 -0.00000000000E+00 -0.74505805969E-08  0.93827000000E+00  0.93827000000E+00 0.  1.
     999902    2    1    2    0    0 -0.97861615260E-02 -0.31167646459E-02 -0.86787384276E-02  0.10304836741E+01  0.10303959428E+01 0.  0.
     999903    2    3    3    0    0  0.17611825343E-01  0.12326590784E+00  0.43397853430E-01  0.13950937537E+00  0.45550320612E-01 0.  0.
         14    1    1    2    0    0  0.97861615260E-02  0.31167646459E-02  0.86787384276E-02  0.13446325891E-01  0.00000000000E+00 0.  1.
     999901    1    3    3    0    0 -0.27397986869E-01 -0.12638267248E+00 -0.52076591858E-01  0.89097429874E+00  0.88000000000E+00 0. -1.
        -11    1    4    4    0    0  0.15406168330E-01  0.81543618835E-02  0.64279092340E-02  0.18585552950E-01  0.51100000000E-03 0.  1.
         11    1    4    4    0    0  0.22056570138E-02  0.11511154595E+00  0.36969944196E-01  0.12092382242E+00  0.51100000000E-03 0. -1.
</event>
<event>
 8    1  0.2924722E+004  0.1043930E+01  0.7957747E-01            NaN
         13   -1    0    0    0    0  0.00000000000E+00  0.00000000000E+00  0.74505805969E-08  0.10566000000E+00  0.10566000000E+00 0. -1.
     999900   -1    0    0    0    0 -0.00000000000E+00 -0.00000000000E+00 -0.74505805969E-08  0.93827000000E+00  0.93827000000E+00 0. -1.
     999902    2    1    2    0    0  0.10829233633E-01  0.30605347949E-02  0.81302392280E-02  0.10300469181E+01  0.10299533550E+01 0.  0.
     999903    2    3    3    0    0 -0.72475329910E-01  0.11529934364E-01 -0.11016777025E+00  0.13819166070E+00  0.39678516256E-01 0.  0.
         14    1    1    2    0    0 -0.10829233633E-01 -0.30605347949E-02 -0.81302392280E-02  0.13883081942E-01  0.00000000000E+00 0.  1.
     999901    1    3    3    0    0  0.83304563543E-01 -0.84693995689E-02  0.11829800948E+00  0.89185525736E+00  0.88000000000E+00 0.  1.
        -11    1    4    4    0    0 -0.63616465647E-01  0.23109486210E-01 -0.80831022331E-01  0.10542778735E+00  0.51100000000E-03 0. -1.
         11    1    4    4    0    0 -0.88588642638E-02 -0.11579551846E-01 -0.29336747919E-01  0.32763873343E-01  0.51100000000E-03 0.  1.
</event>
<event>
 8    1  0.2924722E+004  0.1043930E+01  0.7957747E-01            NaN
         13   -1    0    0    0    0  0.00000000000E+00  0.00000000000E+00  0.74505805969E-08  0.10566000000E+00  0.10566000000E+00 0.  1.
     999900   -1    0    0    0    0 -0.00000000000E+00 -0.00000000000E+00 -0.74505805969E-08  0.93827000000E+00  0.93827000000E+00 0. -1.
     999902    2    1    2    0    0 -0.76091230729E-02  0.60369002724E-03  0.12757856573E-01  0.10290630534E+01  0.10289556559E+01 0.  0.
     999903    2    3    3    0    0 -0.64521218073E-01  0.98403312235E-01  0.61838171498E-01  0.14046155110E+00  0.45379383440E-01 0.  0.
         14    1    1    2    0    0  0.76091230729E-02 -0.60369002724E-03 -0.12757856573E-01  0.14866946557E-01  0.00000000000E+00 0. -1.
     999901    1    3    3    0    0  0.56912095000E-01 -0.97799622208E-01 -0.49080314925E-01  0.88860150235E+00  0.88000000000E+00 0.  1.
        -11    1    4    4    0    0 -0.26191952923E-01  0.60375048505E-01  0.11835394847E-01  0.66869294689E-01  0.51100000000E-03 0. -1.
         11    1    4    4    0    0 -0.38329265149E-01  0.38028263730E-01  0.50002776651E-01  0.73592256407E-01  0.51100000000E-03 0.  1.
</event>
<event>
 8    1  0.2924722E+004  0.1043930E+01  0.7957747E-01            NaN
         13   -1    0    0    0    0  0.00000000000E+00  0.00000000000E+00  0.74505805969E-08  0.10566000000E+00  0.10566000000E+00 0. -1.
     999900   -1    0    0    0    0 -0.00000000000E+00 -0.00000000000E+00 -0.74505805969E-08  0.93827000000E+00  0.93827000000E+00 0.  1.
     999902    2    1    2    0    0  0.30891494203E-02 -0.69043947189E-02  0.97329846611E-02  0.10316034230E+01  0.10315297755E+01 0.  0.
     999903    2    3    3    0    0  0.70635480260E-02  0.13209489637E+00 -0.17485752299E-01  0.14026877291E+00  0.43250685113E-01 0.  0.
         14    1    1    2    0    0 -0.30891494203E-02  0.69043947189E-02 -0.97329846611E-02  0.12326577018E-01  0.00000000000E+00 0.  1.
     999901    1    3    3    0    0 -0.39743986056E-02 -0.13899929109E+00  0.27218736960E-01  0.89133465007E+00  0.88000000000E+00 0.  1.
        -11    1    4    4    0    0  0.24357378829E-01  0.57881255472E-01 -0.44384321003E-02  0.62956194604E-01  0.51100000000E-03 0.  1.
         11    1    4    4    0    0 -0.17293830803E-01  0.74213640901E-01 -0.13047320199E-01  0.77312578311E-01  0.51100000000E-03 0. -1.
</event>
<event>
 8    1  0.2924722E+004  0.1043930E+01  0.7957747E-01            NaN
         13   -1    0    0    0    0  0.00000000000E+00  0.00000000000E+00  0.74505805969E-08  0.10566000000E+00  0.10566000000E+00 0. -1.
     999900   -1    0    0    0    0 -0.00000000000E+00 -0.00000000000E+00 -0.74505805969E-08  0.93827000000E+00  0.93827000000E+00 0. -1.
     999902    2    1    2    0    0  0.38485338889E-03 -0.96324406428E-02 -0.98378960735E-02  0.10301562487E+01  0.10300641633E+01 0.  0.
     999903    2    3    3    0    0  0.12230256440E+00  0.87108758714E-02  0.51844239699E-01  0.13942335308E+00  0.41439710138E-01 0.  0.
         14    1    1    2    0    0 -0.38485338889E-03  0.96324406428E-02  0.98378960735E-02  0.13773751269E-01  0.00000000000E+00 0. -1.
     999901    1    3    3    0    0 -0.12191771101E+00 -0.18343316514E-01 -0.61682135772E-01  0.89073289565E+00  0.88000000000E+00 0. -1.
        -11    1    4    4    0    0  0.32655924648E-01  0.85506724284E-02 -0.36996296227E-02  0.33962800149E-01  0.51100000000E-03 0. -1.
         11    1    4    4    0    0  0.89646639755E-01  0.16020344298E-03  0.55543869322E-01  0.10546055293E+00  0.51100000000E-03 0.  1.
</event>
<event>
 8    1  0.2924722E+004  0.1043930E+01  0.7957747E-01            NaN
         13   -1    0    0    0    0  0.00000000000E+00  0.00000000000E+00  0.74505805969E-08  0.10566000000E+00  0.10566000000E+00 0. -1.
     999900   -1    0    0    0    0 -0.00000000000E+00 -0.00000000000E+00 -0.74505805969E-08  0.93827000000E+00  0.93827000000E+00 0.  1.
     999902    2    1    2    0    0  0.88821370170E-02 -0.35868373487E-02 -0.98099051662E-02  0.10302189825E+01  0.10301277397E+01 0.  0.
     999903    2    3    3    0    0  0.42198136366E-01 -0.61301047465E-01 -0.11186875158E+00  0.14181766896E+00  0.45377665369E-01 0.  0.
         14    1    1    2    0    0 -0.88821370170E-02  0.35868373487E-02  0.98099051662E-02  0.13711017450E-01  0.00000000000E+00 0. -1.
     999901    1    3    3    0    0 -0.33315999349E-01  0.57714210117E-01  0.10205884642E+00  0.88840131359E+00  0.88000000000E+00 0. -1.
        -11    1    4    4    0    0  0.13438107836E-01 -0.56369095543E-01 -0.76117086268E-01  0.95666763390E-01  0.51100000000E-03 0.  1.
         11    1    4    4    0    0  0.28760028530E-01 -0.49319519221E-02 -0.35751665315E-01  0.46150905566E-01  0.51100000000E-03 0. -1.
</event>
<event>
 8    1  0.2924722E+004  0.1043930E+01  0.7957747E-01            NaN
         13   -1    0    0    0    0  0.00000000000E+00  0.00000000000E+00  0.74505805969E-08  0.10566000000E+00  0.10566000000E+00 0. -1.
     999900   -1    0    0    0    0 -0.00000000000E+00 -0.00000000000E+00 -0.74505805969E-08  0.93827000000E+00  0.93827000000E+00 0.  1.
     999902    2    1    2    0    0  0.61483393530E-02 -0.55506848057E-02 -0.12372013140E-01  0.10290411153E+01  0.10289333983E+01 0.  0.
     999903    2    3    3    0    0  0.34987286482E-01  0.74318993563E-01 -0.10430895077E+00  0.14018609287E+00  0.44992892795E-01 0.  0.
         14    1    1    2    0    0 -0.61483393530E-02  0.55506848057E-02  0.12372013140E-01  0.14888884704E-01  0.00000000000E+00 0. -1.
     999901    1    3    3    0    0 -0.28838947129E-01 -0.79869678369E-01  0.91936937635E-01  0.88885502243E+00  0.88000000000E+00 0. -1.
        -11    1    4    4    0    0  0.62213452033E-02  0.62474821425E-02  0.34828393802E-02  0.94935483570E-02  0.51100000000E-03 0.  1.
         11    1    4    4    0    0  0.28765941279E-01  0.68071511421E-01 -0.10779179015E+00  0.13069254451E+00  0.51100000000E-03 0. -1.
</event>
<event>
 8    1  0.2924722E+004  0.1043930E+01  0.7957747E-01            NaN
         13   -1    0    0    0    0  0.00000000000E+00  0.00000000000E+00  0.74505805969E-08  0.10566000000E+00  0.10566000000E+00 0. -1.
     999900   -1    0    0    0    0 -0.00000000000E+00 -0.00000000000E+00 -0.74505805969E-08  0.93827000000E+00  0.93827000000E+00 0.  1.
     999902    2    1    2    0    0 -0.12572184767E-01 -0.44824990654E-02 -0.22567811857E-02  0.10303931729E+01  0.10303042487E+01 0.  0.
     999903    2    3    3    0    0  0.12887386937E+00 -0.24094028711E-01 -0.15793742738E-02  0.13888206401E+00  0.45790139259E-01 0.  0.
         14    1    1    2    0    0  0.12572184767E-01  0.44824990654E-02  0.22567811857E-02  0.13536827140E-01  0.00000000000E+00 0.  1.
     999901    1    3    3    0    0 -0.14144605414E+00  0.19611529645E-01 -0.67740691190E-03  0.89151110885E+00  0.88000000000E+00 0.  1.
        -11    1    4    4    0    0  0.22049638339E-01  0.12921853368E-01 -0.35537646396E-02  0.25807967945E-01  0.51100000000E-03 0.  1.
         11    1    4    4    0    0  0.10682423103E+00 -0.37015882079E-01  0.19743903658E-02  0.11307409606E+00  0.51100000000E-03 0. -1.
</event>
<event>
 8    1  0.2924722E+004  0.1043930E+01  0.7957747E-01            NaN
         13   -1    0    0    0    0  0.00000000000E+00  0.00000000000E+00  0.74505805969E-08  0.10566000000E+00  0.10566000000E+00 0.  1.
     999900   -1    0    0    0    0 -0.00000000000E+00 -0.00000000000E+00 -0.74505805969E-08  0.93827000000E+00  0.93827000000E+00 0. -1.
     999902    2    1    2    0    0 -0.50087033613E-03 -0.12383929846E-02  0.14135635777E-01  0.10297313843E+01  0.10296334897E+01 0.  0.
     999903    2    3    3    0    0  0.76900706767E-02  0.39339702969E-01 -0.12404092963E+00  0.13798790293E+00  0.45252179116E-01 0.  0.
         14    1    1    2    0    0  0.50087033613E-03  0.12383929846E-02 -0.14135635777E-01  0.14198615675E-01  0.00000000000E+00 0. -1.
     999901    1    3    3    0    0 -0.81909410128E-02 -0.40578095953E-01  0.13817656541E+00  0.89174348140E+00  0.88000000000E+00 0.  1.
        -11    1    4    4    0    0 -0.31118081938E-02 -0.57919053539E-02 -0.51172592001E-01  0.51595782880E-01  0.51100000000E-03 0.  1.
         11    1    4    4    0    0  0.10801878870E-01  0.45131608322E-01 -0.72868337627E-01  0.86392120048E-01  0.51100000000E-03 0. -1.
</event>
<event>
 8    1  0.2924722E+004  0.1043930E+01  0.7957747E-01            NaN
         13   -1    0    0    0    0  0.00000000000E+00  0.00000000000E+00  0.74505805969E-08  0.10566000000E+00  0.10566000000E+00 0.  1.
     999900   -1    0    0    0    0 -0.00000000000E+00 -0.00000000000E+00 -0.74505805969E-08  0.93827000000E+00  0.93827000000E+00 0. -1.
     999902    2    1    2    0    0 -0.51991362394E-02  0.98881748861E-02 -0.57704018711E-02  0.10313560365E+01  0.10312793848E+01 0.  0.
     999903    2    3    3    0    0 -0.20915290189E-02 -0.65474689577E-01  0.11481298424E+00  0.13993606165E+00  0.45921351591E-01 0.  0.
         14    1    1    2    0    0  0.51991362394E-02 -0.98881748861E-02  0.57704018711E-02  0.12573963495E-01  0.00000000000E+00 0.  1.
     999901    1    3    3    0    0 -0.31076072205E-02  0.75362864463E-01 -0.12058338611E+00  0.89141997485E+00  0.88000000000E+00 0. -1.
        -11    1    4    4    0    0 -0.14576576209E-02 -0.51330071750E-02 -0.39915679484E-02  0.66832824334E-02  0.51100000000E-03 0. -1.
         11    1    4    4    0    0 -0.63387139800E-03 -0.60341682402E-01  0.11880455219E+00  0.13325277922E+00  0.51100000000E-03 0.  1.
</event>
<event>
 8    1  0.2924722E+004  0.1043930E+01  0.7957747E-01            NaN
         13   -1    0    0    0    0  0.00000000000E+00  0.00000000000E+00  0.74505805969E-08  0.10566000000E+00  0.10566000000E+00 0. -1.
     999900   -1    0    0    0    0 -0.00000000000E+00 -0.00000000000E+00 -0.74505805969E-08  0.93827000000E+00  0.93827000000E+00 0. -1.
     999902    2    1    2    0    0 -0.11936552890E-01 -0.63227079536E-03 -0.14849432639E-01  0.10248672953E+01  0.10246899952E+01 0.  0.
     999903    2    3    3    0    0  0.35918637354E-02 -0.93781312397E-01 -0.88172168654E-01  0.13678278394E+00  0.46123341355E-01 0.  0.
         14    1    1    2    0    0  0.11936552890E-01  0.63227079536E-03  0.14849432639E-01  0.19062704713E-01  0.00000000000E+00 0. -1.
     999901    1    3    3    0    0 -0.15528416626E-01  0.93149041601E-01  0.73322736015E-01  0.88808451135E+00  0.88000000000E+00 0.  1.
        -11    1    4    4    0    0  0.60906278686E-02 -0.38715536378E-01 -0.67216028459E-01  0.77809023305E-01  0.51100000000E-03 0. -1.
         11    1    4    4    0    0 -0.24987641331E-02 -0.55065776019E-01 -0.20956140195E-01  0.58973760637E-01  0.51100000000E-03 0.  1.
</event>
<event>
 8    1  0.2924722E+004  0.1043930E+01  0.7957747E-01            NaN
         13   -1    0    0    0    0  0.00000000000E+00  0.00000000000E+00  0.74505805969E-08  0.10566000000E+00  0.10566000000E+00 0. -1.
     999900   -1    0    0    0    0 -0.00000000000E+00 -0.00000000000E+00 -0.74505805969E-08  0.93827000000E+00  0.93827000000E+00 0. -1.
     999902    2    1    2    0    0  0.85049188587E-02  0.27214708627E-02  0.88994202243E-02  0.10313228699E+01  0.10312458108E+01 0.  0.
     999903    2    3    3    0    0  0.90862438709E-01  0.36957721961E-01 -0.90949782563E-01  0.14119661749E+00  0.45196967409E-01 0.  0.
         14    1    1    2    0    0 -0.85049188587E-02 -0.27214708627E-02 -0.88994202243E-02  0.12607130077E-01  0.00000000000E+00 0.  1.
     999901    1    3    3    0    0 -0.82357519850E-01 -0.34236251098E-01  0.99849202787E-01  0.89012625243E+00  0.88000000000E+00 0. -1.
        -11    1    4    4    0    0 -0.12567485493E-03  0.83597256048E-03 -0.20648567719E-01  0.20672182133E-01  0.51100000000E-03 0. -1.
         11    1    4    4    0    0  0.90988113564E-01  0.36121749400E-01 -0.70301214844E-01  0.12052443536E+00  0.51100000000E-03 0.  1.
</event>
<event>
 8    1  0.2924722E+004  0.1043930E+01  0.7957747E-01            NaN
         13   -1    0    0    0    0  0.00000000000E+00  0.00000000000E+00  0.74505805969E-08  0.10566000000E+00  0.10566000000E+00 0. -1.
     999900   -1    0    0    0    0 -0.00000000000E+00 -0.00000000000E+00 -0.74505805969E-08  0.93827000000E+00  0.93827000000E+00 0. -1.
     999902    2    1    2    0    0  0.47668577623E-02  0.13292869093E-01  0.36489627786E-02  0.10293444513E+01  0.10292411094E+01 0.  0.
     999903    2    3    3    0    0  0.75120307345E-01 -0.72647589650E-01 -0.78740824499E-01  0.13854512071E+00  0.45540094129E-01 0.  0.
         14    1    1    2    0    0 -0.47668577623E-02 -0.13292869093E-01 -0.36489627786E-02  0.14585548704E-01  0.00000000000E+00 0.  1.
     999901    1    3    3    0    0 -0.70353449583E-01  0.85940458743E-01  0.82389787278E-01  0.89079933058E+00  0.88000000000E+00 0.  1.
        -11    1    4    4    0    0  0.20587305699E-01 -0.33573743016E-01 -0.54434099389E-01  0.67189029412E-01  0.51100000000E-03 0. -1.
         11    1    4    4    0    0  0.54533001646E-01 -0.39073846634E-01 -0.24306725110E-01  0.71356091302E-01  0.51100000000E-03 0.  1.
</event>
<event>
 8    1  0.2924722E+004  0.1043930E+01  0.7957747E-01            NaN
         13   -1    0    0    0    0  0.00000000000E+00  0.00000000000E+00  0.74505805969E-08  0.10566000000E+00  0.10566000000E+00 0.  1.
     999900   -1    0    0    0    0 -0.00000000000E+00 -0.00000000000E+00 -0.74505805969E-08  0.93827000000E+00  0.93827000000E+00 0.  1.
     999902    2    1    2    0    0  0.11228385106E-02  0.13623243321E-01  0.90276173647E-03  0.10302307846E+01  0.10301396997E+01 0.  0.
     999903    2    3    3    0    0 -0.12958796728E-01  0.42889195453E-01 -0.12554321207E+00  0.14059975278E+00  0.44718887356E-01 0.  0.
         14    1    1    2    0    0 -0.11228385106E-02 -0.13623243321E-01 -0.90276173647E-03  0.13699215440E-01  0.00000000000E+00 0. -1.
     999901    1    3    3    0    0  0.14081635238E-01 -0.29265952132E-01  0.12644597381E+00  0.88963103178E+00  0.88000000000E+00 0. -1.
        -11    1    4    4    0    0  0.14873455196E-01  0.21187564145E-01 -0.71572003646E-01  0.76111401056E-01  0.51100000000E-03 0. -1.
         11    1    4    4    0    0 -0.27832251924E-01  0.21701631308E-01 -0.53971208427E-01  0.64488351729E-01  0.51100000000E-03 0.  1.
</event>
<event>
 8    1  0.2924722E+004  0.1043930E+01  0.7957747E-01            NaN
         13   -1    0    0    0    0  0.00000000000E+00  0.00000000000E+00  0.74505805969E-08  0.10566000000E+00  0.10566000000E+00 0. -1.
     999900   -1    0    0    0    0 -0.00000000000E+00 -0.00000000000E+00 -0.74505805969E-08  0.93827000000E+00  0.93827000000E+00 0.  1.
     999902    2    1    2    0    0 -0.40781302653E-02  0.74550772033E-02 -0.10624654292E-01  0.10303251258E+01  0.10302352995E+01 0.  0.
     999903    2    3    3    0    0  0.83669676302E-02 -0.40018419999E-01 -0.12744763481E+00  0.14124907611E+00  0.45132270003E-01 0.  0.
         14    1    1    2    0    0  0.40781302653E-02 -0.74550772033E-02  0.10624654292E-01  0.13604874178E-01  0.00000000000E+00 0. -1.
     999901    1    3    3    0    0 -0.12445097895E-01  0.47473497202E-01  0.11682298052E+00  0.88907604971E+00  0.88000000000E+00 0. -1.
        -11    1    4    4    0    0  0.18083716246E-01 -0.14940418735E-01 -0.10039045253E+00  0.10309578549E+00  0.51100000000E-03 0. -1.
         11    1    4    4    0    0 -0.97167486155E-02 -0.25078001264E-01 -0.27057182280E-01  0.38153290618E-01  0.51100000000E-03 0.  1.
</event>
<event>
 8    1  0.2924722E+004  0.1043930E+01  0.7957747E-01            NaN
         13   -1    0    0    0    0  0.00000000000E+00  0.00000000000E+00  0.74505805969E-08  0.10566000000E+00  0.10566000000E+00 0. -1.
     999900   -1    0    0    0    0 -0.00000000000E+00 -0.00000000000E+00 -0.74505805969E-08  0.93827000000E+00  0.93827000000E+00 0. -1.
     999902    2    1    2    0    0 -0.11778675208E-01 -0.38185763213E-02  0.62306812903E-02  0.10300685389E+01  0.10299752690E+01 0.  0.
     999903    2    3    3    0    0 -0.81197586057E-01  0.44170591114E-01 -0.92157176161E-01  0.14057311121E+00  0.52189705646E-01 0.  0.
         14    1    1    2    0    0  0.11778675208E-01  0.38185763213E-02 -0.62306812903E-02  0.13861461111E-01  0.00000000000E+00 0.  1.
     999901    1    3    3    0    0  0.69418910849E-01 -0.47989167435E-01  0.98387857451E-01  0.88949542768E+00  0.88000000000E+00 0.  1.
        -11    1    4    4    0    0 -0.72036961117E-01  0.20209485532E-01 -0.46187289615E-01  0.87927662970E-01  0.51100000000E-03 0.  1.
         11    1    4    4    0    0 -0.91606249408E-02  0.23961105582E-01 -0.45969886546E-01  0.52645448236E-01  0.51100000000E-03 0. -1.
</event>
<event>
 8    1  0.2924722E+004  0.1043930E+01  0.7957747E-01            NaN
         13   -1    0    0    0    0  0.00000000000E+00  0.00000000000E+00  0.74505805969E-08  0.10566000000E+00  0.10566000000E+00 0.  1.
     999900   -1    0    0    0    0 -0.00000000000E+00 -0.00000000000E+00 -0.74505805969E-08  0.93827000000E+00  0.93827000000E+00 0.  1.
     999902    2    1    2    0    0  0.23057935802E-02 -0.11799592207E-01  0.61791107888E-02  0.10304122905E+01  0.10303236190E+01 0.  0.
     999903    2    3    3    0    0 -0.89886715946E-02 -0.23699523536E-01  0.13139357663E+00  0.14139719739E+00  0.45677476039E-01 0.  0.
         14    1    1    2    0    0 -0.23057935802E-02  0.11799592207E-01 -0.61791107888E-02  0.13517709511E-01  0.00000000000E+00 0.  1.
     999901    1    3    3    0    0  0.11294465175E-01  0.11899931329E-01 -0.12521446584E+00  0.88901509310E+00  0.88000000000E+00 0.  1.
        -11    1    4    4    0    0  0.15106381807E-01  0.73737686403E-03  0.64029950406E-01  0.65793937151E-01  0.51100000000E-03 0. -1.
         11    1    4    4    0    0 -0.24095053402E-01 -0.24436900400E-01  0.67363626220E-01  0.75603260235E-01  0.51100000000E-03 0.  1.
</event>
<event>
 8    1  0.2924722E+004  0.1043930E+01  0.7957747E-01            NaN
         13   -1    0    0    0    0  0.00000000000E+00  0.00000000000E+00  0.74505805969E-08  0.10566000000E+00  0.10566000000E+00 0. -1.
     999900   -1    0    0    0    0 -0.00000000000E+00 -0.00000000000E+00 -0.74505805969E-08  0.93827000000E+00  0.93827000000E+00 0. -1.
     999902    2    1    2    0    0  0.69448636029E-02  0.12145565445E-01 -0.11216659629E-02  0.10298941878E+01  0.10297985405E+01 0.  0.
     999903    2    3    3    0    0 -0.10714946568E+00  0.73147786487E-01 -0.27595107089E-01  0.14004047505E+00  0.44924804447E-01 0.  0.
         14    1    1    2    0    0 -0.69448636029E-02 -0.12145565445E-01  0.11216659629E-02  0.14035812230E-01  0.00000000000E+00 0.  1.
     999901    1    3    3    0    0  0.11409432928E+00 -0.61002221043E-01  0.26473441126E-01  0.88985371271E+00  0.88000000000E+00 0.  1.
        -11    1    4    4    0    0 -0.56267364821E-01  0.43355627771E-01 -0.37379453063E-01  0.80269617139E-01  0.51100000000E-03 0.  1.
         11    1    4    4    0    0 -0.50882100860E-01  0.29792158717E-01  0.97843459734E-02  0.59770857916E-01  0.51100000000E-03 0. -1.
</event>
<event>
 8    1  0.2924722E+004  0.1043930E+01  0.7957747E-01            NaN
         13   -1    0    0    0    0  0.00000000000E+00  0.00000000000E+00  0.74505805969E-08  0.10566000000E+00  0.10566000000E+00 0.  1.
     999900   -1    0    0    0    0 -0.00000000000E+00 -0.00000000000E+00 -0.74505805969E-08  0.93827000000E+00  0.93827000000E+00 0. -1.
     999902    2    1    2    0    0 -0.85572422191E-02  0.37656466261E-03  0.10710126754E-01  0.10302159557E+01  0.10301246723E+01 0.  0.
     999903    2    3    3    0    0  0.43684342000E-01  0.77964000028E-02  0.12609360637E+00  0.14111664493E+00  0.45223935259E-01 0.  0.
         14    1    1    2    0    0  0.85572422191E-02 -0.37656466261E-03 -0.10710126754E-01  0.13714044277E-01  0.00000000000E+00 0. -1.
     999901    1    3    3    0    0 -0.52241584219E-01 -0.74198353402E-02 -0.11538347962E+00  0.88909931079E+00  0.88000000000E+00 0. -1.
        -11    1    4    4    0    0  0.33798123809E-01  0.62034946904E-03  0.12423078353E+00  0.12874877360E+00  0.51100000000E-03 0. -1.
         11    1    4    4    0    0  0.98862181915E-02  0.71760505338E-02  0.18628228450E-02  0.12367871334E-01  0.51100000000E-03 0.  1.
</event>
<event>
 8    1  0.2924722E+004  0.1043930E+01  0.7957747E-01            NaN
         13   -1    0    0    0    0  0.00000000000E+00  0.00000000000E+00  0.74505805969E-08  0.10566000000E+00  0.10566000000E+00 0.  1.
     999900   -1    0    0    0    0 -0.00000000000E+00 -0.00000000000E+00 -0.74505805969E-08  0.93827000000E+00  0.93827000000E+00 0. -1.
     999902    2    1    2    0    0  0.20356508509E-01  0.10417159036E-01  0.54594285637E-02  0.10204202148E+01  0.10201493541E+01 0.  0.
     999903    2    3    3    0    0  0.18623516817E-01 -0.23372184906E-01  0.12067429702E+00  0.13226527957E+00  0.45152229302E-01 0.  0.
         14    1    1    2    0    0 -0.20356508509E-01 -0.10417159036E-01 -0.54594285637E-02  0.23509785225E-01  0.00000000000E+00 0. -1.
     999901    1    3    3    0    0  0.17329916921E-02  0.33789343943E-01 -0.11521486846E+00  0.88815493521E+00  0.88000000000E+00 0. -1.
        -11    1    4    4    0    0 -0.11142543466E-01 -0.19919136834E-01  0.67107595873E-01  0.70884545791E-01  0.51100000000E-03 0. -1.
         11    1    4    4    0    0  0.29766060283E-01 -0.34530480727E-02  0.53566701148E-01  0.61380733774E-01  0.51100000000E-03 0.  1.
</event>
<event>
 8    1  0.2924722E+004  0.1043930E+01  0.7957747E-01            NaN
         13   -1    0    0    0    0  0.00000000000E+00  0.00000000000E+00  0.74505805969E-08  0.10566000000E+00  0.10566000000E+00 0.  1.
     999900   -1    0    0    0    0 -0.00000000000E+00 -0.00000000000E+00 -0.74505805969E-08  0.93827000000E+00  0.93827000000E+00 0. -1.
     999902    2    1    2    0    0  0.23887371124E-03  0.48486198597E-02  0.12814749599E-01  0.10302265704E+01  0.10301354292E+01 0.  0.
     999903    2    3    3    0    0 -0.72284252191E-02 -0.49113972241E-01 -0.12121427218E+00  0.13841296849E+00  0.44730500401E-01 0.  0.
         14    1    1    2    0    0 -0.23887371124E-03 -0.48486198597E-02 -0.12814749599E-01  0.13703429588E-01  0.00000000000E+00 0. -1.
     999901    1    3    3    0    0  0.74672989303E-02  0.53962592100E-01  0.13402902177E+00  0.89181360192E+00  0.88000000000E+00 0.  1.
        -11    1    4    4    0    0 -0.56061572651E-02 -0.55159263825E-01 -0.83845374327E-01  0.10052005423E+00  0.51100000000E-03 0. -1.
         11    1    4    4    0    0 -0.16222679540E-02  0.60452915844E-02 -0.37368897849E-01  0.37892914260E-01  0.51100000000E-03 0.  1.
</event>
