<event>
 8    1  0.1030163E+005  0.1043930E+01  0.7957747E-01            NaN
         13   -1    0    0    0    0  0.00000000000E+00  0.00000000000E+00  0.74505805969E-08  0.10566000000E+00  0.10566000000E+00 0. -1.
     999900   -1    0    0    0    0 -0.00000000000E+00 -0.00000000000E+00 -0.74505805969E-08  0.93827000000E+00  0.93827000000E+00 0.  1.
     999902    2    1    2    0    0 -0.21728409257E-01  0.68193809609E-02  0.48456044210E-02  0.10206467956E+01  0.10203811904E+01 0.  0.
     999903    2    3    3    0    0  0.82485475419E-01  0.57395155088E-01 -0.78600993757E-01  0.12914145212E+00  0.20033495767E-01 0.  0.
         14    1    1    2    0    0  0.21728409257E-01 -0.68193809609E-02 -0.48456044210E-02  0.23283204413E-01  0.00000000000E+00 0.  1.
     999901    1    3    3    0    0 -0.10421388468E+00 -0.50575774127E-01  0.83446598178E-01  0.89150534347E+00  0.88000000000E+00 0. -1.
        -11    1    4    4    0    0  0.20129506239E-01  0.20802725098E-01 -0.13894849787E-01  0.32113523078E-01  0.51100000000E-03 0.  1.
         11    1    4    4    0    0  0.62355969181E-01  0.36592429989E-01 -0.64706143971E-01  0.97027929039E-01  0.51100000000E-03 0. -1.
</event>
<event>
 8    1  0.1030163E+005  0.1043930E+01  0.7957747E-01            NaN
         13   -1    0    0    0    0  0.00000000000E+00  0.00000000000E+00  0.74505805969E-08  0.10566000000E+00  0.10566000000E+00 0.  1.
     999900   -1    0    0    0    0 -0.00000000000E+00 -0.00000000000E+00 -0.74505805969E-08  0.93827000000E+00  0.93827000000E+00 0. -1.
     999902    2    1    2    0    0  0.55282840522E-02 -0.19650416241E-02 -0.23161713216E-01  0.10200367317E+01  0.10197568561E+01 0.  0.
     999903    2    3    3    0    0  0.57514887574E-01  0.86149056181E-02  0.11236775999E+00  0.12808225953E+00  0.19909114247E-01 0.  0.
         14    1    1    2    0    0 -0.55282840522E-02  0.19650416241E-02  0.23161713216E-01  0.23893268346E-01  0.00000000000E+00 0.  1.
     999901    1    3    3    0    0 -0.51986603522E-01 -0.10579947242E-01 -0.13552947321E+00  0.89195447212E+00  0.88000000000E+00 0. -1.
        -11    1    4    4    0    0  0.26606585005E-01  0.12964737503E-01  0.64017129068E-01  0.70529771865E-01  0.51100000000E-03 0.  1.
         11    1    4    4    0    0  0.30908302569E-01 -0.43498318848E-02  0.48350630923E-01  0.57552487668E-01  0.51100000000E-03 0. -1.
</event>
<event>
 8    1  0.1030163E+005  0.1043930E+01  0.7957747E-01            NaN
         13   -1    0    0    0    0  0.00000000000E+00  0.00000000000E+00  0.74505805969E-08  0.10566000000E+00  0.10566000000E+00 0.  1.
     999900   -1    0    0    0    0 -0.00000000000E+00 -0.00000000000E+00 -0.74505805969E-08  0.93827000000E+00  0.93827000000E+00 0. -1.
     999902    2    1    2    0    0  0.12302884991E-01 -0.86554159242E-02 -0.18356234181E-01  0.10201975636E+01  0.10199214873E+01 0.  0.
     999903    2    3    3    0    0 -0.18228346243E-01  0.10088454048E+00 -0.78759341454E-01  0.13082717198E+00  0.20068680758E-01 0.  0.
         14    1    1    2    0    0 -0.12302884991E-01  0.86554159242E-02  0.18356234181E-01  0.23732436395E-01  0.00000000000E+00 0.  1.
     999901    1    3    3    0    0  0.30531231234E-01 -0.10953995641E+00  0.60403107273E-01  0.88937039162E+00  0.88000000000E+00 0. -1.
        -11    1    4    4    0    0 -0.63257530393E-02  0.65262123278E-01 -0.59835303448E-01  0.88767587249E-01  0.51100000000E-03 0.  1.
         11    1    4    4    0    0 -0.11902593203E-01  0.35622417203E-01 -0.18924038005E-01  0.42059584731E-01  0.51100000000E-03 0. -1.
</event>
<event>
 8    1  0.1030163E+005  0.1043930E+01  0.7957747E-01            NaN
         13   -1    0    0    0    0  0.00000000000E+00  0.00000000000E+00  0.74505805969E-08  0.10566000000E+00  0.10566000000E+00 0. -1.
     999900   -1    0    0    0    0 -0.00000000000E+00 -0.00000000000E+00 -0.74505805969E-08  0.93827000000E+00  0.93827000000E+00 0.  1.
     999902    2    1    2    0    0 -0.38367100303E-02 -0.55756443797E-02  0.20995973758E-01  0.10218701027E+01  0.10216319630E+01 0.  0.
     999903    2    3    3    0    0  0.43546620160E-01  0.11893048629E+00 -0.25089004895E-01  0.13065139678E+00  0.19989012422E-01 0.  0.
         14    1    1    2    0    0  0.38367100303E-02  0.55756443797E-02 -0.20995973758E-01  0.22059897283E-01  0.00000000000E+00 0.  1.
     999901    1    3    3    0    0 -0.47383330191E-01 -0.12450613067E+00  0.46084978653E-01  0.89121870594E+00  0.88000000000E+00 0. -1.
        -11    1    4    4    0    0  0.34208011164E-01  0.69895243914E-01 -0.97423620795E-02  0.78426448916E-01  0.51100000000E-03 0. -1.
         11    1    4    4    0    0  0.93386089967E-02  0.49035242375E-01 -0.15346642815E-01  0.52224947864E-01  0.51100000000E-03 0.  1.
</event>
<event>
 8    1  0.1043527E+005  0.1043930E+01  0.7957747E-01            NaN
         13   -1    0    0    0    0  0.00000000000E+00  0.00000000000E+00  0.74505805969E-08  0.10566000000E+00  0.10566000000E+00 0.  1.
     999900   -1    0    0    0    0 -0.00000000000E+00 -0.00000000000E+00 -0.74505805969E-08  0.93827000000E+00  0.93827000000E+00 0. -1.
     999902    2    1    2    0    0  0.22535163850E-01 -0.39709756482E-02  0.54461834929E-02  0.10204084530E+01  0.10201373181E+01 0.  0.
     999903    2    3    3    0    0 -0.47402973962E-01  0.11748136574E+00  0.12187492616E-01  0.12929260220E+00  0.22784397513E-01 0.  0.
         14    1    1    2    0    0 -0.22535163850E-01  0.39709756482E-02 -0.54461834929E-02  0.23521546972E-01  0.00000000000E+00 0.  1.
     999901    1    3    3    0    0  0.69938137812E-01 -0.12145234139E+00 -0.67413091228E-02  0.89111585083E+00  0.88000000000E+00 0. -1.
        -11    1    4    4    0    0 -0.13848255796E-01  0.52645633454E-01  0.14194934457E-01  0.56259169880E-01  0.51100000000E-03 0. -1.
         11    1    4    4    0    0 -0.33554718166E-01  0.64835732288E-01 -0.20074418410E-02  0.73033432319E-01  0.51100000000E-03 0.  1.
</event>
<event>
 8    1  0.1030163E+005  0.1043930E+01  0.7957747E-01            NaN
         13   -1    0    0    0    0  0.00000000000E+00  0.00000000000E+00  0.74505805969E-08  0.10566000000E+00  0.10566000000E+00 0. -1.
     999900   -1    0    0    0    0 -0.00000000000E+00 -0.00000000000E+00 -0.74505805969E-08  0.93827000000E+00  0.93827000000E+00 0.  1.
     999902    2    1    2    0    0  0.14480245458E-01  0.14558248774E-01 -0.11049939421E-01  0.10206121683E+01  0.10203457633E+01 0.  0.
     999903    2    3    3    0    0  0.87982118299E-01 -0.29447821520E-01  0.89864286139E-01  0.13071175785E+00  0.20048600529E-01 0.  0.
         14    1    1    2    0    0 -0.14480245458E-01 -0.14558248774E-01  0.11049939421E-01  0.23317831740E-01  0.00000000000E+00 0. -1.
     999901    1    3    3    0    0 -0.73501872841E-01  0.44006070293E-01 -0.10091422556E+00  0.88990041041E+00  0.88000000000E+00 0.  1.
        -11    1    4    4    0    0  0.26441732557E-01 -0.13830257275E-01  0.18155400114E-01  0.34933091921E-01  0.51100000000E-03 0.  1.
         11    1    4    4    0    0  0.61540385742E-01 -0.15617564245E-01  0.71708886026E-01  0.95778665925E-01  0.51100000000E-03 0. -1.
</event>
<event>
 8    1  0.1030163E+005  0.1043930E+01  0.7957747E-01            NaN
         13   -1    0    0    0    0  0.00000000000E+00  0.00000000000E+00  0.74505805969E-08  0.10566000000E+00  0.10566000000E+00 0.  1.
     999900   -1    0    0    0    0 -0.00000000000E+00 -0.00000000000E+00 -0.74505805969E-08  0.93827000000E+00  0.93827000000E+00 0. -1.
     999902    2    1    2    0    0  0.12180517262E-01  0.15190809867E-01  0.12829847274E-01  0.10206119665E+01  0.10203455569E+01 0.  0.
     999903    2    3    3    0    0  0.85601683608E-01  0.98987066205E-01  0.24174284223E-01  0.13351491629E+00  0.10758686810E-01 0.  0.
         14    1    1    2    0    0 -0.12180517262E-01 -0.15190809867E-01 -0.12829847274E-01  0.23318033499E-01  0.00000000000E+00 0.  1.
     999901    1    3    3    0    0 -0.73421166346E-01 -0.83796256337E-01 -0.11344436949E-01  0.88709705021E+00  0.88000000000E+00 0.  1.
        -11    1    4    4    0    0  0.69974571150E-01  0.86411492260E-01  0.21811989401E-01  0.11331112304E+00  0.51100000000E-03 0.  1.
         11    1    4    4    0    0  0.15627112458E-01  0.12575573945E-01  0.23622948221E-02  0.20203793248E-01  0.51100000000E-03 0. -1.
</event>
<event>
 8    1  0.1030163E+005  0.1043930E+01  0.7957747E-01            NaN
         13   -1    0    0    0    0  0.00000000000E+00  0.00000000000E+00  0.74505805969E-08  0.10566000000E+00  0.10566000000E+00 0. -1.
     999900   -1    0    0    0    0 -0.00000000000E+00 -0.00000000000E+00 -0.74505805969E-08  0.93827000000E+00  0.93827000000E+00 0. -1.
     999902    2    1    2    0    0  0.38883394495E-03  0.23380035175E-01  0.47957663625E-02  0.10200600060E+01  0.10197806820E+01 0.  0.
     999903    2    3    3    0    0 -0.45738297715E-01  0.12276575438E-01  0.12029062378E+00  0.13124615535E+00  0.22649789024E-01 0.  0.
         14    1    1    2    0    0 -0.38883394495E-03 -0.23380035175E-01 -0.47957663625E-02  0.23869993960E-01  0.00000000000E+00 0.  1.
     999901    1    3    3    0    0  0.46127131660E-01  0.11103459737E-01 -0.11549485741E+00  0.88881385069E+00  0.88000000000E+00 0. -1.
        -11    1    4    4    0    0 -0.28201212798E-01 -0.40884165115E-02  0.64714481845E-01  0.70712437621E-01  0.51100000000E-03 0.  1.
         11    1    4    4    0    0 -0.17537084917E-01  0.16364991949E-01  0.55576141931E-01  0.60533717727E-01  0.51100000000E-03 0. -1.
</event>
<event>
 8    1  0.1030163E+005  0.1043930E+01  0.7957747E-01            NaN
         13   -1    0    0    0    0  0.00000000000E+00  0.00000000000E+00  0.74505805969E-08  0.10566000000E+00  0.10566000000E+00 0. -1.
     999900   -1    0    0    0    0 -0.00000000000E+00 -0.00000000000E+00 -0.74505805969E-08  0.93827000000E+00  0.93827000000E+00 0.  1.
     999902    2    1    2    0    0 -0.34263812760E-02 -0.20557747591E-01 -0.11116410232E-01  0.10203093385E+01  0.10200358869E+01 0.  0.
     999903    2    3    3    0    0 -0.12375919824E+00  0.34539713259E-01  0.52774120573E-02  0.13026188218E+00  0.20759959793E-01 0.  0.
         14    1    1    2    0    0  0.34263812760E-02  0.20557747591E-01  0.11116410232E-01  0.23620661530E-01  0.00000000000E+00 0. -1.
     999901    1    3    3    0    0  0.12033281697E+00 -0.55097460850E-01 -0.16393822289E-01  0.89004745629E+00  0.88000000000E+00 0.  1.
        -11    1    4    4    0    0 -0.10015607561E+00  0.24913972087E-01  0.11973302611E-01  0.10390171598E+00  0.51100000000E-03 0.  1.
         11    1    4    4    0    0 -0.23603122630E-01  0.96257411714E-02 -0.66958905542E-02  0.26360166204E-01  0.51100000000E-03 0. -1.
</event>
<event>
 8    1  0.1030163E+005  0.1043930E+01  0.7957747E-01            NaN
         13   -1    0    0    0    0  0.00000000000E+00  0.00000000000E+00  0.74505805969E-08  0.10566000000E+00  0.10566000000E+00 0.  1.
     999900   -1    0    0    0    0 -0.00000000000E+00 -0.00000000000E+00 -0.74505805969E-08  0.93827000000E+00  0.93827000000E+00 0.  1.
     999902    2    1    2    0    0 -0.17837922547E-01 -0.10051277866E-01 -0.11231288157E-01  0.10205770237E+01  0.10203098058E+01 0.  0.
     999903    2    3    3    0    0 -0.95477388647E-01 -0.88948197524E-01 -0.19940010936E-01  0.13359988056E+00  0.20581799356E-01 0.  0.
         14    1    1    2    0    0  0.17837922547E-01  0.10051277866E-01  0.11231288157E-01  0.23352976281E-01  0.00000000000E+00 0.  1.
     999901    1    3    3    0    0  0.77639466100E-01  0.78896919658E-01  0.87087227790E-02  0.88697714316E+00  0.88000000000E+00 0. -1.
        -11    1    4    4    0    0 -0.65082519048E-01 -0.71297966212E-01 -0.19271862862E-01  0.98441861475E-01  0.51100000000E-03 0.  1.
         11    1    4    4    0    0 -0.30394869600E-01 -0.17650231312E-01 -0.66814807370E-03  0.35158019088E-01  0.51100000000E-03 0. -1.
</event>
<event>
 8    1  0.1030163E+005  0.1043930E+01  0.7957747E-01            NaN
         13   -1    0    0    0    0  0.00000000000E+00  0.00000000000E+00  0.74505805969E-08  0.10566000000E+00  0.10566000000E+00 0. -1.
     999900   -1    0    0    0    0 -0.00000000000E+00 -0.00000000000E+00 -0.74505805969E-08  0.93827000000E+00  0.93827000000E+00 0.  1.
     999902    2    1    2    0    0  0.15618060637E-01 -0.10924430978E-01  0.13403745273E-01  0.10206291975E+01  0.10203631860E+01 0.  0.
     999903    2    3    3    0    0  0.25127188648E-01  0.11044462427E+00 -0.59237603701E-01  0.12928322837E+00  0.19382177525E-01 0.  0.
         14    1    1    2    0    0 -0.15618060637E-01  0.10924430978E-01 -0.13403745273E-01  0.23300802510E-01  0.00000000000E+00 0.  1.
     999901    1    3    3    0    0 -0.95091280104E-02 -0.12136905525E+00  0.72641348973E-01  0.89134596912E+00  0.88000000000E+00 0. -1.
        -11    1    4    4    0    0  0.19362532208E-01  0.10504081815E+00 -0.53207456496E-01  0.11933053121E+00  0.51100000000E-03 0. -1.
         11    1    4    4    0    0  0.57646564392E-02  0.54038061260E-02 -0.60301472048E-02  0.99526971632E-02  0.51100000000E-03 0.  1.
</event>
<event>
 8    1  0.1030163E+005  0.1043930E+01  0.7957747E-01            NaN
         13   -1    0    0    0    0  0.00000000000E+00  0.00000000000E+00  0.74505805969E-08  0.10566000000E+00  0.10566000000E+00 0.  1.
     999900   -1    0    0    0    0 -0.00000000000E+00 -0.00000000000E+00 -0.74505805969E-08  0.93827000000E+00  0.93827000000E+00 0.  1.
     999902    2    1    2    0    0  0.47336220656E-02  0.16625589588E-01 -0.15791804596E-01  0.10205163608E+01  0.10202477367E+01 0.  0.
     999903    2    3    3    0    0  0.95543358987E-01 -0.85216079592E-01 -0.10014300104E-01  0.12998196314E+00  0.20117426963E-01 0.  0.
         14    1    1    2    0    0 -0.47336220656E-02 -0.16625589588E-01  0.15791804596E-01  0.23413639175E-01  0.00000000000E+00 0.  1.
     999901    1    3    3    0    0 -0.90809736922E-01  0.10184166918E+00 -0.57775044911E-02  0.89053439768E+00  0.88000000000E+00 0.  1.
        -11    1    4    4    0    0  0.16030641747E-01 -0.12063169362E-01  0.55468520852E-02  0.20821388497E-01  0.51100000000E-03 0. -1.
         11    1    4    4    0    0  0.79512717240E-01 -0.73152910230E-01 -0.15561152190E-01  0.10916057464E+00  0.51100000000E-03 0.  1.
</event>
<event>
 8    1  0.1030163E+005  0.1043930E+01  0.7957747E-01            NaN
         13   -1    0    0    0    0  0.00000000000E+00  0.00000000000E+00  0.74505805969E-08  0.10566000000E+00  0.10566000000E+00 0.  1.
     999900   -1    0    0    0    0 -0.00000000000E+00 -0.00000000000E+00 -0.74505805969E-08  0.93827000000E+00  0.93827000000E+00 0.  1.
     999902    2    1    2    0    0 -0.92668276063E-02  0.21345019121E-01  0.14304508280E-01  0.10166151159E+01  0.10162480952E+01 0.  0.
     999903    2    3    3    0    0  0.77575584986E-01 -0.49766503458E-01  0.84603983706E-01  0.12670474430E+00  0.20039508910E-01 0.  0.
         14    1    1    2    0    0  0.92668276063E-02 -0.21345019121E-01 -0.14304508280E-01  0.27314884080E-01  0.00000000000E+00 0. -1.
     999901    1    3    3    0    0 -0.86842412593E-01  0.71111522579E-01 -0.70299475426E-01  0.88991037162E+00  0.88000000000E+00 0.  1.
        -11    1    4    4    0    0  0.11063212183E-01 -0.15190143546E-01  0.22781715346E-01  0.29536465595E-01  0.51100000000E-03 0.  1.
         11    1    4    4    0    0  0.66512372804E-01 -0.34576359912E-01  0.61822268360E-01  0.97168278707E-01  0.51100000000E-03 0. -1.
</event>
<event>
 8    1  0.1030163E+005  0.1043930E+01  0.7957747E-01            NaN
         13   -1    0    0    0    0  0.00000000000E+00  0.00000000000E+00  0.74505805969E-08  0.10566000000E+00  0.10566000000E+00 0. -1.
     999900   -1    0    0    0    0 -0.00000000000E+00 -0.00000000000E+00 -0.74505805969E-08  0.93827000000E+00  0.93827000000E+00 0.  1.
     999902    2    1    2    0    0 -0.42671248504E-02  0.13864253901E-01  0.18348157014E-01  0.10205402425E+01  0.10202721724E+01 0.  0.
     999903    2    3    3    0    0  0.63789855576E-01 -0.90151356084E-01 -0.61998738962E-01  0.12818010028E+00  0.19745424710E-01 0.  0.
         14    1    1    2    0    0  0.42671248504E-02 -0.13864253901E-01 -0.18348157014E-01  0.23389757513E-01  0.00000000000E+00 0.  1.
     999901    1    3    3    0    0 -0.68056980426E-01  0.10401560998E+00  0.80346895976E-01  0.89236014221E+00  0.88000000000E+00 0. -1.
        -11    1    4    4    0    0  0.25493919531E-01 -0.53030032634E-01 -0.31680931189E-01  0.66828637695E-01  0.51100000000E-03 0.  1.
         11    1    4    4    0    0  0.38295936045E-01 -0.37121323450E-01 -0.30317807773E-01  0.61351462585E-01  0.51100000000E-03 0. -1.
</event>
<event>
 8    1  0.1030163E+005  0.1043930E+01  0.7957747E-01            NaN
         13   -1    0    0    0    0  0.00000000000E+00  0.00000000000E+00  0.74505805969E-08  0.10566000000E+00  0.10566000000E+00 0.  1.
     999900   -1    0    0    0    0 -0.00000000000E+00 -0.00000000000E+00 -0.74505805969E-08  0.93827000000E+00  0.93827000000E+00 0. -1.
     999902    2    1    2    0    0 -0.91816839216E-02  0.19000987870E-01  0.10396729119E-01  0.10204048467E+01  0.10201336277E+01 0.  0.
     999903    2    3    3    0    0  0.34203404931E-01  0.65907264463E-01 -0.10551116727E+00  0.13050760258E+00  0.19646564414E-01 0.  0.
         14    1    1    2    0    0  0.91816839216E-02 -0.19000987870E-01 -0.10396729119E-01  0.23525153263E-01  0.00000000000E+00 0. -1.
     999901    1    3    3    0    0 -0.43385088852E-01 -0.46906276593E-01  0.11590789639E+00  0.88989724416E+00  0.88000000000E+00 0.  1.
        -11    1    4    4    0    0  0.14821282713E-01  0.35757117713E-01 -0.70340199750E-01  0.80288521660E-01  0.51100000000E-03 0.  1.
         11    1    4    4    0    0  0.19382122217E-01  0.30150146750E-01 -0.35170967522E-01  0.50219080917E-01  0.51100000000E-03 0. -1.
</event>
<event>
 8    1  0.1030163E+005  0.1043930E+01  0.7957747E-01            NaN
         13   -1    0    0    0    0  0.00000000000E+00  0.00000000000E+00  0.74505805969E-08  0.10566000000E+00  0.10566000000E+00 0. -1.
     999900   -1    0    0    0    0 -0.00000000000E+00 -0.00000000000E+00 -0.74505805969E-08  0.93827000000E+00  0.93827000000E+00 0. -1.
     999902    2    1    2    0    0 -0.76873983526E-03 -0.22317674869E-01 -0.68134754678E-02  0.10205827727E+01  0.10203156879E+01 0.  0.
     999903    2    3    3    0    0  0.12308961653E-01  0.10676545105E+00 -0.68339682391E-01  0.12894441903E+00  0.20148918944E-01 0.  0.
         14    1    1    2    0    0  0.76873983526E-03  0.22317674869E-01  0.68134754678E-02  0.23347227254E-01  0.00000000000E+00 0. -1.
     999901    1    3    3    0    0 -0.13077701488E-01 -0.12908312592E+00  0.61526206923E-01  0.89163835371E+00  0.88000000000E+00 0.  1.
        -11    1    4    4    0    0  0.12850762269E-01  0.93755087876E-01 -0.51783365958E-01  0.10787463420E+00  0.51100000000E-03 0.  1.
         11    1    4    4    0    0 -0.54180061589E-03  0.13010363177E-01 -0.16556316433E-01  0.21069784829E-01  0.51100000000E-03 0. -1.
</event>
<event>
 8    1  0.1030163E+005  0.1043930E+01  0.7957747E-01            NaN
         13   -1    0    0    0    0  0.00000000000E+00  0.00000000000E+00  0.74505805969E-08  0.10566000000E+00  0.10566000000E+00 0.  1.
     999900   -1    0    0    0    0 -0.00000000000E+00 -0.00000000000E+00 -0.74505805969E-08  0.93827000000E+00  0.93827000000E+00 0.  1.
     999902    2    1    2    0    0  0.60968425611E-02 -0.12273080907E-01  0.30953471660E-01  0.10100785981E+01  0.10095111970E+01 0.  0.
     999903    2    3    3    0    0  0.35388085592E-01 -0.58436766941E-01 -0.95719896087E-01  0.11932879880E+00  0.20245774447E-01 0.  0.
         14    1    1    2    0    0 -0.60968425611E-02  0.12273080907E-01 -0.30953471660E-01  0.33851401921E-01  0.00000000000E+00 0. -1.
     999901    1    3    3    0    0 -0.29291243031E-01  0.46163686033E-01  0.12667336775E+00  0.89074979928E+00  0.88000000000E+00 0. -1.
        -11    1    4    4    0    0  0.18529321031E-01 -0.47250859425E-01 -0.72869619076E-01  0.88804402816E-01  0.51100000000E-03 0.  1.
         11    1    4    4    0    0  0.16858764561E-01 -0.11185907516E-01 -0.22850277011E-01  0.30524395981E-01  0.51100000000E-03 0. -1.
</event>
<event>
 8    1  0.1030163E+005  0.1043930E+01  0.7957747E-01            NaN
         13   -1    0    0    0    0  0.00000000000E+00  0.00000000000E+00  0.74505805969E-08  0.10566000000E+00  0.10566000000E+00 0. -1.
     999900   -1    0    0    0    0 -0.00000000000E+00 -0.00000000000E+00 -0.74505805969E-08  0.93827000000E+00  0.93827000000E+00 0.  1.
     999902    2    1    2    0    0  0.90905156426E-02  0.15676361161E-01 -0.15546052518E-01  0.10200539550E+01  0.10197744877E+01 0.  0.
     999903    2    3    3    0    0  0.12235336104E+00 -0.95696104341E-02  0.39642396614E-01  0.13072184826E+00  0.21325093271E-01 0.  0.
         14    1    1    2    0    0 -0.90905156426E-02 -0.15676361161E-01  0.15546052518E-01  0.23876044957E-01  0.00000000000E+00 0. -1.
     999901    1    3    3    0    0 -0.11326284540E+00  0.25245971595E-01 -0.55188449132E-01  0.88933210678E+00  0.88000000000E+00 0. -1.
        -11    1    4    4    0    0  0.58872542551E-01 -0.10015831459E-01  0.95981296423E-02  0.60487009844E-01  0.51100000000E-03 0.  1.
         11    1    4    4    0    0  0.63480818488E-01  0.44622102506E-03  0.30044266972E-01  0.70234838421E-01  0.51100000000E-03 0. -1.
</event>
<event>
 8    1  0.1030163E+005  0.1043930E+01  0.7957747E-01            NaN
         13   -1    0    0    0    0  0.00000000000E+00  0.00000000000E+00  0.74505805969E-08  0.10566000000E+00  0.10566000000E+00 0.  1.
     999900   -1    0    0    0    0 -0.00000000000E+00 -0.00000000000E+00 -0.74505805969E-08  0.93827000000E+00  0.93827000000E+00 0.  1.
     999902    2    1    2    0    0  0.67042129773E-02  0.28197446079E-02 -0.22274296869E-01  0.10204983604E+01  0.10202293183E+01 0.  0.
     999903    2    3    3    0    0  0.12904999037E+00 -0.13285606278E-01  0.83308616322E-02  0.13136139276E+00  0.18868092185E-01 0.  0.
         14    1    1    2    0    0 -0.67042129773E-02 -0.28197446079E-02  0.22274296869E-01  0.23431639556E-01  0.00000000000E+00 0.  1.
     999901    1    3    3    0    0 -0.12234577740E+00  0.16105350886E-01 -0.30605158501E-01  0.88913696768E+00  0.88000000000E+00 0.  1.
        -11    1    4    4    0    0  0.11116788747E+00 -0.13761316869E-01  0.13258927204E-01  0.11279952711E+00  0.51100000000E-03 0.  1.
         11    1    4    4    0    0  0.17882102909E-01  0.47571059056E-03 -0.49280655721E-02  0.18561865647E-01  0.51100000000E-03 0. -1.
</event>
<event>
 8    1  0.1030163E+005  0.1043930E+01  0.7957747E-01            NaN
         13   -1    0    0    0    0  0.00000000000E+00  0.00000000000E+00  0.74505805969E-08  0.10566000000E+00  0.10566000000E+00 0.  1.
     999900   -1    0    0    0    0 -0.00000000000E+00 -0.00000000000E+00 -0.74505805969E-08  0.93827000000E+00  0.93827000000E+00 0.  1.
     999902    2    1    2    0    0 -0.22963798785E-01  0.43474946553E-02 -0.34064960031E-02  0.10203113426E+01  0.10200379379E+01 0.  0.
     999903    2    3    3    0    0  0.93088555735E-01 -0.47519010293E-01  0.70647537761E-01  0.12809932558E+00  0.22244708891E-01 0.  0.
         14    1    1    2    0    0  0.22963798785E-01 -0.43474946553E-02  0.34064960031E-02  0.23618657444E-01  0.00000000000E+00 0. -1.
     999901    1    3    3    0    0 -0.11605235452E+00  0.51866504949E-01 -0.74054033764E-01  0.89221201698E+00  0.88000000000E+00 0.  1.
        -11    1    4    4    0    0  0.41186116661E-01 -0.32683499957E-01  0.39594337152E-01  0.65821577241E-01  0.51100000000E-03 0. -1.
         11    1    4    4    0    0  0.51902439074E-01 -0.14835510337E-01  0.31053200609E-01  0.62277748336E-01  0.51100000000E-03 0.  1.
</event>
<event>
 8    1  0.1030163E+005  0.1043930E+01  0.7957747E-01            NaN
         13   -1    0    0    0    0  0.00000000000E+00  0.00000000000E+00  0.74505805969E-08  0.10566000000E+00  0.10566000000E+00 0.  1.
     999900   -1    0    0    0    0 -0.00000000000E+00 -0.00000000000E+00 -0.74505805969E-08  0.93827000000E+00  0.93827000000E+00 0.  1.
     999902    2    1    2    0    0 -0.10053614660E-02  0.21802316810E-01 -0.10337925618E-01  0.10197799591E+01  0.10194939629E+01 0.  0.
     999903    2    3    3    0    0 -0.12353043087E+00  0.17763211931E-01 -0.33815001346E-01  0.13097183577E+00  0.20853498506E-01 0.  0.
         14    1    1    2    0    0  0.10053614660E-02 -0.21802316810E-01  0.10337925618E-01  0.24150040911E-01  0.00000000000E+00 0.  1.
     999901    1    3    3    0    0  0.12252506940E+00  0.40391048783E-02  0.23477075729E-01  0.88880812332E+00  0.88000000000E+00 0. -1.
        -11    1    4    4    0    0 -0.29079779843E-01  0.11406230875E-01 -0.14097780534E-01  0.34274542090E-01  0.51100000000E-03 0.  1.
         11    1    4    4    0    0 -0.94450651022E-01  0.63569810565E-02 -0.19717220812E-01  0.96697293676E-01  0.51100000000E-03 0. -1.
</event>
<event>
 8    1  0.1030163E+005  0.1043930E+01  0.7957747E-01            NaN
         13   -1    0    0    0    0  0.00000000000E+00  0.00000000000E+00  0.74505805969E-08  0.10566000000E+00  0.10566000000E+00 0. -1.
     999900   -1    0    0    0    0 -0.00000000000E+00 -0.00000000000E+00 -0.74505805969E-08  0.93827000000E+00  0.93827000000E+00 0.  1.
     999902    2    1    2    0    0  0.21981927336E-01 -0.46123282053E-02  0.76648432635E-02  0.10201975639E+01  0.10199214876E+01 0.  0.
     999903    2    3    3    0    0  0.52382294166E-01  0.63004905846E-01 -0.99806356043E-01  0.13056486929E+00  0.19296462971E-01 0.  0.
         14    1    1    2    0    0 -0.21981927336E-01  0.46123282053E-02 -0.76648432635E-02  0.23732436097E-01  0.00000000000E+00 0.  1.
     999901    1    3    3    0    0 -0.30400366830E-01 -0.67617234052E-01  0.10747119931E+00  0.88963269461E+00  0.88000000000E+00 0. -1.
        -11    1    4    4    0    0  0.36992209010E-01  0.52838565208E-01 -0.86088735335E-01  0.10757262186E+00  0.51100000000E-03 0.  1.
         11    1    4    4    0    0  0.15390085156E-01  0.10166340638E-01 -0.13717620708E-01  0.22992247432E-01  0.51100000000E-03 0. -1.
</event>
<event>
 8    1  0.1030163E+005  0.1043930E+01  0.7957747E-01            NaN
         13   -1    0    0    0    0  0.00000000000E+00  0.00000000000E+00  0.74505805969E-08  0.10566000000E+00  0.10566000000E+00 0.  1.
     999900   -1    0    0    0    0 -0.00000000000E+00 -0.00000000000E+00 -0.74505805969E-08  0.93827000000E+00  0.93827000000E+00 0.  1.
     999902    2    1    2    0    0  0.19508624072E-01 -0.11751250161E-01 -0.46350056825E-02  0.10206886237E+01  0.10204239830E+01 0.  0.
     999903    2    3    3    0    0  0.10521355439E+00  0.76843979542E-01  0.12720726028E-01  0.13192787345E+00  0.16378574533E-01 0.  0.
         14    1    1    2    0    0 -0.19508624072E-01  0.11751250161E-01  0.46350056825E-02  0.23241376276E-01  0.00000000000E+00 0.  1.
     999901    1    3    3    0    0 -0.85704930313E-01 -0.88595229703E-01 -0.17355731711E-01  0.88876075028E+00  0.88000000000E+00 0. -1.
        -11    1    4    4    0    0  0.68460981848E-01  0.50300827806E-01  0.44073270397E-03  0.84956075002E-01  0.51100000000E-03 0.  1.
         11    1    4    4    0    0  0.36752572538E-01  0.26543151737E-01  0.12279993324E-01  0.46971798447E-01  0.51100000000E-03 0. -1.
</event>
<event>
 8    1  0.1030163E+005  0.1043930E+01  0.7957747E-01            NaN
         13   -1    0    0    0    0  0.00000000000E+00  0.00000000000E+00  0.74505805969E-08  0.10566000000E+00  0.10566000000E+00 0. -1.
     999900   -1    0    0    0    0 -0.00000000000E+00 -0.00000000000E+00 -0.74505805969E-08  0.93827000000E+00  0.93827000000E+00 0.  1.
     999902    2    1    2    0    0  0.23092556811E-01 -0.38679330927E-02 -0.38606100368E-02  0.10201996103E+01  0.10199235821E+01 0.  0.
     999903    2    3    3    0    0  0.43567654140E-01  0.49915894502E-01 -0.11202923551E+00  0.13171079141E+00  0.20185290524E-01 0.  0.
         14    1    1    2    0    0 -0.23092556811E-01  0.38679330927E-02  0.38606100368E-02  0.23730389722E-01  0.00000000000E+00 0. -1.
     999901    1    3    3    0    0 -0.20475097328E-01 -0.53783827595E-01  0.10816862547E+00  0.88848881887E+00  0.88000000000E+00 0. -1.
        -11    1    4    4    0    0  0.36521758201E-01  0.42728080038E-01 -0.10595745724E+00  0.11994486864E+00  0.51100000000E-03 0. -1.
         11    1    4    4    0    0  0.70458959390E-02  0.71878144637E-02 -0.60717782640E-02  0.11765922770E-01  0.51100000000E-03 0.  1.
</event>
<event>
 8    1  0.1030163E+005  0.1043930E+01  0.7957747E-01            NaN
         13   -1    0    0    0    0  0.00000000000E+00  0.00000000000E+00  0.74505805969E-08  0.10566000000E+00  0.10566000000E+00 0. -1.
     999900   -1    0    0    0    0 -0.00000000000E+00 -0.00000000000E+00 -0.74505805969E-08  0.93827000000E+00  0.93827000000E+00 0. -1.
     999902    2    1    2    0    0 -0.16684574900E-01  0.85471496881E-02  0.11382889991E-01  0.10219983108E+01  0.10217629609E+01 0.  0.
     999903    2    3    3    0    0 -0.66983893072E-01  0.56652671649E-01  0.10046339949E+00  0.13476694309E+00  0.19309768920E-01 0.  0.
         14    1    1    2    0    0  0.16684574900E-01 -0.85471496881E-02 -0.11382889991E-01  0.21931689218E-01  0.00000000000E+00 0.  1.
     999901    1    3    3    0    0  0.50299318172E-01 -0.48105521960E-01 -0.89080509498E-01  0.88723136770E+00  0.88000000000E+00 0. -1.
        -11    1    4    4    0    0 -0.51072040966E-01  0.49038515243E-01  0.70029498867E-01  0.99586752022E-01  0.51100000000E-03 0. -1.
         11    1    4    4    0    0 -0.15911852106E-01  0.76141564053E-02  0.30433900622E-01  0.35180191064E-01  0.51100000000E-03 0.  1.
</event>
<event>
 8    1  0.1030163E+005  0.1043930E+01  0.7957747E-01            NaN
         13   -1    0    0    0    0  0.00000000000E+00  0.00000000000E+00  0.74505805969E-08  0.10566000000E+00  0.10566000000E+00 0. -1.
     999900   -1    0    0    0    0 -0.00000000000E+00 -0.00000000000E+00 -0.74505805969E-08  0.93827000000E+00  0.93827000000E+00 0. -1.
     999902    2    1    2    0    0  0.63781583844E-02  0.21748292254E-01 -0.57287161081E-02  0.10205529320E+01  0.10202851561E+01 0.  0.
     999903    2    3    3    0    0 -0.10371218997E+00 -0.24245638640E-01  0.70463574562E-01  0.12923896282E+00  0.19837460249E-01 0.  0.
         14    1    1    2    0    0 -0.63781583844E-02 -0.21748292254E-01  0.57287161081E-02  0.23377068007E-01  0.00000000000E+00 0. -1.
     999901    1    3    3    0    0  0.11009034836E+00  0.45993930895E-01 -0.76192290670E-01  0.89131396917E+00  0.88000000000E+00 0. -1.
        -11    1    4    4    0    0 -0.54398507878E-01 -0.28362966236E-02  0.38271589884E-01  0.66574904815E-01  0.51100000000E-03 0.  1.
         11    1    4    4    0    0 -0.49313682096E-01 -0.21409342017E-01  0.32191984679E-01  0.62664058008E-01  0.51100000000E-03 0. -1.
</event>
<event>
 8    1  0.1030163E+005  0.1043930E+01  0.7957747E-01            NaN
         13   -1    0    0    0    0  0.00000000000E+00  0.00000000000E+00  0.74505805969E-08  0.10566000000E+00  0.10566000000E+00 0.  1.
     999900   -1    0    0    0    0 -0.00000000000E+00 -0.00000000000E+00 -0.74505805969E-08  0.93827000000E+00  0.93827000000E+00 0.  1.
     999902    2    1    2    0    0  0.13698320169E-01 -0.81417708123E-02  0.18491434783E-01  0.10195196422E+01  0.10192273717E+01 0.  0.
     999903    2    3    3    0    0 -0.10502987832E+00 -0.51952141411E-01 -0.47292221094E-01  0.12803592218E+00  0.20648071471E-01 0.  0.
         14    1    1    2    0    0 -0.13698320169E-01  0.81417708123E-02 -0.18491434783E-01  0.24410357796E-01  0.00000000000E+00 0. -1.
     999901    1    3    3    0    0  0.11872819849E+00  0.43810370599E-01  0.65783655876E-01  0.89148372002E+00  0.88000000000E+00 0. -1.
        -11    1    4    4    0    0 -0.80234225864E-01 -0.47633587674E-01 -0.32335766288E-01  0.98754000310E-01  0.51100000000E-03 0. -1.
         11    1    4    4    0    0 -0.24795652455E-01 -0.43185537372E-02 -0.14956454805E-01  0.29281921870E-01  0.51100000000E-03 0.  1.
</event>
<event>
 8    1  0.1030163E+005  0.1043930E+01  0.7957747E-01            NaN
         13   -1    0    0    0    0  0.00000000000E+00  0.00000000000E+00  0.74505805969E-08  0.10566000000E+00  0.10566000000E+00 0. -1.
     999900   -1    0    0    0    0 -0.00000000000E+00 -0.00000000000E+00 -0.74505805969E-08  0.93827000000E+00  0.93827000000E+00 0.  1.
     999902    2    1    2    0    0  0.11544387621E-01 -0.18638399694E-01 -0.73078792450E-02  0.10208200903E+01  0.10205584691E+01 0.  0.
     999903    2    3    3    0    0 -0.31845095239E-01 -0.52144678349E-01  0.11409360813E+00  0.13079557428E+00  0.18893206793E-01 0.  0.
         14    1    1    2    0    0 -0.11544387621E-01  0.18638399694E-01  0.73078792450E-02  0.23109909730E-01  0.00000000000E+00 0.  1.
     999901    1    3    3    0    0  0.43389482860E-01  0.33506278655E-01 -0.12140148738E+00  0.89002451599E+00  0.88000000000E+00 0.  1.
        -11    1    4    4    0    0 -0.24573531681E-01 -0.36723209547E-01  0.63176417670E-01  0.77097168880E-01  0.51100000000E-03 0.  1.
         11    1    4    4    0    0 -0.72715635573E-02 -0.15421468802E-01  0.50917190462E-01  0.53698405396E-01  0.51100000000E-03 0. -1.
</event>
<event>
 8    1  0.1030163E+005  0.1043930E+01  0.7957747E-01            NaN
         13   -1    0    0    0    0  0.00000000000E+00  0.00000000000E+00  0.74505805969E-08  0.10566000000E+00  0.10566000000E+00 0.  1.
     999900   -1    0    0    0    0 -0.00000000000E+00 -0.00000000000E+00 -0.74505805969E-08  0.93827000000E+00  0.93827000000E+00 0. -1.
     999902    2    1    2    0    0  0.19026246767E-01 -0.46921397853E-02  0.54727069104E-02  0.10235838760E+01  0.10233816426E+01 0.  0.
     999903    2    3    3    0    0  0.70000894055E-01  0.43315912874E-01  0.10522468176E+00  0.13518439136E+00  0.20644431156E-01 0.  0.
         14    1    1    2    0    0 -0.19026246767E-01  0.46921397853E-02 -0.54727069104E-02  0.20346124022E-01  0.00000000000E+00 0.  1.
     999901    1    3    3    0    0 -0.50974647288E-01 -0.48008052660E-01 -0.99751974854E-01  0.88839948462E+00  0.88000000000E+00 0. -1.
        -11    1    4    4    0    0  0.56767218078E-01  0.41306213717E-01  0.95947630766E-01  0.11889040883E+00  0.51100000000E-03 0.  1.
         11    1    4    4    0    0  0.13233675976E-01  0.20096991572E-02  0.92770509983E-02  0.16293982532E-01  0.51100000000E-03 0. -1.
</event>
<event>
 8    1  0.1030163E+005  0.1043930E+01  0.7957747E-01            NaN
         13   -1    0    0    0    0  0.00000000000E+00  0.00000000000E+00  0.74505805969E-08  0.10566000000E+00  0.10566000000E+00 0. -1.
     999900   -1    0    0    0    0 -0.00000000000E+00 -0.00000000000E+00 -0.74505805969E-08  0.93827000000E+00  0.93827000000E+00 0.  1.
     999902    2    1    2    0    0 -0.23775222756E-01 -0.30868459076E-02  0.53514623602E-02  0.10193652288E+01  0.10190692036E+01 0.  0.
     999903    2    3    3    0    0  0.12056746231E+00  0.20042409384E-01  0.28614032022E-01  0.12700267897E+00  0.19305607891E-01 0.  0.
         14    1    1    2    0    0  0.23775222756E-01  0.30868459076E-02 -0.53514623602E-02  0.24564771201E-01  0.00000000000E+00 0.  1.
     999901    1    3    3    0    0 -0.14434268507E+00 -0.23129255291E-01 -0.23262569662E-01  0.89236254982E+00  0.88000000000E+00 0. -1.
        -11    1    4    4    0    0  0.58382924782E-01  0.13863252970E-01  0.50716216214E-02  0.60222405763E-01  0.51100000000E-03 0. -1.
         11    1    4    4    0    0  0.62184537529E-01  0.61791564133E-02  0.23542410401E-01  0.66780273211E-01  0.51100000000E-03 0.  1.
</event>
<event>
 8    1  0.1030163E+005  0.1043930E+01  0.7957747E-01            NaN
         13   -1    0    0    0    0  0.00000000000E+00  0.00000000000E+00  0.74505805969E-08  0.10566000000E+00  0.10566000000E+00 0. -1.
     999900   -1    0    0    0    0 -0.00000000000E+00 -0.00000000000E+00 -0.74505805969E-08  0.93827000000E+00  0.93827000000E+00 0.  1.
     999902    2    1    2    0    0  0.10895523604E-01 -0.11761499422E-01  0.15520621705E-01  0.10216155428E+01  0.10213718139E+01 0.  0.
     999903    2    3    3    0    0  0.12654514417E-01  0.89130873556E-01  0.95036360038E-01  0.13228707836E+00  0.19065991073E-01 0.  0.
         14    1    1    2    0    0 -0.10895523604E-01  0.11761499422E-01 -0.15520621705E-01  0.22314457228E-01  0.00000000000E+00 0.  1.
     999901    1    3    3    0    0 -0.17589908136E-02 -0.10089237298E+00 -0.79515738332E-01  0.88932846441E+00  0.88000000000E+00 0.  1.
        -11    1    4    4    0    0  0.43203129829E-02  0.53476794184E-01  0.68761147347E-01  0.87216908486E-01  0.51100000000E-03 0. -1.
         11    1    4    4    0    0  0.83342014344E-02  0.35654079372E-01  0.26275212691E-01  0.45070169873E-01  0.51100000000E-03 0.  1.
</event>
<event>
 8    1  0.1030163E+005  0.1043930E+01  0.7957747E-01            NaN
         13   -1    0    0    0    0  0.00000000000E+00  0.00000000000E+00  0.74505805969E-08  0.10566000000E+00  0.10566000000E+00 0.  1.
     999900   -1    0    0    0    0 -0.00000000000E+00 -0.00000000000E+00 -0.74505805969E-08  0.93827000000E+00  0.93827000000E+00 0.  1.
     999902    2    1    2    0    0 -0.34365770919E-02 -0.13464466597E-01 -0.19928368753E-01  0.10196351075E+01  0.10193456286E+01 0.  0.
     999903    2    3    3    0    0 -0.36181924524E-01 -0.76665125017E-01 -0.10047147032E+00  0.13309476871E+00  0.20809326126E-01 0.  0.
         14    1    1    2    0    0  0.34365770919E-02  0.13464466597E-01  0.19928368753E-01  0.24294892549E-01  0.00000000000E+00 0.  1.
     999901    1    3    3    0    0  0.32745347432E-01  0.63200658420E-01  0.80543101567E-01  0.88654033874E+00  0.88000000000E+00 0. -1.
        -11    1    4    4    0    0 -0.20895982975E-01 -0.21692954224E-01 -0.37874951395E-01  0.48394208658E-01  0.51100000000E-03 0. -1.
         11    1    4    4    0    0 -0.15285941549E-01 -0.54972170793E-01 -0.62596518924E-01  0.84700560052E-01  0.51100000000E-03 0.  1.
</event>
<event>
 8    1  0.1030163E+005  0.1043930E+01  0.7957747E-01            NaN
         13   -1    0    0    0    0  0.00000000000E+00  0.00000000000E+00  0.74505805969E-08  0.10566000000E+00  0.10566000000E+00 0. -1.
     999900   -1    0    0    0    0 -0.00000000000E+00 -0.00000000000E+00 -0.74505805969E-08  0.93827000000E+00  0.93827000000E+00 0.  1.
     999902    2    1    2    0    0  0.17142259123E-01  0.10829335422E-01 -0.12302657844E-01  0.10202131928E+01  0.10199374843E+01 0.  0.
     999903    2    3    3    0    0  0.11149639613E+00  0.14704815454E-01 -0.69067264689E-01  0.13334232108E+00  0.19031804747E-01 0.  0.
         14    1    1    2    0    0 -0.17142259123E-01 -0.10829335422E-01  0.12302657844E-01  0.23716807195E-01  0.00000000000E+00 0. -1.
     999901    1    3    3    0    0 -0.94354137012E-01 -0.38754800325E-02  0.56764606845E-01  0.88687087172E+00  0.88000000000E+00 0. -1.
        -11    1    4    4    0    0  0.52078680058E-01  0.83218249243E-02 -0.43395892268E-01  0.68300119132E-01  0.51100000000E-03 0. -1.
         11    1    4    4    0    0  0.59417716076E-01  0.63829905298E-02 -0.25671372421E-01  0.65042201952E-01  0.51100000000E-03 0.  1.
</event>
<event>
 8    1  0.1030163E+005  0.1043930E+01  0.7957747E-01            NaN
         13   -1    0    0    0    0  0.00000000000E+00  0.00000000000E+00  0.74505805969E-08  0.10566000000E+00  0.10566000000E+00 0. -1.
     999900   -1    0    0    0    0 -0.00000000000E+00 -0.00000000000E+00 -0.74505805969E-08  0.93827000000E+00  0.93827000000E+00 0.  1.
     999902    2    1    2    0    0 -0.14922743008E-01 -0.31610670043E-02  0.19416042100E-01  0.10192386393E+01  0.10189395176E+01 0.  0.
     999903    2    3    3    0    0 -0.48160246245E-01  0.11329419638E+00 -0.32023192615E-01  0.12945633171E+00  0.24051459501E-01 0.  0.
         14    1    1    2    0    0  0.14922743008E-01  0.31610670043E-02 -0.19416042100E-01  0.24691360723E-01  0.00000000000E+00 0.  1.
     999901    1    3    3    0    0  0.33237503237E-01 -0.11645526338E+00  0.51439234716E-01  0.88978230757E+00  0.88000000000E+00 0. -1.
        -11    1    4    4    0    0 -0.26496040662E-01  0.88660459320E-01 -0.25760726698E-01  0.96055158001E-01  0.51100000000E-03 0. -1.
         11    1    4    4    0    0 -0.21664205583E-01  0.24633737056E-01 -0.62624659172E-02  0.33401173710E-01  0.51100000000E-03 0.  1.
</event>
<event>
 8    1  0.1030163E+005  0.1043930E+01  0.7957747E-01            NaN
         13   -1    0    0    0    0  0.00000000000E+00  0.00000000000E+00  0.74505805969E-08  0.10566000000E+00  0.10566000000E+00 0.  1.
     999900   -1    0    0    0    0 -0.00000000000E+00 -0.00000000000E+00 -0.74505805969E-08  0.93827000000E+00  0.93827000000E+00 0.  1.
     999902    2    1    2    0    0 -0.13349673166E-01 -0.85756191415E-02  0.17041295038E-01  0.10206456543E+01  0.10203800228E+01 0.  0.
     999903    2    3    3    0    0 -0.10398792031E-01 -0.50909363558E-01  0.12127856798E+00  0.13347810380E+00  0.20199380445E-01 0.  0.
         14    1    1    2    0    0  0.13349673166E-01  0.85756191415E-02 -0.17041295038E-01  0.23284345683E-01  0.00000000000E+00 0. -1.
     999901    1    3    3    0    0 -0.29508811352E-02  0.42333744416E-01 -0.10423727294E+00  0.88716755051E+00  0.88000000000E+00 0.  1.
        -11    1    4    4    0    0 -0.61755743892E-03 -0.31169702688E-01  0.89751320136E-01  0.95013116621E-01  0.51100000000E-03 0. -1.
         11    1    4    4    0    0 -0.97812345922E-02 -0.19739660869E-01  0.31527247842E-01  0.38464987182E-01  0.51100000000E-03 0.  1.
</event>
<event>
 8    1  0.1030163E+005  0.1043930E+01  0.7957747E-01            NaN
         13   -1    0    0    0    0  0.00000000000E+00  0.00000000000E+00  0.74505805969E-08  0.10566000000E+00  0.10566000000E+00 0.  1.
     999900   -1    0    0    0    0 -0.00000000000E+00 -0.00000000000E+00 -0.74505805969E-08  0.93827000000E+00  0.93827000000E+00 0. -1.
     999902    2    1    2    0    0  0.87246800355E-02  0.18196171704E-02 -0.21626376751E-01  0.10205391638E+01  0.10202710687E+01 0.  0.
     999903    2    3    3    0    0 -0.12568969348E+00  0.15382248697E-01 -0.22768787943E-01  0.13022883928E+00  0.20164827182E-01 0.  0.
         14    1    1    2    0    0 -0.87246800355E-02 -0.18196171704E-02  0.21626376751E-01  0.23390836234E-01  0.00000000000E+00 0.  1.
     999901    1    3    3    0    0  0.13441437351E+00 -0.13562631527E-01  0.11424111929E-02  0.89031032448E+00  0.88000000000E+00 0.  1.
        -11    1    4    4    0    0 -0.38516503227E-01  0.14138809242E-01 -0.79061158148E-02  0.41787494971E-01  0.51100000000E-03 0. -1.
         11    1    4    4    0    0 -0.87173190248E-01  0.12434394548E-02 -0.14862672129E-01  0.88441344311E-01  0.51100000000E-03 0.  1.
</event>
<event>
 8    1  0.1030163E+005  0.1043930E+01  0.7957747E-01            NaN
         13   -1    0    0    0    0  0.00000000000E+00  0.00000000000E+00  0.74505805969E-08  0.10566000000E+00  0.10566000000E+00 0.  1.
     999900   -1    0    0    0    0 -0.00000000000E+00 -0.00000000000E+00 -0.74505805969E-08  0.93827000000E+00  0.93827000000E+00 0.  1.
     999902    2    1    2    0    0 -0.14200536542E-01  0.95756464890E-02 -0.15474817166E-01  0.10208471447E+01  0.10205861427E+01 0.  0.
     999903    2    3    3    0    0 -0.90414402075E-01  0.86833541892E-01  0.39579182721E-01  0.13247319267E+00  0.16364808889E-01 0.  0.
         14    1    1    2    0    0  0.14200536542E-01 -0.95756464890E-02  0.15474817166E-01  0.23082855328E-01  0.00000000000E+00 0.  1.
     999901    1    3    3    0    0  0.76213865532E-01 -0.77257895403E-01 -0.55053999887E-01  0.88837395201E+00  0.88000000000E+00 0. -1.
        -11    1    4    4    0    0 -0.21430491464E-01  0.16604806176E-01  0.15081501293E-01  0.31027380727E-01  0.51100000000E-03 0.  1.
         11    1    4    4    0    0 -0.68983910611E-01  0.70228735716E-01  0.24497681428E-01  0.10144581194E+00  0.51100000000E-03 0. -1.
</event>
<event>
 8    1  0.1030163E+005  0.1043930E+01  0.7957747E-01            NaN
         13   -1    0    0    0    0  0.00000000000E+00  0.00000000000E+00  0.74505805969E-08  0.10566000000E+00  0.10566000000E+00 0.  1.
     999900   -1    0    0    0    0 -0.00000000000E+00 -0.00000000000E+00 -0.74505805969E-08  0.93827000000E+00  0.93827000000E+00 0.  1.
     999902    2    1    2    0    0 -0.19595891657E-01 -0.64411286883E-02  0.12323987851E-01  0.10199015214E+01  0.10196184313E+01 0.  0.
     999903    2    3    3    0    0  0.88642479490E-01 -0.69319199657E-02 -0.88140088477E-01  0.12759618322E+00  0.24628643706E-01 0.  0.
         14    1    1    2    0    0  0.19595891657E-01  0.64411286883E-02 -0.12323987851E-01  0.24028478628E-01  0.00000000000E+00 0. -1.
     999901    1    3    3    0    0 -0.10823837115E+00  0.49079127741E-03  0.10046407633E+00  0.89230533815E+00  0.88000000000E+00 0. -1.
        -11    1    4    4    0    0  0.27523865412E-01  0.88476441362E-02 -0.31865376794E-01  0.43029145159E-01  0.51100000000E-03 0. -1.
         11    1    4    4    0    0  0.61118614078E-01 -0.15779564102E-01 -0.56274711684E-01  0.84567038060E-01  0.51100000000E-03 0.  1.
</event>
<event>
 8    1  0.1030163E+005  0.1043930E+01  0.7957747E-01            NaN
         13   -1    0    0    0    0  0.00000000000E+00  0.00000000000E+00  0.74505805969E-08  0.10566000000E+00  0.10566000000E+00 0.  1.
     999900   -1    0    0    0    0 -0.00000000000E+00 -0.00000000000E+00 -0.74505805969E-08  0.93827000000E+00  0.93827000000E+00 0.  1.
     999902    2    1    2    0    0 -0.93612811423E-02  0.17956553714E-01  0.10538724423E-01  0.10211015940E+01  0.10208463789E+01 0.  0.
     999903    2    3    3    0    0 -0.49641066188E-01 -0.34569220811E-02  0.12180500005E+00  0.13292301847E+00  0.18864915521E-01 0.  0.
         14    1    1    2    0    0  0.93612811423E-02 -0.17956553714E-01 -0.10538724423E-01  0.22828405953E-01  0.00000000000E+00 0.  1.
     999901    1    3    3    0    0  0.40279785046E-01  0.21413475795E-01 -0.11126627563E+00  0.88817857558E+00  0.88000000000E+00 0.  1.
        -11    1    4    4    0    0 -0.28860775785E-01 -0.10246961061E-01  0.81538882925E-01  0.87102210876E-01  0.51100000000E-03 0. -1.
         11    1    4    4    0    0 -0.20780290403E-01  0.67900389799E-02  0.40266117128E-01  0.45820807589E-01  0.51100000000E-03 0.  1.
</event>
<event>
 8    1  0.1030163E+005  0.1043930E+01  0.7957747E-01            NaN
         13   -1    0    0    0    0  0.00000000000E+00  0.00000000000E+00  0.74505805969E-08  0.10566000000E+00  0.10566000000E+00 0. -1.
     999900   -1    0    0    0    0 -0.00000000000E+00 -0.00000000000E+00 -0.74505805969E-08  0.93827000000E+00  0.93827000000E+00 0.  1.
     999902    2    1    2    0    0  0.19728705660E-01 -0.12135969927E-01 -0.86632110023E-02  0.10192003656E+01  0.10189003044E+01 0.  0.
     999903    2    3    3    0    0  0.52589340008E-01  0.88987451113E-01 -0.76791661562E-01  0.13018560005E+00  0.19155313554E-01 0.  0.
         14    1    1    2    0    0 -0.19728705660E-01  0.12135969927E-01  0.86632110023E-02  0.24729634408E-01  0.00000000000E+00 0.  1.
     999901    1    3    3    0    0 -0.32860634348E-01 -0.10112342104E+00  0.68128450560E-01  0.88901476554E+00  0.88000000000E+00 0. -1.
        -11    1    4    4    0    0  0.37847165616E-01  0.76719589165E-01 -0.58194223575E-01  0.10346560822E+00  0.51100000000E-03 0. -1.
         11    1    4    4    0    0  0.14742174391E-01  0.12267861949E-01 -0.18597437987E-01  0.26719991827E-01  0.51100000000E-03 0.  1.
</event>
<event>
 8    1  0.1030163E+005  0.1043930E+01  0.7957747E-01            NaN
         13   -1    0    0    0    0  0.00000000000E+00  0.00000000000E+00  0.74505805969E-08  0.10566000000E+00  0.10566000000E+00 0. -1.
     999900   -1    0    0    0    0 -0.00000000000E+00 -0.00000000000E+00 -0.74505805969E-08  0.93827000000E+00  0.93827000000E+00 0. -1.
     999902    2    1    2    0    0  0.20686175502E-01 -0.47834673104E-02 -0.10621346932E-01  0.10201894771E+01  0.10199132104E+01 0.  0.
     999903    2    3    3    0    0 -0.44373132801E-01  0.98933351185E-01  0.65911069157E-01  0.12842319453E+00  0.19785473570E-01 0.  0.
         14    1    1    2    0    0 -0.20686175502E-01  0.47834673104E-02  0.10621346932E-01  0.23740522890E-01  0.00000000000E+00 0.  1.
     999901    1    3    3    0    0  0.65059308303E-01 -0.10371681850E+00 -0.76532416089E-01  0.89176628258E+00  0.88000000000E+00 0. -1.
        -11    1    4    4    0    0 -0.13583570307E-01  0.54086828761E-01  0.31444432965E-01  0.64022745279E-01  0.51100000000E-03 0. -1.
         11    1    4    4    0    0 -0.30789562494E-01  0.44846522425E-01  0.34466636192E-01  0.64400449250E-01  0.51100000000E-03 0.  1.
</event>
<event>
 8    1  0.1030163E+005  0.1043930E+01  0.7957747E-01            NaN
         13   -1    0    0    0    0  0.00000000000E+00  0.00000000000E+00  0.74505805969E-08  0.10566000000E+00  0.10566000000E+00 0.  1.
     999900   -1    0    0    0    0 -0.00000000000E+00 -0.00000000000E+00 -0.74505805969E-08  0.93827000000E+00  0.93827000000E+00 0.  1.
     999902    2    1    2    0    0  0.20815813289E-01  0.30122990578E-02 -0.11110736176E-01  0.10201430185E+01  0.10198656567E+01 0.  0.
     999903    2    3    3    0    0 -0.41552136890E-01  0.99038976343E-01  0.69002149095E-01  0.12911610630E+00  0.19348731488E-01 0.  0.
         14    1    1    2    0    0 -0.20815813289E-01 -0.30122990578E-02  0.11110736176E-01  0.23786981458E-01  0.00000000000E+00 0.  1.
     999901    1    3    3    0    0  0.62367950179E-01 -0.96026677285E-01 -0.80112885271E-01  0.89102691225E+00  0.88000000000E+00 0. -1.
        -11    1    4    4    0    0 -0.32365567245E-01  0.76431038743E-01  0.62364778287E-01  0.10382129029E+00  0.51100000000E-03 0.  1.
         11    1    4    4    0    0 -0.91865696450E-02  0.22607937600E-01  0.66373708080E-02  0.25294816003E-01  0.51100000000E-03 0. -1.
</event>
<event>
 8    1  0.1030163E+005  0.1043930E+01  0.7957747E-01            NaN
         13   -1    0    0    0    0  0.00000000000E+00  0.00000000000E+00  0.74505805969E-08  0.10566000000E+00  0.10566000000E+00 0. -1.
     999900   -1    0    0    0    0 -0.00000000000E+00 -0.00000000000E+00 -0.74505805969E-08  0.93827000000E+00  0.93827000000E+00 0. -1.
     999902    2    1    2    0    0 -0.17705640257E-01  0.90054739532E-05 -0.17152303969E-01  0.10192786043E+01  0.10189804620E+01 0.  0.
     999903    2    3    3    0    0 -0.84961736825E-01  0.63018798191E-01 -0.77025211169E-01  0.13244244046E+00  0.20451191369E-01 0.  0.
         14    1    1    2    0    0  0.17705640257E-01 -0.90054739532E-05  0.17152303969E-01  0.24651395690E-01  0.00000000000E+00 0.  1.
     999901    1    3    3    0    0  0.67256096568E-01 -0.63009792717E-01  0.59872907200E-01  0.88683616385E+00  0.88000000000E+00 0. -1.
        -11    1    4    4    0    0 -0.31442752778E-01  0.13064705649E-01 -0.30372340647E-01  0.45629742859E-01  0.51100000000E-03 0.  1.
         11    1    4    4    0    0 -0.53518984047E-01  0.49954092542E-01 -0.46652870522E-01  0.86812697597E-01  0.51100000000E-03 0. -1.
</event>
<event>
 8    1  0.1030163E+005  0.1043930E+01  0.7957747E-01            NaN
         13   -1    0    0    0    0  0.00000000000E+00  0.00000000000E+00  0.74505805969E-08  0.10566000000E+00  0.10566000000E+00 0.  1.
     999900   -1    0    0    0    0 -0.00000000000E+00 -0.00000000000E+00 -0.74505805969E-08  0.93827000000E+00  0.93827000000E+00 0.  1.
     999902    2    1    2    0    0  0.14769417045E-01  0.22905402526E-02  0.17256511095E-01  0.10211008645E+01  0.10208456328E+01 0.  0.
     999903    2    3    3    0    0  0.82184318022E-01  0.46216799270E-06  0.10397276060E+00  0.13426958329E+00  0.21534249927E-01 0.  0.
         14    1    1    2    0    0 -0.14769417045E-01 -0.22905402526E-02 -0.17256511095E-01  0.22829135543E-01  0.00000000000E+00 0. -1.
     999901    1    3    3    0    0 -0.67414900977E-01  0.22900780846E-02 -0.86716249509E-01  0.88683128117E+00  0.88000000000E+00 0.  1.
        -11    1    4    4    0    0  0.33262027536E-01 -0.17834718832E-02  0.59182579336E-01  0.67914520285E-01  0.51100000000E-03 0. -1.
         11    1    4    4    0    0  0.48922290486E-01  0.17839340512E-02  0.44790181267E-01  0.66355063002E-01  0.51100000000E-03 0.  1.
</event>
<event>
 8    1  0.1030163E+005  0.1043930E+01  0.7957747E-01            NaN
         13   -1    0    0    0    0  0.00000000000E+00  0.00000000000E+00  0.74505805969E-08  0.10566000000E+00  0.10566000000E+00 0.  1.
     999900   -1    0    0    0    0 -0.00000000000E+00 -0.00000000000E+00 -0.74505805969E-08  0.93827000000E+00  0.93827000000E+00 0.  1.
     999902    2    1    2    0    0  0.17842559179E-01 -0.59170661970E-02 -0.13679221657E-01  0.10206815657E+01  0.10204167624E+01 0.  0.
     999903    2    3    3    0    0 -0.10989409996E+00  0.54245294410E-02  0.63451554797E-01  0.12804813451E+00  0.16250729818E-01 0.  0.
         14    1    1    2    0    0 -0.17842559179E-01  0.59170661970E-02  0.13679221657E-01  0.23248434261E-01  0.00000000000E+00 0.  1.
     999901    1    3    3    0    0  0.12773665914E+00 -0.11341595638E-01 -0.77130776453E-01  0.89263343123E+00  0.88000000000E+00 0.  1.
        -11    1    4    4    0    0 -0.14240964842E-01 -0.10375185913E-02  0.14672408268E-01  0.20479800045E-01  0.51100000000E-03 0. -1.
         11    1    4    4    0    0 -0.95653135114E-01  0.64620480323E-02  0.48779146528E-01  0.10756833446E+00  0.51100000000E-03 0.  1.
</event>
<event>
 8    1  0.1030163E+005  0.1043930E+01  0.7957747E-01            NaN
         13   -1    0    0    0    0  0.00000000000E+00  0.00000000000E+00  0.74505805969E-08  0.10566000000E+00  0.10566000000E+00 0. -1.
     999900   -1    0    0    0    0 -0.00000000000E+00 -0.00000000000E+00 -0.74505805969E-08  0.93827000000E+00  0.93827000000E+00 0. -1.
     999902    2    1    2    0    0 -0.20333524735E-01  0.11178767781E-02  0.11992743768E-01  0.10202968077E+01  0.10200230625E+01 0.  0.
     999903    2    3    3    0    0  0.81215375043E-01 -0.95475155405E-01  0.21840994690E-01  0.12915182454E+00  0.22174812055E-01 0.  0.
         14    1    1    2    0    0  0.20333524735E-01 -0.11178767781E-02 -0.11992743768E-01  0.23633192330E-01  0.00000000000E+00 0.  1.
     999901    1    3    3    0    0 -0.10154889978E+00  0.96593032184E-01 -0.98482509217E-02  0.89114498313E+00  0.88000000000E+00 0. -1.
        -11    1    4    4    0    0  0.99538238288E-02 -0.28576807057E-02  0.28950983300E-02  0.10765113245E-01  0.51100000000E-03 0.  1.
         11    1    4    4    0    0  0.71261551214E-01 -0.92617474700E-01  0.18945896360E-01  0.11838671129E+00  0.51100000000E-03 0. -1.
</event>
<event>
 8    1  0.1030163E+005  0.1043930E+01  0.7957747E-01            NaN
         13   -1    0    0    0    0  0.00000000000E+00  0.00000000000E+00  0.74505805969E-08  0.10566000000E+00  0.10566000000E+00 0. -1.
     999900   -1    0    0    0    0 -0.00000000000E+00 -0.00000000000E+00 -0.74505805969E-08  0.93827000000E+00  0.93827000000E+00 0.  1.
     999902    2    1    2    0    0 -0.23021023038E-01  0.79398850033E-02  0.86185737301E-03  0.10195629716E+01  0.10192717503E+01 0.  0.
     999903    2    3    3    0    0 -0.25211735282E-01 -0.12533286099E+00 -0.39160283344E-02  0.12951283129E+00  0.20353882958E-01 0.  0.
         14    1    1    2    0    0  0.23021023038E-01 -0.79398850033E-02 -0.86185737301E-03  0.24367028413E-01  0.00000000000E+00 0.  1.
     999901    1    3    3    0    0  0.21907122446E-02  0.13327274599E+00  0.47778857074E-02  0.89005014029E+00  0.88000000000E+00 0. -1.
        -11    1    4    4    0    0 -0.83098715447E-02 -0.22419618761E-01 -0.77767559847E-02  0.25148207195E-01  0.51100000000E-03 0.  1.
         11    1    4    4    0    0 -0.16901863738E-01 -0.10291324223E+00  0.38607276503E-02  0.10436462410E+00  0.51100000000E-03 0. -1.
</event>
<event>
 8    1  0.1030163E+005  0.1043930E+01  0.7957747E-01            NaN
         13   -1    0    0    0    0  0.00000000000E+00  0.00000000000E+00  0.74505805969E-08  0.10566000000E+00  0.10566000000E+00 0.  1.
     999900   -1    0    0    0    0 -0.00000000000E+00 -0.00000000000E+00 -0.74505805969E-08  0.93827000000E+00  0.93827000000E+00 0.  1.
     999902    2    1    2    0    0  0.19018550178E-01 -0.16706743896E-02 -0.15971242750E-01  0.10190386963E+01  0.10187346502E+01 0.  0.
     999903    2    3    3    0    0 -0.53075536598E-01 -0.11131400097E+00 -0.31320011922E-01  0.12917645916E+00  0.22311321268E-01 0.  0.
         14    1    1    2    0    0 -0.19018550178E-01  0.16706743896E-02  0.15971242750E-01  0.24891303677E-01  0.00000000000E+00 0.  1.
     999901    1    3    3    0    0  0.72094086776E-01  0.10964332658E+00  0.15348769172E-01  0.88986223716E+00  0.88000000000E+00 0. -1.
        -11    1    4    4    0    0 -0.59048611930E-02 -0.84416398119E-02  0.32956290132E-02  0.10828248243E-01  0.51100000000E-03 0.  1.
         11    1    4    4    0    0 -0.47170675405E-01 -0.10287236116E+00 -0.34615640936E-01  0.11834821092E+00  0.51100000000E-03 0. -1.
</event>
<event>
 8    1  0.1030163E+005  0.1043930E+01  0.7957747E-01            NaN
         13   -1    0    0    0    0  0.00000000000E+00  0.00000000000E+00  0.74505805969E-08  0.10566000000E+00  0.10566000000E+00 0.  1.
     999900   -1    0    0    0    0 -0.00000000000E+00 -0.00000000000E+00 -0.74505805969E-08  0.93827000000E+00  0.93827000000E+00 0. -1.
     999902    2    1    2    0    0 -0.41609454516E-02 -0.12849910989E-01  0.18916456776E-01  0.10206863769E+01  0.10204216844E+01 0.  0.
     999903    2    3    3    0    0  0.95622485395E-02  0.77977336659E-03  0.13143581122E+00  0.13331120284E+00  0.20111183133E-01 0.  0.
         14    1    1    2    0    0  0.41609454516E-02  0.12849910989E-01 -0.18916456776E-01  0.23243623134E-01  0.00000000000E+00 0. -1.
     999901    1    3    3    0    0 -0.13723193991E-01 -0.13629684355E-01 -0.11251935445E+00  0.88737517402E+00  0.88000000000E+00 0. -1.
        -11    1    4    4    0    0  0.20553013809E-02  0.84900808350E-02  0.28496749026E-01  0.29809923892E-01  0.51100000000E-03 0.  1.
         11    1    4    4    0    0  0.75069471586E-02 -0.77103074684E-02  0.10293906220E+00  0.10350127895E+00  0.51100000000E-03 0. -1.
</event>
<event>
 8    1  0.1030163E+005  0.1043930E+01  0.7957747E-01            NaN
         13   -1    0    0    0    0  0.00000000000E+00  0.00000000000E+00  0.74505805969E-08  0.10566000000E+00  0.10566000000E+00 0.  1.
     999900   -1    0    0    0    0 -0.00000000000E+00 -0.00000000000E+00 -0.74505805969E-08  0.93827000000E+00  0.93827000000E+00 0. -1.
     999902    2    1    2    0    0  0.21079114146E-01 -0.68770035658E-02  0.11446265311E-01  0.10189772603E+01  0.10186716928E+01 0.  0.
     999903    2    3    3    0    0  0.24072825344E-01  0.18044524989E-01 -0.12324033794E+00  0.12837604423E+00  0.19675417012E-01 0.  0.
         14    1    1    2    0    0 -0.21079114146E-01  0.68770035658E-02 -0.11446265311E-01  0.24952739745E-01  0.00000000000E+00 0. -1.
     999901    1    3    3    0    0 -0.29937111984E-02 -0.24921528555E-01  0.13468660325E+00  0.89060121603E+00  0.88000000000E+00 0.  1.
        -11    1    4    4    0    0  0.64802832533E-02 -0.14982695957E-02 -0.52185911140E-01  0.52610543861E-01  0.51100000000E-03 0.  1.
         11    1    4    4    0    0  0.17592542091E-01  0.19542794584E-01 -0.71054426798E-01  0.75765500368E-01  0.51100000000E-03 0. -1.
</event>
<event>
 8    1  0.1030163E+005  0.1043930E+01  0.7957747E-01            NaN
         13   -1    0    0    0    0  0.00000000000E+00  0.00000000000E+00  0.74505805969E-08  0.10566000000E+00  0.10566000000E+00 0.  1.
     999900   -1    0    0    0    0 -0.00000000000E+00 -0.00000000000E+00 -0.74505805969E-08  0.93827000000E+00  0.93827000000E+00 0. -1.
     999902    2    1    2    0    0  0.13832336088E-01 -0.57279750647E-02  0.19968291225E-01  0.10189725187E+01  0.10186668336E+01 0.  0.
     999903    2    3    3    0    0  0.12086679773E+00  0.37201390859E-01  0.30578019835E-01  0.13138484819E+00  0.18282143259E-01 0.  0.
         14    1    1    2    0    0 -0.13832336088E-01  0.57279750647E-02 -0.19968291225E-01  0.24957481332E-01  0.00000000000E+00 0. -1.
     999901    1    3    3    0    0 -0.10703446164E+00 -0.42929365923E-01 -0.10609728611E-01  0.88758767047E+00  0.88000000000E+00 0. -1.
        -11    1    4    4    0    0  0.60495725203E-01  0.94539211936E-02  0.17269498628E-01  0.63620799253E-01  0.51100000000E-03 0.  1.
         11    1    4    4    0    0  0.60371072529E-01  0.27747469665E-01  0.13308521207E-01  0.67764048940E-01  0.51100000000E-03 0. -1.
</event>
<event>
 8    1  0.1030163E+005  0.1043930E+01  0.7957747E-01            NaN
         13   -1    0    0    0    0  0.00000000000E+00  0.00000000000E+00  0.74505805969E-08  0.10566000000E+00  0.10566000000E+00 0. -1.
     999900   -1    0    0    0    0 -0.00000000000E+00 -0.00000000000E+00 -0.74505805969E-08  0.93827000000E+00  0.93827000000E+00 0.  1.
     999902    2    1    2    0    0 -0.12223106782E-01 -0.19847767262E-01  0.38224091485E-02  0.10203090556E+01  0.10200355973E+01 0.  0.
     999903    2    3    3    0    0  0.35055671103E-01  0.12089708167E+00 -0.10158642677E-01  0.12776221356E+00  0.19364419970E-01 0.  0.
         14    1    1    2    0    0  0.12223106782E-01  0.19847767262E-01 -0.38224091485E-02  0.23620944443E-01  0.00000000000E+00 0.  1.
     999901    1    3    3    0    0 -0.47278777885E-01 -0.14074484893E+00  0.13981051825E-01  0.89254684199E+00  0.88000000000E+00 0.  1.
        -11    1    4    4    0    0  0.28147425657E-01  0.11408432033E+00 -0.10941792899E-01  0.11801480275E+00  0.51100000000E-03 0. -1.
         11    1    4    4    0    0  0.69082454457E-02  0.68127613411E-02  0.78315022278E-03  0.97474108100E-02  0.51100000000E-03 0.  1.
</event>
<event>
 8    1  0.1030163E+005  0.1043930E+01  0.7957747E-01            NaN
         13   -1    0    0    0    0  0.00000000000E+00  0.00000000000E+00  0.74505805969E-08  0.10566000000E+00  0.10566000000E+00 0.  1.
     999900   -1    0    0    0    0 -0.00000000000E+00 -0.00000000000E+00 -0.74505805969E-08  0.93827000000E+00  0.93827000000E+00 0. -1.
     999902    2    1    2    0    0  0.16295361786E-01  0.60396992517E-02  0.15900811448E-01  0.10203746909E+01  0.10201027680E+01 0.  0.
     999903    2    3    3    0    0  0.35573431348E-01  0.23065664745E-01 -0.12068318796E+00  0.12946688625E+00  0.19993720772E-01 0.  0.
         14    1    1    2    0    0 -0.16295361786E-01 -0.60396992517E-02 -0.15900811448E-01  0.23555309115E-01  0.00000000000E+00 0. -1.
     999901    1    3    3    0    0 -0.19278069562E-01 -0.17025965493E-01  0.13658399941E+00  0.89090780464E+00  0.88000000000E+00 0.  1.
        -11    1    4    4    0    0  0.59900894498E-02  0.12389730140E-01 -0.54137610195E-01  0.55861691195E-01  0.51100000000E-03 0. -1.
         11    1    4    4    0    0  0.29583341898E-01  0.10675934605E-01 -0.66545577767E-01  0.73605195054E-01  0.51100000000E-03 0.  1.
</event>
<event>
 8    1  0.1030163E+005  0.1043930E+01  0.7957747E-01            NaN
         13   -1    0    0    0    0  0.00000000000E+00  0.00000000000E+00  0.74505805969E-08  0.10566000000E+00  0.10566000000E+00 0. -1.
     999900   -1    0    0    0    0 -0.00000000000E+00 -0.00000000000E+00 -0.74505805969E-08  0.93827000000E+00  0.93827000000E+00 0.  1.
     999902    2    1    2    0    0  0.10695181364E-01 -0.76525162383E-02  0.19271766994E-01  0.10205987139E+01  0.10203319979E+01 0.  0.
     999903    2    3    3    0    0  0.72635584798E-01 -0.72822276956E-01 -0.77878557876E-01  0.13069877741E+00  0.20930562360E-01 0.  0.
         14    1    1    2    0    0 -0.10695181364E-01  0.76525162383E-02 -0.19271766994E-01  0.23331286125E-01  0.00000000000E+00 0. -1.
     999901    1    3    3    0    0 -0.61940403434E-01  0.65169760718E-01  0.97150324870E-01  0.88989993646E+00  0.88000000000E+00 0. -1.
        -11    1    4    4    0    0  0.62514291117E-01 -0.70433906147E-01 -0.66582755614E-01  0.11533644782E+00  0.51100000000E-03 0. -1.
         11    1    4    4    0    0  0.10121293681E-01 -0.23883708089E-02 -0.11295802262E-01  0.15362329597E-01  0.51100000000E-03 0.  1.
</event>
<event>
 8    1  0.1030163E+005  0.1043930E+01  0.7957747E-01            NaN
         13   -1    0    0    0    0  0.00000000000E+00  0.00000000000E+00  0.74505805969E-08  0.10566000000E+00  0.10566000000E+00 0.  1.
     999900   -1    0    0    0    0 -0.00000000000E+00 -0.00000000000E+00 -0.74505805969E-08  0.93827000000E+00  0.93827000000E+00 0. -1.
     999902    2    1    2    0    0  0.10721001129E-01  0.49886145489E-02 -0.18786417634E-01  0.10217319004E+01  0.10214907345E+01 0.  0.
     999903    2    3    3    0    0  0.74093871996E-02 -0.67932097362E-01 -0.11313985824E+00  0.13368293280E+00  0.20020742473E-01 0.  0.
         14    1    1    2    0    0 -0.10721001129E-01 -0.49886145489E-02  0.18786417634E-01  0.22198099645E-01  0.00000000000E+00 0.  1.
     999901    1    3    3    0    0  0.33116139291E-02  0.72920711911E-01  0.94353440610E-01  0.88804896755E+00  0.88000000000E+00 0. -1.
        -11    1    4    4    0    0  0.26829099010E-02 -0.16153847821E-01 -0.13250425065E-01  0.21070825574E-01  0.51100000000E-03 0.  1.
         11    1    4    4    0    0  0.47264772985E-02 -0.51778249541E-01 -0.99889433179E-01  0.11261210723E+00  0.51100000000E-03 0. -1.
</event>
<event>
 8    1  0.1030163E+005  0.1043930E+01  0.7957747E-01            NaN
         13   -1    0    0    0    0  0.00000000000E+00  0.00000000000E+00  0.74505805969E-08  0.10566000000E+00  0.10566000000E+00 0. -1.
     999900   -1    0    0    0    0 -0.00000000000E+00 -0.00000000000E+00 -0.74505805969E-08  0.93827000000E+00  0.93827000000E+00 0. -1.
     999902    2    1    2    0    0  0.13119496247E-01  0.53770654491E-02 -0.16059046806E-01  0.10225074185E+01  0.10222829813E+01 0.  0.
     999903    2    3    3    0    0  0.10488191837E+00 -0.74346601599E-01 -0.32706012932E-01  0.13399555774E+00  0.18907465232E-01 0.  0.
         14    1    1    2    0    0 -0.13119496247E-01 -0.53770654491E-02  0.16059046806E-01  0.21422581519E-01  0.00000000000E+00 0. -1.
     999901    1    3    3    0    0 -0.91762422120E-01  0.79723667049E-01  0.16646966126E-01  0.88851186074E+00  0.88000000000E+00 0.  1.
        -11    1    4    4    0    0  0.44187726080E-01 -0.20694524116E-01 -0.93273818338E-02  0.49679770907E-01  0.51100000000E-03 0.  1.
         11    1    4    4    0    0  0.60694192287E-01 -0.53652077483E-01 -0.23378631098E-01  0.84315786830E-01  0.51100000000E-03 0. -1.
</event>
<event>
 8    1  0.1030163E+005  0.1043930E+01  0.7957747E-01            NaN
         13   -1    0    0    0    0  0.00000000000E+00  0.00000000000E+00  0.74505805969E-08  0.10566000000E+00  0.10566000000E+00 0. -1.
     999900   -1    0    0    0    0 -0.00000000000E+00 -0.00000000000E+00 -0.74505805969E-08  0.93827000000E+00  0.93827000000E+00 0. -1.
     999902    2    1    2    0    0  0.15329033092E-01  0.14057798355E-01  0.11574112570E-01  0.10201274574E+01  0.10198497283E+01 0.  0.
     999903    2    3    3    0    0  0.12153606225E+00  0.25872872616E-01 -0.40541882590E-01  0.13213218383E+00  0.19361038025E-01 0.  0.
         14    1    1    2    0    0 -0.15329033092E-01 -0.14057798355E-01 -0.11574112570E-01  0.23802542551E-01  0.00000000000E+00 0.  1.
     999901    1    3    3    0    0 -0.10620702916E+00 -0.11815074261E-01  0.52115995160E-01  0.88799527362E+00  0.88000000000E+00 0.  1.
        -11    1    4    4    0    0  0.77307727853E-01  0.21551474525E-01 -0.17791101360E-01  0.82205445371E-01  0.51100000000E-03 0. -1.
         11    1    4    4    0    0  0.44228334400E-01  0.43213980912E-02 -0.22750781230E-01  0.49926738456E-01  0.51100000000E-03 0.  1.
</event>
<event>
 8    1  0.1030163E+005  0.1043930E+01  0.7957747E-01            NaN
         13   -1    0    0    0    0  0.00000000000E+00  0.00000000000E+00  0.74505805969E-08  0.10566000000E+00  0.10566000000E+00 0. -1.
     999900   -1    0    0    0    0 -0.00000000000E+00 -0.00000000000E+00 -0.74505805969E-08  0.93827000000E+00  0.93827000000E+00 0.  1.
     999902    2    1    2    0    0  0.67485741244E-02 -0.17539299207E-01 -0.15896659448E-01  0.10193154910E+01  0.10190182512E+01 0.  0.
     999903    2    3    3    0    0  0.68914166767E-02 -0.10035837133E+00  0.80119998269E-01  0.13022707156E+00  0.20508089252E-01 0.  0.
         14    1    1    2    0    0 -0.67485741244E-02  0.17539299207E-01  0.15896659448E-01  0.24614508952E-01  0.00000000000E+00 0. -1.
     999901    1    3    3    0    0 -0.14284255227E-03  0.82819072120E-01 -0.96016657717E-01  0.88908841949E+00  0.88000000000E+00 0.  1.
        -11    1    4    4    0    0  0.56517531432E-02 -0.53285477988E-01  0.55262436375E-01  0.76977155527E-01  0.51100000000E-03 0.  1.
         11    1    4    4    0    0  0.12396635335E-02 -0.47072893339E-01  0.24857561895E-01  0.53249916031E-01  0.51100000000E-03 0. -1.
</event>
<event>
 8    1  0.1030163E+005  0.1043930E+01  0.7957747E-01            NaN
         13   -1    0    0    0    0  0.00000000000E+00  0.00000000000E+00  0.74505805969E-08  0.10566000000E+00  0.10566000000E+00 0. -1.
     999900   -1    0    0    0    0 -0.00000000000E+00 -0.00000000000E+00 -0.74505805969E-08  0.93827000000E+00  0.93827000000E+00 0. -1.
     999902    2    1    2    0    0 -0.12582805218E-01  0.91068367483E-02  0.17016197998E-01  0.10208906325E+01  0.10206306242E+01 0.  0.
     999903    2    3    3    0    0 -0.51190564889E-01 -0.39206892075E-02 -0.11738291872E+00  0.12975461696E+00  0.20534489919E-01 0.  0.
         14    1    1    2    0    0  0.12582805218E-01 -0.91068367483E-02 -0.17016197998E-01  0.23039367549E-01  0.00000000000E+00 0.  1.
     999901    1    3    3    0    0  0.38607759671E-01  0.13027525956E-01  0.13439911672E+00  0.89113601550E+00  0.88000000000E+00 0.  1.
        -11    1    4    4    0    0 -0.31153740122E-01 -0.10884072636E-02 -0.92873343326E-01  0.97966622762E-01  0.51100000000E-03 0.  1.
         11    1    4    4    0    0 -0.20036824767E-01 -0.28322819440E-02 -0.24509575395E-01  0.31787994193E-01  0.51100000000E-03 0. -1.
</event>
<event>
 8    1  0.1030163E+005  0.1043930E+01  0.7957747E-01            NaN
         13   -1    0    0    0    0  0.00000000000E+00  0.00000000000E+00  0.74505805969E-08  0.10566000000E+00  0.10566000000E+00 0.  1.
     999900   -1    0    0    0    0 -0.00000000000E+00 -0.00000000000E+00 -0.74505805969E-08  0.93827000000E+00  0.93827000000E+00 0. -1.
     999902    2    1    2    0    0  0.17692701211E-01  0.12026901028E-01 -0.10808842639E-01  0.10199610805E+01  0.10196794087E+01 0.  0.
     999903    2    3    3    0    0 -0.26562760715E-01  0.82244424917E-01 -0.97732478071E-01  0.13179174697E+00  0.18646758742E-01 0.  0.
         14    1    1    2    0    0 -0.17692701211E-01 -0.12026901028E-01  0.10808842639E-01  0.23968919535E-01  0.00000000000E+00 0. -1.
     999901    1    3    3    0    0  0.44255461926E-01 -0.70217523889E-01  0.86923635432E-01  0.88816933350E+00  0.88000000000E+00 0.  1.
        -11    1    4    4    0    0 -0.14652850116E-01  0.59003520897E-01 -0.78819947984E-01  0.99543793458E-01  0.51100000000E-03 0.  1.
         11    1    4    4    0    0 -0.11909910599E-01  0.23240904020E-01 -0.18912530087E-01  0.32247953508E-01  0.51100000000E-03 0. -1.
</event>
<event>
 8    1  0.1030163E+005  0.1043930E+01  0.7957747E-01            NaN
         13   -1    0    0    0    0  0.00000000000E+00  0.00000000000E+00  0.74505805969E-08  0.10566000000E+00  0.10566000000E+00 0. -1.
     999900   -1    0    0    0    0 -0.00000000000E+00 -0.00000000000E+00 -0.74505805969E-08  0.93827000000E+00  0.93827000000E+00 0.  1.
     999902    2    1    2    0    0  0.20991806359E-01 -0.49470919900E-02 -0.90230508413E-02  0.10205516960E+01  0.10202838914E+01 0.  0.
     999903    2    3    3    0    0 -0.29176949866E-01  0.52049551652E-01 -0.11517638293E+00  0.13092590305E+00  0.17763520905E-01 0.  0.
         14    1    1    2    0    0 -0.20991806359E-01  0.49470919900E-02  0.90230508413E-02  0.23378304041E-01  0.00000000000E+00 0. -1.
     999901    1    3    3    0    0  0.50168756225E-01 -0.56996643642E-01  0.10615333209E+00  0.88962579290E+00  0.88000000000E+00 0. -1.
        -11    1    4    4    0    0 -0.17627502678E-01  0.41014137530E-01 -0.96619440727E-01  0.10643526566E+00  0.51100000000E-03 0.  1.
         11    1    4    4    0    0 -0.11549447188E-01  0.11035414122E-01 -0.18556942204E-01  0.24490637398E-01  0.51100000000E-03 0. -1.
</event>
<event>
 8    1  0.1030163E+005  0.1043930E+01  0.7957747E-01            NaN
         13   -1    0    0    0    0  0.00000000000E+00  0.00000000000E+00  0.74505805969E-08  0.10566000000E+00  0.10566000000E+00 0.  1.
     999900   -1    0    0    0    0 -0.00000000000E+00 -0.00000000000E+00 -0.74505805969E-08  0.93827000000E+00  0.93827000000E+00 0. -1.
     999902    2    1    2    0    0  0.90573400921E-03  0.30526018295E-02  0.23442080804E-01  0.10202726569E+01  0.10199983453E+01 0.  0.
     999903    2    3    3    0    0  0.11603305464E+00 -0.52907432266E-01 -0.13729580352E-01  0.13023470387E+00  0.22576770280E-01 0.  0.
         14    1    1    2    0    0 -0.90573400921E-03 -0.30526018295E-02 -0.23442080804E-01  0.23657343140E-01  0.00000000000E+00 0. -1.
     999901    1    3    3    0    0 -0.11512732063E+00  0.55960034095E-01  0.37171661156E-01  0.89003795299E+00  0.88000000000E+00 0. -1.
        -11    1    4    4    0    0  0.72264382630E-01 -0.21218392289E-01 -0.48625955281E-02  0.75473618732E-01  0.51100000000E-03 0.  1.
         11    1    4    4    0    0  0.43768672013E-01 -0.31689039977E-01 -0.88669848239E-02  0.54761085137E-01  0.51100000000E-03 0. -1.
</event>
<event>
 8    1  0.1030163E+005  0.1043930E+01  0.7957747E-01            NaN
         13   -1    0    0    0    0  0.00000000000E+00  0.00000000000E+00  0.74505805969E-08  0.10566000000E+00  0.10566000000E+00 0. -1.
     999900   -1    0    0    0    0 -0.00000000000E+00 -0.00000000000E+00 -0.74505805969E-08  0.93827000000E+00  0.93827000000E+00 0. -1.
     999902    2    1    2    0    0 -0.81236160488E-02 -0.17720495128E-01 -0.12413018451E-01  0.10208195670E+01  0.10205579338E+01 0.  0.
     999903    2    3    3    0    0  0.13924868720E-01 -0.73163972529E-01 -0.10902893798E+00  0.13352325193E+00  0.19856501297E-01 0.  0.
         14    1    1    2    0    0  0.81236160488E-02  0.17720495128E-01  0.12413018451E-01  0.23110432976E-01  0.00000000000E+00 0. -1.
     999901    1    3    3    0    0 -0.22048484769E-01  0.55443477401E-01  0.96615919533E-01  0.88729631509E+00  0.88000000000E+00 0.  1.
        -11    1    4    4    0    0  0.21155746398E-02 -0.42174379808E-01 -0.74555130768E-01  0.85684786358E-01  0.51100000000E-03 0. -1.
         11    1    4    4    0    0  0.11809294080E-01 -0.30989592720E-01 -0.34473807216E-01  0.47838465575E-01  0.51100000000E-03 0.  1.
</event>
<event>
 8    1  0.1030163E+005  0.1043930E+01  0.7957747E-01            NaN
         13   -1    0    0    0    0  0.00000000000E+00  0.00000000000E+00  0.74505805969E-08  0.10566000000E+00  0.10566000000E+00 0. -1.
     999900   -1    0    0    0    0 -0.00000000000E+00 -0.00000000000E+00 -0.74505805969E-08  0.93827000000E+00  0.93827000000E+00 0. -1.
     999902    2    1    2    0    0 -0.15780173747E-02  0.10371393448E-01 -0.22305164068E-01  0.10192809374E+01  0.10189828522E+01 0.  0.
     999903    2    3    3    0    0 -0.16034410311E-01  0.12626779668E+00 -0.26839810583E-01  0.13155264196E+00  0.19623031912E-01 0.  0.
         14    1    1    2    0    0  0.15780173747E-02 -0.10371393448E-01  0.22305164068E-01  0.24649062558E-01  0.00000000000E+00 0.  1.
     999901    1    3    3    0    0  0.14456392936E-01 -0.11589640323E+00  0.45346465149E-02  0.88772829548E+00  0.88000000000E+00 0. -1.
        -11    1    4    4    0    0  0.35068875966E-02  0.42201975796E-01 -0.11582204143E-01  0.43905735338E-01  0.51100000000E-03 0.  1.
         11    1    4    4    0    0 -0.19541297908E-01  0.84065820886E-01 -0.15257606440E-01  0.87646906622E-01  0.51100000000E-03 0. -1.
</event>
<event>
 8    1  0.1030163E+005  0.1043930E+01  0.7957747E-01            NaN
         13   -1    0    0    0    0  0.00000000000E+00  0.00000000000E+00  0.74505805969E-08  0.10566000000E+00  0.10566000000E+00 0.  1.
     999900   -1    0    0    0    0 -0.00000000000E+00 -0.00000000000E+00 -0.74505805969E-08  0.93827000000E+00  0.93827000000E+00 0.  1.
     999902    2    1    2    0    0  0.86164710761E-02  0.11499884494E-01 -0.14862943332E-01  0.10232563936E+01  0.10230475302E+01 0.  0.
     999903    2    3    3    0    0 -0.85359210068E-01  0.89052776871E-01 -0.48327481036E-01  0.13423122239E+00  0.21584342204E-01 0.  0.
         14    1    1    2    0    0 -0.86164710761E-02 -0.11499884494E-01  0.14862943332E-01  0.20673606402E-01  0.00000000000E+00 0.  1.
     999901    1    3    3    0    0  0.93975681144E-01 -0.77552892377E-01  0.33464537704E-01  0.88902517121E+00  0.88000000000E+00 0.  1.
        -11    1    4    4    0    0 -0.28014415179E-01  0.44543739936E-01 -0.19341864966E-01  0.56065328740E-01  0.51100000000E-03 0. -1.
         11    1    4    4    0    0 -0.57344794889E-01  0.44509036934E-01 -0.28985616070E-01  0.78165893647E-01  0.51100000000E-03 0.  1.
</event>
<event>
 8    1  0.1030163E+005  0.1043930E+01  0.7957747E-01            NaN
         13   -1    0    0    0    0  0.00000000000E+00  0.00000000000E+00  0.74505805969E-08  0.10566000000E+00  0.10566000000E+00 0. -1.
     999900   -1    0    0    0    0 -0.00000000000E+00 -0.00000000000E+00 -0.74505805969E-08  0.93827000000E+00  0.93827000000E+00 0. -1.
     999902    2    1    2    0    0  0.43805313475E-02  0.16535522477E-01 -0.12004716182E-01  0.10230320152E+01  0.10228185461E+01 0.  0.
     999903    2    3    3    0    0  0.71393402730E-01 -0.37337049366E-01  0.10192405432E+00  0.13153173831E+00  0.20518580003E-01 0.  0.
         14    1    1    2    0    0 -0.43805313475E-02 -0.16535522477E-01  0.12004716182E-01  0.20897984809E-01  0.00000000000E+00 0.  1.
     999901    1    3    3    0    0 -0.67012871382E-01  0.53872571844E-01 -0.11392877050E+00  0.89150027688E+00  0.88000000000E+00 0. -1.
        -11    1    4    4    0    0  0.33506925260E-01 -0.10260586057E-01  0.56434306168E-01  0.66431059756E-01  0.51100000000E-03 0.  1.
         11    1    4    4    0    0  0.37886477470E-01 -0.27076463310E-01  0.45489748152E-01  0.65100678556E-01  0.51100000000E-03 0. -1.
</event>
<event>
 8    1  0.1030163E+005  0.1043930E+01  0.7957747E-01            NaN
         13   -1    0    0    0    0  0.00000000000E+00  0.00000000000E+00  0.74505805969E-08  0.10566000000E+00  0.10566000000E+00 0.  1.
     999900   -1    0    0    0    0 -0.00000000000E+00 -0.00000000000E+00 -0.74505805969E-08  0.93827000000E+00  0.93827000000E+00 0. -1.
     999902    2    1    2    0    0 -0.16791689387E-01  0.15739931899E-01 -0.26929353565E-02  0.10207576417E+01  0.10204945884E+01 0.  0.
     999903    2    3    3    0    0  0.17718272137E-01 -0.12581688058E+00 -0.48541021483E-02  0.12877449205E+00  0.20383397417E-01 0.  0.
         14    1    1    2    0    0  0.16791689387E-01 -0.15739931899E-01  0.26929353565E-02  0.23172358306E-01  0.00000000000E+00 0.  1.
     999901    1    3    3    0    0 -0.34509961524E-01  0.14155681247E+00  0.21611667918E-02  0.89198314964E+00  0.88000000000E+00 0. -1.
        -11    1    4    4    0    0  0.34887324916E-03 -0.56205126839E-01 -0.89182304598E-02  0.56911632827E-01  0.51100000000E-03 0. -1.
         11    1    4    4    0    0  0.17369398888E-01 -0.69611753737E-01  0.40641283115E-02  0.71862859226E-01  0.51100000000E-03 0.  1.
</event>
<event>
 8    1  0.1030163E+005  0.1043930E+01  0.7957747E-01            NaN
         13   -1    0    0    0    0  0.00000000000E+00  0.00000000000E+00  0.74505805969E-08  0.10566000000E+00  0.10566000000E+00 0.  1.
     999900   -1    0    0    0    0 -0.00000000000E+00 -0.00000000000E+00 -0.74505805969E-08  0.93827000000E+00  0.93827000000E+00 0.  1.
     999902    2    1    2    0    0  0.76621781002E-03 -0.10261666141E-01  0.29784700033E-01  0.10124178240E+01  0.10119272865E+01 0.  0.
     999903    2    3    3    0    0  0.27437574736E-01  0.11733546112E+00 -0.23870626833E-02  0.12223390451E+00  0.20371509476E-01 0.  0.
         14    1    1    2    0    0 -0.76621781002E-03  0.10261666141E-01 -0.29784700033E-01  0.31512176024E-01  0.00000000000E+00 0.  1.
     999901    1    3    3    0    0 -0.26671356926E-01 -0.12759712726E+00  0.32171762716E-01  0.89018391947E+00  0.88000000000E+00 0.  1.
        -11    1    4    4    0    0  0.17199286692E-01  0.88925888563E-01 -0.98894001156E-02  0.91113613006E-01  0.51100000000E-03 0. -1.
         11    1    4    4    0    0  0.10238288044E-01  0.28409572560E-01  0.75023374323E-02  0.31120291500E-01  0.51100000000E-03 0.  1.
</event>
<event>
 8    1  0.1030163E+005  0.1043930E+01  0.7957747E-01            NaN
         13   -1    0    0    0    0  0.00000000000E+00  0.00000000000E+00  0.74505805969E-08  0.10566000000E+00  0.10566000000E+00 0. -1.
     999900   -1    0    0    0    0 -0.00000000000E+00 -0.00000000000E+00 -0.74505805969E-08  0.93827000000E+00  0.93827000000E+00 0.  1.
     999902    2    1    2    0    0 -0.68053450734E-02 -0.21740840784E-01 -0.29258519816E-02  0.10209618157E+01  0.10207034298E+01 0.  0.
     999903    2    3    3    0    0 -0.55485979806E-01  0.11563605034E+00 -0.31283689355E-02  0.12897400446E+00  0.13195341657E-01 0.  0.
         14    1    1    2    0    0  0.68053450734E-02  0.21740840784E-01  0.29258519816E-02  0.22968184286E-01  0.00000000000E+00 0.  1.
     999901    1    3    3    0    0  0.48680634733E-01 -0.13737689112E+00  0.20251695391E-03  0.89198781125E+00  0.88000000000E+00 0. -1.
        -11    1    4    4    0    0 -0.23317675381E-01  0.47900797107E-01 -0.77804715665E-02  0.53842336571E-01  0.51100000000E-03 0. -1.
         11    1    4    4    0    0 -0.32168304425E-01  0.67735253231E-01  0.46521026311E-02  0.75131667889E-01  0.51100000000E-03 0.  1.
</event>
<event>
 8    1  0.1030163E+005  0.1043930E+01  0.7957747E-01            NaN
         13   -1    0    0    0    0  0.00000000000E+00  0.00000000000E+00  0.74505805969E-08  0.10566000000E+00  0.10566000000E+00 0.  1.
     999900   -1    0    0    0    0 -0.00000000000E+00 -0.00000000000E+00 -0.74505805969E-08  0.93827000000E+00  0.93827000000E+00 0. -1.
     999902    2    1    2    0    0 -0.19678722653E-01 -0.13790845092E-01 -0.59474249570E-02  0.10191749723E+01  0.10188742870E+01 0.  0.
     999903    2    3    3    0    0  0.12146768475E+00  0.28152452610E-01 -0.13838531248E-01  0.12690605648E+00  0.19148973851E-01 0.  0.
         14    1    1    2    0    0  0.19678722653E-01  0.13790845092E-01  0.59474249570E-02  0.24755027716E-01  0.00000000000E+00 0.  1.
     999901    1    3    3    0    0 -0.14114640740E+00 -0.41943297702E-01  0.78911062912E-02  0.89226891580E+00  0.88000000000E+00 0. -1.
        -11    1    4    4    0    0  0.31062350652E-01  0.42826859198E-02 -0.11404162667E-01  0.33369553097E-01  0.51100000000E-03 0.  1.
         11    1    4    4    0    0  0.90405334095E-01  0.23869766690E-01 -0.24343685813E-02  0.93536503388E-01  0.51100000000E-03 0. -1.
</event>
<event>
 8    1  0.1038307E+005  0.1043930E+01  0.7957747E-01            NaN
         13   -1    0    0    0    0  0.00000000000E+00  0.00000000000E+00  0.74505805969E-08  0.10566000000E+00  0.10566000000E+00 0.  1.
     999900   -1    0    0    0    0 -0.00000000000E+00 -0.00000000000E+00 -0.74505805969E-08  0.93827000000E+00  0.93827000000E+00 0.  1.
     999902    2    1    2    0    0  0.23236549609E-01 -0.24297647300E-02  0.42353687663E-02  0.10201859619E+01  0.10199096125E+01 0.  0.
     999903    2    3    3    0    0  0.53564990244E-01 -0.21622563092E-03 -0.11842003466E+00  0.13115893083E+00  0.17609815272E-01 0.  0.
         14    1    1    2    0    0 -0.23236549609E-01  0.24297647300E-02 -0.42353687663E-02  0.23744038051E-01  0.00000000000E+00 0. -1.
     999901    1    3    3    0    0 -0.30328440634E-01 -0.22135390991E-02  0.12265540343E+00  0.88902703112E+00  0.88000000000E+00 0. -1.
        -11    1    4    4    0    0  0.49040743906E-01 -0.31147269950E-02 -0.93140031940E-01  0.10530917699E+00  0.51100000000E-03 0.  1.
         11    1    4    4    0    0  0.45242463375E-02  0.28985013641E-02 -0.25280002724E-01  0.25849753844E-01  0.51100000000E-03 0. -1.
</event>
<event>
 8    1  0.1030163E+005  0.1043930E+01  0.7957747E-01            NaN
         13   -1    0    0    0    0  0.00000000000E+00  0.00000000000E+00  0.74505805969E-08  0.10566000000E+00  0.10566000000E+00 0.  1.
     999900   -1    0    0    0    0 -0.00000000000E+00 -0.00000000000E+00 -0.74505805969E-08  0.93827000000E+00  0.93827000000E+00 0.  1.
     999902    2    1    2    0    0  0.14991371565E-01  0.53546150426E-02  0.17338319277E-01  0.10203921488E+01  0.10201206335E+01 0.  0.
     999903    2    3    3    0    0  0.10486079666E+00 -0.48296022557E-01  0.62861169426E-01  0.13302118107E+00  0.20367020430E-01 0.  0.
         14    1    1    2    0    0 -0.14991371565E-01 -0.53546150426E-02 -0.17338319277E-01  0.23537851197E-01  0.00000000000E+00 0. -1.
     999901    1    3    3    0    0 -0.89869425097E-01  0.53650637600E-01 -0.45522850149E-01  0.88737096773E+00  0.88000000000E+00 0.  1.
        -11    1    4    4    0    0  0.70811305999E-01 -0.42660671664E-01  0.45995646667E-01  0.94604622495E-01  0.51100000000E-03 0. -1.
         11    1    4    4    0    0  0.34049490663E-01 -0.56353508937E-02  0.16865522759E-01  0.38416558579E-01  0.51100000000E-03 0.  1.
</event>
<event>
 8    1  0.1030163E+005  0.1043930E+01  0.7957747E-01            NaN
         13   -1    0    0    0    0  0.00000000000E+00  0.00000000000E+00  0.74505805969E-08  0.10566000000E+00  0.10566000000E+00 0.  1.
     999900   -1    0    0    0    0 -0.00000000000E+00 -0.00000000000E+00 -0.74505805969E-08  0.93827000000E+00  0.93827000000E+00 0. -1.
     999902    2    1    2    0    0 -0.22666642220E-01  0.26405365405E-02  0.66986919673E-02  0.10201472000E+01  0.10198699368E+01 0.  0.
     999903    2    3    3    0    0 -0.44941985283E-01 -0.88755840370E-01 -0.82116550020E-01  0.13068801832E+00  0.20948725632E-01 0.  0.
         14    1    1    2    0    0  0.22666642220E-01 -0.26405365405E-02 -0.66986919673E-02  0.23782800020E-01  0.00000000000E+00 0.  1.
     999901    1    3    3    0    0  0.22275343064E-01  0.91396376910E-01  0.88815241987E-01  0.88945918165E+00  0.88000000000E+00 0.  1.
        -11    1    4    4    0    0 -0.33916585422E-01 -0.81889014394E-01 -0.70501340565E-01  0.11325566470E+00  0.51100000000E-03 0. -1.
         11    1    4    4    0    0 -0.11025399861E-01 -0.68668259753E-02 -0.11615209455E-01  0.17432353620E-01  0.51100000000E-03 0.  1.
</event>
<event>
 8    1  0.1030163E+005  0.1043930E+01  0.7957747E-01            NaN
         13   -1    0    0    0    0  0.00000000000E+00  0.00000000000E+00  0.74505805969E-08  0.10566000000E+00  0.10566000000E+00 0.  1.
     999900   -1    0    0    0    0 -0.00000000000E+00 -0.00000000000E+00 -0.74505805969E-08  0.93827000000E+00  0.93827000000E+00 0.  1.
     999902    2    1    2    0    0 -0.40716390005E-02 -0.74651248289E-02 -0.22805224854E-01  0.10195910474E+01  0.10193005049E+01 0.  0.
     999903    2    3    3    0    0 -0.74715824294E-02  0.96109668774E-02  0.12466991658E+00  0.12714941353E+00  0.21821778878E-01 0.  0.
         14    1    1    2    0    0  0.40716390005E-02  0.74651248289E-02  0.22805224854E-01  0.24338952597E-01  0.00000000000E+00 0.  1.
     999901    1    3    3    0    0  0.33999434289E-02 -0.17076091706E-01 -0.14747514143E+00  0.89244163387E+00  0.88000000000E+00 0.  1.
        -11    1    4    4    0    0  0.16017281712E-03  0.13837378850E-01  0.47236853774E-01  0.49224792374E-01  0.51100000000E-03 0. -1.
         11    1    4    4    0    0 -0.76317552465E-02 -0.42264119725E-02  0.77433062807E-01  0.77924621160E-01  0.51100000000E-03 0.  1.
</event>
<event>
 8    1  0.1030163E+005  0.1043930E+01  0.7957747E-01            NaN
         13   -1    0    0    0    0  0.00000000000E+00  0.00000000000E+00  0.74505805969E-08  0.10566000000E+00  0.10566000000E+00 0.  1.
     999900   -1    0    0    0    0 -0.00000000000E+00 -0.00000000000E+00 -0.74505805969E-08  0.93827000000E+00  0.93827000000E+00 0. -1.
     999902    2    1    2    0    0  0.57459092994E-03 -0.82000258542E-02  0.21837606824E-01  0.10205965123E+01  0.10203297453E+01 0.  0.
     999903    2    3    3    0    0 -0.36267251016E-01  0.28670570416E-01  0.12335010986E+00  0.13322874720E+00  0.19933247919E-01 0.  0.
         14    1    1    2    0    0 -0.57459092994E-03  0.82000258542E-02 -0.21837606824E-01  0.23333487749E-01  0.00000000000E+00 0. -1.
     999901    1    3    3    0    0  0.36841841946E-01 -0.36870596270E-01 -0.10151250304E+00  0.88736776506E+00  0.88000000000E+00 0. -1.
        -11    1    4    4    0    0 -0.14691861607E-01  0.17047944325E-01  0.35606675625E-01  0.42125760210E-01  0.51100000000E-03 0.  1.
         11    1    4    4    0    0 -0.21575389410E-01  0.11622626091E-01  0.87743434235E-01  0.91102986986E-01  0.51100000000E-03 0. -1.
</event>
<event>
 8    1  0.1030163E+005  0.1043930E+01  0.7957747E-01            NaN
         13   -1    0    0    0    0  0.00000000000E+00  0.00000000000E+00  0.74505805969E-08  0.10566000000E+00  0.10566000000E+00 0.  1.
     999900   -1    0    0    0    0 -0.00000000000E+00 -0.00000000000E+00 -0.74505805969E-08  0.93827000000E+00  0.93827000000E+00 0.  1.
     999902    2    1    2    0    0  0.17369152852E-01 -0.11716711270E-01 -0.87631228747E-02  0.10212196254E+01  0.10209670720E+01 0.  0.
     999903    2    3    3    0    0  0.75460938212E-01  0.69084981252E-01 -0.81859992979E-01  0.13259894056E+00  0.20355165338E-01 0.  0.
         14    1    1    2    0    0 -0.17369152852E-01  0.11716711270E-01  0.87631228747E-02  0.22710374640E-01  0.00000000000E+00 0.  1.
     999901    1    3    3    0    0 -0.58091785360E-01 -0.80801692522E-01  0.73096870104E-01  0.88862068480E+00  0.88000000000E+00 0. -1.
        -11    1    4    4    0    0  0.46234558881E-01  0.38144576873E-01 -0.35509337650E-01  0.69669343050E-01  0.51100000000E-03 0.  1.
         11    1    4    4    0    0  0.29226379331E-01  0.30940404379E-01 -0.46350655329E-01  0.62929597507E-01  0.51100000000E-03 0. -1.
</event>
<event>
 8    1  0.1030163E+005  0.1043930E+01  0.7957747E-01            NaN
         13   -1    0    0    0    0  0.00000000000E+00  0.00000000000E+00  0.74505805969E-08  0.10566000000E+00  0.10566000000E+00 0. -1.
     999900   -1    0    0    0    0 -0.00000000000E+00 -0.00000000000E+00 -0.74505805969E-08  0.93827000000E+00  0.93827000000E+00 0. -1.
     999902    2    1    2    0    0 -0.56108061522E-02 -0.21926463267E-01  0.62959427591E-02  0.10204376644E+01  0.10201672104E+01 0.  0.
     999903    2    3    3    0    0  0.45969094940E-01 -0.32916299578E-01  0.11739553410E+00  0.13188581903E+00  0.20384243117E-01 0.  0.
         14    1    1    2    0    0  0.56108061522E-02  0.21926463267E-01 -0.62959427591E-02  0.23492335608E-01  0.00000000000E+00 0.  1.
     999901    1    3    3    0    0 -0.51579901092E-01  0.10989836311E-01 -0.11109959134E+00  0.88855184536E+00  0.88000000000E+00 0. -1.
        -11    1    4    4    0    0  0.28974570798E-01 -0.17403702027E-01  0.47513770244E-01  0.58311526142E-01  0.51100000000E-03 0.  1.
         11    1    4    4    0    0  0.16994524142E-01 -0.15512597550E-01  0.69881763856E-01  0.73574292889E-01  0.51100000000E-03 0. -1.
</event>
<event>
 8    1  0.1030163E+005  0.1043930E+01  0.7957747E-01            NaN
         13   -1    0    0    0    0  0.00000000000E+00  0.00000000000E+00  0.74505805969E-08  0.10566000000E+00  0.10566000000E+00 0. -1.
     999900   -1    0    0    0    0 -0.00000000000E+00 -0.00000000000E+00 -0.74505805969E-08  0.93827000000E+00  0.93827000000E+00 0.  1.
     999902    2    1    2    0    0 -0.14367197640E-01 -0.17830985391E-01  0.57249869505E-02  0.10203262739E+01  0.10200532189E+01 0.  0.
     999903    2    3    3    0    0  0.60554917352E-01  0.92844445596E-01 -0.60593481677E-01  0.12776786487E+00  0.19132908219E-01 0.  0.
         14    1    1    2    0    0  0.14367197640E-01  0.17830985391E-01 -0.57249869505E-02  0.23603726054E-01  0.00000000000E+00 0. -1.
     999901    1    3    3    0    0 -0.74922114992E-01 -0.11067543099E+00  0.66318468628E-01  0.89255840908E+00  0.88000000000E+00 0. -1.
        -11    1    4    4    0    0  0.25400522218E-01  0.55988701903E-01 -0.30941171668E-01  0.68829779129E-01  0.51100000000E-03 0. -1.
         11    1    4    4    0    0  0.35154395134E-01  0.36855743693E-01 -0.29652310009E-01  0.58938085737E-01  0.51100000000E-03 0.  1.
</event>
<event>
 8    1  0.1030163E+005  0.1043930E+01  0.7957747E-01            NaN
         13   -1    0    0    0    0  0.00000000000E+00  0.00000000000E+00  0.74505805969E-08  0.10566000000E+00  0.10566000000E+00 0.  1.
     999900   -1    0    0    0    0 -0.00000000000E+00 -0.00000000000E+00 -0.74505805969E-08  0.93827000000E+00  0.93827000000E+00 0. -1.
     999902    2    1    2    0    0 -0.85186332532E-02  0.18553843824E-01 -0.10366726078E-01  0.10210328115E+01  0.10207760385E+01 0.  0.
     999903    2    3    3    0    0  0.10562563307E+00  0.19477075324E-01  0.70476587846E-01  0.12998544612E+00  0.19827656027E-01 0.  0.
         14    1    1    2    0    0  0.85186332532E-02 -0.18553843824E-01  0.10366726078E-01  0.22897188533E-01  0.00000000000E+00 0.  1.
     999901    1    3    3    0    0 -0.11414426632E+00 -0.92323149993E-03 -0.80843313925E-01  0.89104736535E+00  0.88000000000E+00 0. -1.
        -11    1    4    4    0    0  0.18417829189E-01  0.31651482961E-02  0.39893161778E-02  0.19115709779E-01  0.51100000000E-03 0. -1.
         11    1    4    4    0    0  0.87207803879E-01  0.16311927028E-01  0.66487271669E-01  0.11086973634E+00  0.51100000000E-03 0.  1.
</event>
<event>
 8    1  0.1030163E+005  0.1043930E+01  0.7957747E-01            NaN
         13   -1    0    0    0    0  0.00000000000E+00  0.00000000000E+00  0.74505805969E-08  0.10566000000E+00  0.10566000000E+00 0. -1.
     999900   -1    0    0    0    0 -0.00000000000E+00 -0.00000000000E+00 -0.74505805969E-08  0.93827000000E+00  0.93827000000E+00 0. -1.
     999902    2    1    2    0    0  0.83782124374E-02  0.21417987772E-01 -0.44326394399E-02  0.10205083661E+01  0.10202395563E+01 0.  0.
     999903    2    3    3    0    0 -0.69337009953E-01 -0.10203404271E+00 -0.28436535877E-01  0.12817645099E+00  0.20049917532E-01 0.  0.
         14    1    1    2    0    0 -0.83782124374E-02 -0.21417987772E-01  0.44326394399E-02  0.23421633936E-01  0.00000000000E+00 0.  1.
     999901    1    3    3    0    0  0.77715222391E-01  0.12345203048E+00  0.24003896437E-01  0.89233191508E+00  0.88000000000E+00 0. -1.
        -11    1    4    4    0    0 -0.40003990880E-01 -0.43524249580E-01 -0.18688557960E-01  0.62001636329E-01  0.51100000000E-03 0.  1.
         11    1    4    4    0    0 -0.29333019073E-01 -0.58509793133E-01 -0.97479779177E-02  0.66174814657E-01  0.51100000000E-03 0. -1.
</event>
<event>
 8    1  0.1030163E+005  0.1043930E+01  0.7957747E-01            NaN
         13   -1    0    0    0    0  0.00000000000E+00  0.00000000000E+00  0.74505805969E-08  0.10566000000E+00  0.10566000000E+00 0.  1.
     999900   -1    0    0    0    0 -0.00000000000E+00 -0.00000000000E+00 -0.74505805969E-08  0.93827000000E+00  0.93827000000E+00 0. -1.
     999902    2    1    2    0    0 -0.95862235137E-02  0.17449376274E-01  0.13171630237E-01  0.10200580864E+01  0.10197787169E+01 0.  0.
     999903    2    3    3    0    0 -0.88720614515E-01 -0.67217987149E-01  0.66791264895E-01  0.13084164514E+00  0.16396883868E-01 0.  0.
         14    1    1    2    0    0  0.95862235137E-02 -0.17449376274E-01 -0.13171630237E-01  0.23871913553E-01  0.00000000000E+00 0. -1.
     999901    1    3    3    0    0  0.79134391001E-01  0.84667363422E-01 -0.53619634658E-01  0.88921644131E+00  0.88000000000E+00 0.  1.
        -11    1    4    4    0    0 -0.60267483698E-01 -0.49987574908E-01  0.38916103970E-01  0.87439416201E-01  0.51100000000E-03 0.  1.
         11    1    4    4    0    0 -0.28453130817E-01 -0.17230412241E-01  0.27875160926E-01  0.43402228940E-01  0.51100000000E-03 0. -1.
</event>
<event>
 8    1  0.1030163E+005  0.1043930E+01  0.7957747E-01            NaN
         13   -1    0    0    0    0  0.00000000000E+00  0.00000000000E+00  0.74505805969E-08  0.10566000000E+00  0.10566000000E+00 0.  1.
     999900   -1    0    0    0    0 -0.00000000000E+00 -0.00000000000E+00 -0.74505805969E-08  0.93827000000E+00  0.93827000000E+00 0.  1.
     999902    2    1    2    0    0  0.16891922823E-01  0.42716594495E-02 -0.16240022398E-01  0.10201114682E+01  0.10198333614E+01 0.  0.
     999903    2    3    3    0    0 -0.24111503426E-01  0.38638508604E-01  0.11819961814E+00  0.12829513156E+00  0.20351710226E-01 0.  0.
         14    1    1    2    0    0 -0.16891922823E-01 -0.42716594495E-02  0.16240022398E-01  0.23818531831E-01  0.00000000000E+00 0. -1.
     999901    1    3    3    0    0  0.41003426249E-01 -0.34366849155E-01 -0.13443964054E+00  0.89181633660E+00  0.88000000000E+00 0. -1.
        -11    1    4    4    0    0  0.18133921571E-03  0.14983313557E-01  0.25417532603E-01  0.29510077155E-01  0.51100000000E-03 0.  1.
         11    1    4    4    0    0 -0.24292842642E-01  0.23655195047E-01  0.92782085542E-01  0.98785054410E-01  0.51100000000E-03 0. -1.
</event>
<event>
 8    1  0.1030163E+005  0.1043930E+01  0.7957747E-01            NaN
         13   -1    0    0    0    0  0.00000000000E+00  0.00000000000E+00  0.74505805969E-08  0.10566000000E+00  0.10566000000E+00 0.  1.
     999900   -1    0    0    0    0 -0.00000000000E+00 -0.00000000000E+00 -0.74505805969E-08  0.93827000000E+00  0.93827000000E+00 0.  1.
     999902    2    1    2    0    0  0.18664350735E-01  0.15211261390E-01  0.18153026780E-02  0.10197838660E+01  0.10194979635E+01 0.  0.
     999903    2    3    3    0    0 -0.49481435252E-01  0.11967698564E+00  0.74566347420E-02  0.13097074715E+00  0.18076002886E-01 0.  0.
         14    1    1    2    0    0 -0.18664350735E-01 -0.15211261390E-01 -0.18153026780E-02  0.24146133960E-01  0.00000000000E+00 0.  1.
     999901    1    3    3    0    0  0.68145785987E-01 -0.10446572425E+00 -0.56413320640E-02  0.88881311889E+00  0.88000000000E+00 0.  1.
        -11    1    4    4    0    0 -0.70902389873E-02  0.38120027123E-01  0.40815246803E-02  0.38991382657E-01  0.51100000000E-03 0. -1.
         11    1    4    4    0    0 -0.42391196265E-01  0.81556958514E-01  0.33751100617E-02  0.91979364489E-01  0.51100000000E-03 0.  1.
</event>
<event>
 8    1  0.1030163E+005  0.1043930E+01  0.7957747E-01            NaN
         13   -1    0    0    0    0  0.00000000000E+00  0.00000000000E+00  0.74505805969E-08  0.10566000000E+00  0.10566000000E+00 0.  1.
     999900   -1    0    0    0    0 -0.00000000000E+00 -0.00000000000E+00 -0.74505805969E-08  0.93827000000E+00  0.93827000000E+00 0. -1.
     999902    2    1    2    0    0 -0.17171742892E-01 -0.16015661490E-01  0.29337863410E-03  0.10204468946E+01  0.10201766555E+01 0.  0.
     999903    2    3    3    0    0  0.11914844313E+00 -0.32632589116E-01 -0.32482909569E-01  0.12919294627E+00  0.19350467105E-01 0.  0.
         14    1    1    2    0    0  0.17171742892E-01  0.16015661490E-01 -0.29337863410E-03  0.23483105372E-01  0.00000000000E+00 0. -1.
     999901    1    3    3    0    0 -0.13632018603E+00  0.16616927626E-01  0.32776288204E-01  0.89125394836E+00  0.88000000000E+00 0.  1.
        -11    1    4    4    0    0  0.84737530530E-01 -0.23823873534E-01 -0.32015293419E-01  0.93665714988E-01  0.51100000000E-03 0. -1.
         11    1    4    4    0    0  0.34410912603E-01 -0.88087155819E-02 -0.46761615055E-03  0.35527231278E-01  0.51100000000E-03 0.  1.
</event>
<event>
 8    1  0.1030163E+005  0.1043930E+01  0.7957747E-01            NaN
         13   -1    0    0    0    0  0.00000000000E+00  0.00000000000E+00  0.74505805969E-08  0.10566000000E+00  0.10566000000E+00 0.  1.
     999900   -1    0    0    0    0 -0.00000000000E+00 -0.00000000000E+00 -0.74505805969E-08  0.93827000000E+00  0.93827000000E+00 0.  1.
     999902    2    1    2    0    0  0.14315869247E-01  0.58621883918E-03  0.20799579248E-01  0.10186731146E+01  0.10183599580E+01 0.  0.
     999903    2    3    3    0    0 -0.54815884177E-01  0.85292109645E-01 -0.73832371883E-01  0.12687185114E+00  0.19123868575E-01 0.  0.
         14    1    1    2    0    0 -0.14315869247E-01 -0.58621883918E-03 -0.20799579248E-01  0.25256885432E-01  0.00000000000E+00 0. -1.
     999901    1    3    3    0    0  0.69131753424E-01 -0.84705890806E-01  0.94631951131E-01  0.89180126342E+00  0.88000000000E+00 0. -1.
        -11    1    4    4    0    0 -0.16783825390E-01  0.16201767336E-01 -0.24562979119E-01  0.33879125192E-01  0.51100000000E-03 0.  1.
         11    1    4    4    0    0 -0.38032058786E-01  0.69090342309E-01 -0.49269392763E-01  0.92992725953E-01  0.51100000000E-03 0. -1.
</event>
<event>
 8    1  0.1030163E+005  0.1043930E+01  0.7957747E-01            NaN
         13   -1    0    0    0    0  0.00000000000E+00  0.00000000000E+00  0.74505805969E-08  0.10566000000E+00  0.10566000000E+00 0.  1.
     999900   -1    0    0    0    0 -0.00000000000E+00 -0.00000000000E+00 -0.74505805969E-08  0.93827000000E+00  0.93827000000E+00 0.  1.
     999902    2    1    2    0    0 -0.32757749286E-02  0.43289052013E-02 -0.23380203804E-01  0.10199278324E+01  0.10196453693E+01 0.  0.
     999903    2    3    3    0    0 -0.48156866141E-01  0.10641640032E+00  0.52634516114E-01  0.12963888676E+00  0.19806934662E-01 0.  0.
         14    1    1    2    0    0  0.32757749286E-02 -0.43289052013E-02  0.23380203804E-01  0.24002167642E-01  0.00000000000E+00 0.  1.
     999901    1    3    3    0    0  0.44881091212E-01 -0.10208749512E+00 -0.76014719917E-01  0.89028894560E+00  0.88000000000E+00 0. -1.
        -11    1    4    4    0    0 -0.49451830152E-01  0.99760175089E-01  0.47211980228E-01  0.12094134213E+00  0.51100000000E-03 0. -1.
         11    1    4    4    0    0  0.12949640111E-02  0.66562252306E-02  0.54225358855E-02  0.86975446271E-02  0.51100000000E-03 0.  1.
</event>
<event>
 8    1  0.1030163E+005  0.1043930E+01  0.7957747E-01            NaN
         13   -1    0    0    0    0  0.00000000000E+00  0.00000000000E+00  0.74505805969E-08  0.10566000000E+00  0.10566000000E+00 0.  1.
     999900   -1    0    0    0    0 -0.00000000000E+00 -0.00000000000E+00 -0.74505805969E-08  0.93827000000E+00  0.93827000000E+00 0.  1.
     999902    2    1    2    0    0  0.82045025421E-02  0.10724471984E-01  0.19756500063E-01  0.10199999466E+01  0.10197191984E+01 0.  0.
     999903    2    3    3    0    0  0.13241350610E-01 -0.52007496118E-01  0.11920405475E+00  0.13216522898E+00  0.19440372042E-01 0.  0.
         14    1    1    2    0    0 -0.82045025421E-02 -0.10724471984E-01 -0.19756500063E-01  0.23930053407E-01  0.00000000000E+00 0. -1.
     999901    1    3    3    0    0 -0.50368480678E-02  0.62731968102E-01 -0.99447554687E-01  0.88783471761E+00  0.88000000000E+00 0. -1.
        -11    1    4    4    0    0  0.13227825996E-01 -0.37876668673E-01  0.10364774108E+00  0.11114284845E+00  0.51100000000E-03 0.  1.
         11    1    4    4    0    0  0.13524613593E-04 -0.14130827444E-01  0.15556313671E-01  0.21022380531E-01  0.51100000000E-03 0. -1.
</event>
<event>
 8    1  0.1030163E+005  0.1043930E+01  0.7957747E-01            NaN
         13   -1    0    0    0    0  0.00000000000E+00  0.00000000000E+00  0.74505805969E-08  0.10566000000E+00  0.10566000000E+00 0. -1.
     999900   -1    0    0    0    0 -0.00000000000E+00 -0.00000000000E+00 -0.74505805969E-08  0.93827000000E+00  0.93827000000E+00 0.  1.
     999902    2    1    2    0    0  0.21194280133E-01 -0.11764216382E-02  0.14666508230E-01  0.10181290709E+01  0.10178021011E+01 0.  0.
     999903    2    3    3    0    0  0.10699314230E+00 -0.82051500512E-02  0.74057300047E-01  0.13193602539E+00  0.20193417740E-01 0.  0.
         14    1    1    2    0    0 -0.21194280133E-01  0.11764216382E-02 -0.14666508230E-01  0.25800929090E-01  0.00000000000E+00 0.  1.
     999901    1    3    3    0    0 -0.85798862164E-01  0.70287284130E-02 -0.59390791817E-01  0.88619304552E+00  0.88000000000E+00 0. -1.
        -11    1    4    4    0    0  0.79431313606E-01 -0.58687279335E-02  0.65061793260E-01  0.10284490076E+00  0.51100000000E-03 0. -1.
         11    1    4    4    0    0  0.27561828692E-01 -0.23364221178E-02  0.89955067871E-02  0.29091124634E-01  0.51100000000E-03 0.  1.
</event>
<event>
 8    1  0.1030163E+005  0.1043930E+01  0.7957747E-01            NaN
         13   -1    0    0    0    0  0.00000000000E+00  0.00000000000E+00  0.74505805969E-08  0.10566000000E+00  0.10566000000E+00 0. -1.
     999900   -1    0    0    0    0 -0.00000000000E+00 -0.00000000000E+00 -0.74505805969E-08  0.93827000000E+00  0.93827000000E+00 0. -1.
     999902    2    1    2    0    0 -0.15204238070E-01  0.88946636612E-02 -0.15036827444E-01  0.10207699034E+01  0.10205071315E+01 0.  0.
     999903    2    3    3    0    0 -0.68005057745E-01  0.51383615674E-01  0.97452203933E-01  0.13102442302E+00  0.20137118403E-01 0.  0.
         14    1    1    2    0    0  0.15204238070E-01 -0.88946636612E-02  0.15036827444E-01  0.23160096643E-01  0.00000000000E+00 0. -1.
     999901    1    3    3    0    0  0.52800819675E-01 -0.42488952013E-01 -0.11248903138E+00  0.88974548034E+00  0.88000000000E+00 0. -1.
        -11    1    4    4    0    0 -0.39095317012E-01  0.18154967335E-01  0.54656827588E-01  0.69610894077E-01  0.51100000000E-03 0.  1.
         11    1    4    4    0    0 -0.28909740733E-01  0.33228648339E-01  0.42795376345E-01  0.61413528942E-01  0.51100000000E-03 0. -1.
</event>
<event>
 8    1  0.1030163E+005  0.1043930E+01  0.7957747E-01            NaN
         13   -1    0    0    0    0  0.00000000000E+00  0.00000000000E+00  0.74505805969E-08  0.10566000000E+00  0.10566000000E+00 0.  1.
     999900   -1    0    0    0    0 -0.00000000000E+00 -0.00000000000E+00 -0.74505805969E-08  0.93827000000E+00  0.93827000000E+00 0.  1.
     999902    2    1    2    0    0  0.12378829211E-01  0.16743131284E-01 -0.38510357653E-02  0.10227545818E+01  0.10225353472E+01 0.  0.
     999903    2    3    3    0    0  0.12628765335E+00 -0.20120599596E-01 -0.34866914037E-01  0.13410609139E+00  0.20379699168E-01 0.  0.
         14    1    1    2    0    0 -0.12378829211E-01 -0.16743131284E-01  0.38510357653E-02  0.21175418161E-01  0.00000000000E+00 0.  1.
     999901    1    3    3    0    0 -0.11390882413E+00  0.36863730880E-01  0.31015878272E-01  0.88864849045E+00  0.88000000000E+00 0.  1.
        -11    1    4    4    0    0  0.72083188010E-01 -0.12565045698E-02 -0.19847810868E-01  0.74778081779E-01  0.51100000000E-03 0.  1.
         11    1    4    4    0    0  0.54204465336E-01 -0.18864095026E-01 -0.15019103169E-01  0.59328009612E-01  0.51100000000E-03 0. -1.
</event>
<event>
 8    1  0.1030163E+005  0.1043930E+01  0.7957747E-01            NaN
         13   -1    0    0    0    0  0.00000000000E+00  0.00000000000E+00  0.74505805969E-08  0.10566000000E+00  0.10566000000E+00 0. -1.
     999900   -1    0    0    0    0 -0.00000000000E+00 -0.00000000000E+00 -0.74505805969E-08  0.93827000000E+00  0.93827000000E+00 0.  1.
     999902    2    1    2    0    0  0.14273349023E-01  0.85019398003E-03  0.20211421264E-01  0.10191721150E+01  0.10188713594E+01 0.  0.
     999903    2    3    3    0    0 -0.33620519562E-01 -0.12132969773E+00 -0.16847855216E-01  0.12866937013E+00  0.20511501574E-01 0.  0.
         14    1    1    2    0    0 -0.14273349023E-01 -0.85019398003E-03 -0.20211421264E-01  0.24757885040E-01  0.00000000000E+00 0.  1.
     999901    1    3    3    0    0  0.47893868584E-01  0.12217989171E+00  0.37059276480E-01  0.89050274484E+00  0.88000000000E+00 0.  1.
        -11    1    4    4    0    0 -0.13276689835E-01 -0.64158770496E-01 -0.18091110053E-01  0.67971815545E-01  0.51100000000E-03 0. -1.
         11    1    4    4    0    0 -0.20343829726E-01 -0.57170927231E-01  0.12432548368E-02  0.60697554580E-01  0.51100000000E-03 0.  1.
</event>
<event>
 8    1  0.1030163E+005  0.1043930E+01  0.7957747E-01            NaN
         13   -1    0    0    0    0  0.00000000000E+00  0.00000000000E+00  0.74505805969E-08  0.10566000000E+00  0.10566000000E+00 0.  1.
     999900   -1    0    0    0    0 -0.00000000000E+00 -0.00000000000E+00 -0.74505805969E-08  0.93827000000E+00  0.93827000000E+00 0.  1.
     999902    2    1    2    0    0 -0.16980695784E-01  0.48619925407E-02 -0.16141167719E-01  0.10200026036E+01  0.10197219185E+01 0.  0.
     999903    2    3    3    0    0  0.37644479333E-01  0.97779256853E-01  0.72576548594E-01  0.12899847293E+00  0.19883679708E-01 0.  0.
         14    1    1    2    0    0  0.16980695784E-01 -0.48619925407E-02  0.16141167719E-01  0.23927396350E-01  0.00000000000E+00 0.  1.
     999901    1    3    3    0    0 -0.54625175116E-01 -0.92917264312E-01 -0.88717716313E-01  0.89100413072E+00  0.88000000000E+00 0.  1.
        -11    1    4    4    0    0  0.35130702219E-01  0.92032197167E-01  0.61131365050E-01  0.11593703665E+00  0.51100000000E-03 0. -1.
         11    1    4    4    0    0  0.25137771136E-02  0.57470596863E-02  0.11445183544E-01  0.13061436283E-01  0.51100000000E-03 0.  1.
</event>
<event>
 8    1  0.1030163E+005  0.1043930E+01  0.7957747E-01            NaN
         13   -1    0    0    0    0  0.00000000000E+00  0.00000000000E+00  0.74505805969E-08  0.10566000000E+00  0.10566000000E+00 0.  1.
     999900   -1    0    0    0    0 -0.00000000000E+00 -0.00000000000E+00 -0.74505805969E-08  0.93827000000E+00  0.93827000000E+00 0. -1.
     999902    2    1    2    0    0 -0.22853365711E-01 -0.54613209292E-02 -0.41393363066E-03  0.10204294959E+01  0.10201588516E+01 0.  0.
     999903    2    3    3    0    0  0.11862714954E+00 -0.38799885025E-01  0.21086681297E-01  0.12824651442E+00  0.20607975299E-01 0.  0.
         14    1    1    2    0    0  0.22853365711E-01  0.54613209292E-02  0.41393363066E-03  0.23500504072E-01  0.00000000000E+00 0. -1.
     999901    1    3    3    0    0 -0.14148051525E+00  0.33338564096E-01 -0.21500614928E-01  0.89218298151E+00  0.88000000000E+00 0. -1.
        -11    1    4    4    0    0  0.61978462821E-01 -0.17035671761E-01  0.20791105076E-01  0.67557939114E-01  0.51100000000E-03 0. -1.
         11    1    4    4    0    0  0.56648686721E-01 -0.21764213264E-01  0.29557622128E-03  0.60688575305E-01  0.51100000000E-03 0.  1.
</event>
<event>
 8    1  0.1030163E+005  0.1043930E+01  0.7957747E-01            NaN
         13   -1    0    0    0    0  0.00000000000E+00  0.00000000000E+00  0.74505805969E-08  0.10566000000E+00  0.10566000000E+00 0. -1.
     999900   -1    0    0    0    0 -0.00000000000E+00 -0.00000000000E+00 -0.74505805969E-08  0.93827000000E+00  0.93827000000E+00 0.  1.
     999902    2    1    2    0    0  0.68020960956E-03 -0.60712682024E-02 -0.22886989358E-01  0.10202416640E+01  0.10199666248E+01 0.  0.
     999903    2    3    3    0    0  0.49803428207E-01  0.17224669185E-01  0.11474006254E+00  0.12788691571E+00  0.20315279168E-01 0.  0.
         14    1    1    2    0    0 -0.68020960956E-03  0.60712682024E-02  0.22886989358E-01  0.23688336045E-01  0.00000000000E+00 0. -1.
     999901    1    3    3    0    0 -0.49123218597E-01 -0.23295937387E-01 -0.13762705190E+00  0.89235474825E+00  0.88000000000E+00 0.  1.
        -11    1    4    4    0    0  0.14910806612E-01 -0.30174356099E-02  0.22002897065E-01  0.26754918646E-01  0.51100000000E-03 0. -1.
         11    1    4    4    0    0  0.34892621595E-01  0.20242104795E-01  0.92737165476E-01  0.10113199706E+00  0.51100000000E-03 0.  1.
</event>
<event>
 8    1  0.1030163E+005  0.1043930E+01  0.7957747E-01            NaN
         13   -1    0    0    0    0  0.00000000000E+00  0.00000000000E+00  0.74505805969E-08  0.10566000000E+00  0.10566000000E+00 0.  1.
     999900   -1    0    0    0    0 -0.00000000000E+00 -0.00000000000E+00 -0.74505805969E-08  0.93827000000E+00  0.93827000000E+00 0.  1.
     999902    2    1    2    0    0 -0.22608149519E-01 -0.10555868498E-01  0.56805960401E-02  0.10183404718E+01  0.10180189057E+01 0.  0.
     999903    2    3    3    0    0  0.77771512057E-01 -0.70467088248E-01 -0.69423690919E-01  0.12743863394E+00  0.20172702964E-01 0.  0.
         14    1    1    2    0    0  0.22608149519E-01  0.10555868498E-01 -0.56805960401E-02  0.25589528244E-01  0.00000000000E+00 0.  1.
     999901    1    3    3    0    0 -0.10037966158E+00  0.59911219750E-01  0.75104286960E-01  0.89090183782E+00  0.88000000000E+00 0.  1.
        -11    1    4    4    0    0  0.33067911864E-01 -0.42515388481E-01 -0.30474039801E-01  0.61886777873E-01  0.51100000000E-03 0.  1.
         11    1    4    4    0    0  0.44703600193E-01 -0.27951699767E-01 -0.38949651119E-01  0.65551856064E-01  0.51100000000E-03 0. -1.
</event>
<event>
 8    1  0.1030163E+005  0.1043930E+01  0.7957747E-01            NaN
         13   -1    0    0    0    0  0.00000000000E+00  0.00000000000E+00  0.74505805969E-08  0.10566000000E+00  0.10566000000E+00 0.  1.
     999900   -1    0    0    0    0 -0.00000000000E+00 -0.00000000000E+00 -0.74505805969E-08  0.93827000000E+00  0.93827000000E+00 0. -1.
     999902    2    1    2    0    0 -0.23484688763E-01 -0.10727612308E-01 -0.53389611228E-02  0.10175649326E+01  0.10172233163E+01 0.  0.
     999903    2    3    3    0    0 -0.48343242511E-01  0.48388918040E-01 -0.10775425550E+00  0.12930730987E+00  0.20756789763E-01 0.  0.
         14    1    1    2    0    0  0.23484688763E-01  0.10727612308E-01  0.53389611228E-02  0.26365067381E-01  0.00000000000E+00 0.  1.
     999901    1    3    3    0    0  0.24858553748E-01 -0.59116530348E-01  0.10241529438E+00  0.88825762275E+00  0.88000000000E+00 0.  1.
        -11    1    4    4    0    0 -0.24474957578E-01  0.17101688269E-01 -0.30953509153E-01  0.43010139967E-01  0.51100000000E-03 0.  1.
         11    1    4    4    0    0 -0.23868284932E-01  0.31287229771E-01 -0.76800746347E-01  0.86297169900E-01  0.51100000000E-03 0. -1.
</event>
<event>
 8    1  0.1030163E+005  0.1043930E+01  0.7957747E-01            NaN
         13   -1    0    0    0    0  0.00000000000E+00  0.00000000000E+00  0.74505805969E-08  0.10566000000E+00  0.10566000000E+00 0. -1.
     999900   -1    0    0    0    0 -0.00000000000E+00 -0.00000000000E+00 -0.74505805969E-08  0.93827000000E+00  0.93827000000E+00 0.  1.
     999902    2    1    2    0    0  0.20601518305E-01 -0.10121960338E-01 -0.71198358821E-02  0.10198973410E+01  0.10196141512E+01 0.  0.
     999903    2    3    3    0    0 -0.37419861460E-01  0.78214416917E-01 -0.93798873812E-01  0.12934523599E+00  0.20352402766E-01 0.  0.
         14    1    1    2    0    0 -0.20601518305E-01  0.10121960338E-01  0.71198358821E-02  0.24032659041E-01  0.00000000000E+00 0.  1.
     999901    1    3    3    0    0  0.58021379766E-01 -0.88336377256E-01  0.86679037930E-01  0.89055210497E+00  0.88000000000E+00 0. -1.
        -11    1    4    4    0    0 -0.34396398883E-01  0.54065165635E-01 -0.74586163541E-01  0.98333673297E-01  0.51100000000E-03 0. -1.
         11    1    4    4    0    0 -0.30234625775E-02  0.24149251282E-01 -0.19212710271E-01  0.31011562689E-01  0.51100000000E-03 0.  1.
</event>
<event>
 8    1  0.1030163E+005  0.1043930E+01  0.7957747E-01            NaN
         13   -1    0    0    0    0  0.00000000000E+00  0.00000000000E+00  0.74505805969E-08  0.10566000000E+00  0.10566000000E+00 0. -1.
     999900   -1    0    0    0    0 -0.00000000000E+00 -0.00000000000E+00 -0.74505805969E-08  0.93827000000E+00  0.93827000000E+00 0.  1.
     999902    2    1    2    0    0 -0.16025447781E-01 -0.77592281442E-02  0.15566854838E-01  0.10202794700E+01  0.10200053183E+01 0.  0.
     999903    2    3    3    0    0  0.53613209587E-01 -0.14103673867E-02 -0.11452200228E+00  0.12797180932E+00  0.19624719002E-01 0.  0.
         14    1    1    2    0    0  0.16025447781E-01  0.77592281442E-02 -0.15566854838E-01  0.23650529963E-01  0.00000000000E+00 0. -1.
     999901    1    3    3    0    0 -0.69638657368E-01 -0.63488607575E-02  0.13008885712E+00  0.89230766072E+00  0.88000000000E+00 0. -1.
        -11    1    4    4    0    0  0.37196966738E-01 -0.96188527867E-02 -0.70886586407E-01  0.80630676029E-01  0.51100000000E-03 0. -1.
         11    1    4    4    0    0  0.16416242849E-01  0.82084854000E-02 -0.43635415871E-01  0.47341133289E-01  0.51100000000E-03 0.  1.
</event>
<event>
 8    1  0.1030163E+005  0.1043930E+01  0.7957747E-01            NaN
         13   -1    0    0    0    0  0.00000000000E+00  0.00000000000E+00  0.74505805969E-08  0.10566000000E+00  0.10566000000E+00 0. -1.
     999900   -1    0    0    0    0 -0.00000000000E+00 -0.00000000000E+00 -0.74505805969E-08  0.93827000000E+00  0.93827000000E+00 0. -1.
     999902    2    1    2    0    0  0.16339874413E-01 -0.13480962455E-02  0.17467340767E-01  0.10199734382E+01  0.10196920603E+01 0.  0.
     999903    2    3    3    0    0 -0.76362752123E-01 -0.97256281022E-01 -0.29022906763E-01  0.12870832614E+00  0.20819461840E-01 0.  0.
         14    1    1    2    0    0 -0.16339874413E-01  0.13480962455E-02 -0.17467340767E-01  0.23956561790E-01  0.00000000000E+00 0.  1.
     999901    1    3    3    0    0  0.92702626536E-01  0.95908184776E-01  0.46490247530E-01  0.89126511207E+00  0.88000000000E+00 0.  1.
        -11    1    4    4    0    0 -0.76360535615E-01 -0.91570479284E-01 -0.25282447196E-01  0.12188333493E+00  0.51100000000E-03 0.  1.
         11    1    4    4    0    0 -0.22165081739E-05 -0.56858017378E-02 -0.37404595666E-02  0.68249912149E-02  0.51100000000E-03 0. -1.
</event>
<event>
 8    1  0.1030163E+005  0.1043930E+01  0.7957747E-01            NaN
         13   -1    0    0    0    0  0.00000000000E+00  0.00000000000E+00  0.74505805969E-08  0.10566000000E+00  0.10566000000E+00 0.  1.
     999900   -1    0    0    0    0 -0.00000000000E+00 -0.00000000000E+00 -0.74505805969E-08  0.93827000000E+00  0.93827000000E+00 0.  1.
     999902    2    1    2    0    0 -0.80186676642E-03  0.46543312443E-02 -0.23757226695E-01  0.10197078694E+01  0.10194201427E+01 0.  0.
     999903    2    3    3    0    0 -0.99679850675E-01 -0.15061123090E-01 -0.82713084063E-01  0.13199093933E+00  0.20426544785E-01 0.  0.
         14    1    1    2    0    0  0.80186676642E-03 -0.46543312443E-02  0.23757226695E-01  0.24222130580E-01  0.00000000000E+00 0.  1.
     999901    1    3    3    0    0  0.98877983909E-01  0.19715454334E-01  0.58955857369E-01  0.88771693008E+00  0.88000000000E+00 0. -1.
        -11    1    4    4    0    0 -0.54425078876E-01  0.99954562706E-03 -0.49730645735E-01  0.73732533853E-01  0.51100000000E-03 0. -1.
         11    1    4    4    0    0 -0.45254771799E-01 -0.16060668717E-01 -0.32982438328E-01  0.58258405481E-01  0.51100000000E-03 0.  1.
</event>
<event>
 8    1  0.1988256E+005  0.1043930E+01  0.7957747E-01            NaN
         13   -1    0    0    0    0  0.00000000000E+00  0.00000000000E+00  0.74505805969E-08  0.10566000000E+00  0.10566000000E+00 0.  1.
     999900   -1    0    0    0    0 -0.00000000000E+00 -0.00000000000E+00 -0.74505805969E-08  0.93827000000E+00  0.93827000000E+00 0. -1.
     999902    2    1    2    0    0  0.45162877234E-02 -0.69447550743E-03 -0.23151218308E-01  0.10203321598E+01  0.10200592426E+01 0.  0.
     999903    2    3    3    0    0  0.78681874160E-01 -0.59473598726E-01 -0.86713985179E-01  0.13297893543E+00  0.20883864012E-01 0.  0.
         14    1    1    2    0    0 -0.45162877234E-02  0.69447550743E-03  0.23151218308E-01  0.23597840159E-01  0.00000000000E+00 0.  1.
     999901    1    3    3    0    0 -0.74165586437E-01  0.58779123218E-01  0.63562766871E-01  0.88735322441E+00  0.88000000000E+00 0. -1.
        -11    1    4    4    0    0  0.57409888013E-01 -0.31128156907E-01 -0.58488999874E-01  0.87670300680E-01  0.51100000000E-03 0.  1.
         11    1    4    4    0    0  0.21271986147E-01 -0.28345441819E-01 -0.28224985305E-01  0.45308634751E-01  0.51100000000E-03 0. -1.
</event>
<event>
 8    1  0.1030163E+005  0.1043930E+01  0.7957747E-01            NaN
         13   -1    0    0    0    0  0.00000000000E+00  0.00000000000E+00  0.74505805969E-08  0.10566000000E+00  0.10566000000E+00 0. -1.
     999900   -1    0    0    0    0 -0.00000000000E+00 -0.00000000000E+00 -0.74505805969E-08  0.93827000000E+00  0.93827000000E+00 0. -1.
     999902    2    1    2    0    0  0.12212814535E-01 -0.12703240377E-01 -0.27974095897E-01  0.10108683123E+01  0.10103275061E+01 0.  0.
     999903    2    3    3    0    0 -0.81613010244E-01  0.78203056861E-01  0.32073052904E-01  0.11919970770E+00  0.20087011981E-01 0.  0.
         14    1    1    2    0    0 -0.12212814535E-01  0.12703240377E-01  0.27974095897E-01  0.33061687740E-01  0.00000000000E+00 0. -1.
     999901    1    3    3    0    0  0.93825824779E-01 -0.90906297238E-01 -0.60047148802E-01  0.89166860456E+00  0.88000000000E+00 0. -1.
        -11    1    4    4    0    0 -0.55905271920E-01  0.40002957670E-01  0.18406289072E-01  0.71166625950E-01  0.51100000000E-03 0.  1.
         11    1    4    4    0    0 -0.25707738324E-01  0.38200099192E-01  0.13666763832E-01  0.48033081753E-01  0.51100000000E-03 0. -1.
</event>
<event>
 8    1  0.1030163E+005  0.1043930E+01  0.7957747E-01            NaN
         13   -1    0    0    0    0  0.00000000000E+00  0.00000000000E+00  0.74505805969E-08  0.10566000000E+00  0.10566000000E+00 0. -1.
     999900   -1    0    0    0    0 -0.00000000000E+00 -0.00000000000E+00 -0.74505805969E-08  0.93827000000E+00  0.93827000000E+00 0.  1.
     999902    2    1    2    0    0  0.12253679867E-01  0.86780415586E-02  0.18461693959E-01  0.10201330418E+01  0.10198554445E+01 0.  0.
     999903    2    3    3    0    0  0.62966146339E-01 -0.69888304667E-01 -0.86081478581E-01  0.12902491147E+00  0.19705230577E-01 0.  0.
         14    1    1    2    0    0 -0.12253679867E-01 -0.86780415586E-02 -0.18461693959E-01  0.23796958196E-01  0.00000000000E+00 0.  1.
     999901    1    3    3    0    0 -0.50712466471E-01  0.78566346226E-01  0.10454317254E+00  0.89110813033E+00  0.88000000000E+00 0. -1.
        -11    1    4    4    0    0  0.19589123697E-01 -0.33017360265E-01 -0.26735381958E-01  0.46785912575E-01  0.51100000000E-03 0.  1.
         11    1    4    4    0    0  0.43377022642E-01 -0.36870944402E-01 -0.59346096624E-01  0.82238998899E-01  0.51100000000E-03 0. -1.
</event>
<event>
 8    1  0.1030163E+005  0.1043930E+01  0.7957747E-01            NaN
         13   -1    0    0    0    0  0.00000000000E+00  0.00000000000E+00  0.74505805969E-08  0.10566000000E+00  0.10566000000E+00 0.  1.
     999900   -1    0    0    0    0 -0.00000000000E+00 -0.00000000000E+00 -0.74505805969E-08  0.93827000000E+00  0.93827000000E+00 0.  1.
     999902    2    1    2    0    0  0.10597295844E-01 -0.19303538943E-01  0.83215122475E-02  0.10203890387E+01  0.10201174508E+01 0.  0.
     999903    2    3    3    0    0  0.83771273504E-01  0.85273151894E-01  0.47607258924E-01  0.13031371310E+00  0.20641608971E-01 0.  0.
         14    1    1    2    0    0 -0.10597295844E-01  0.19303538943E-01 -0.83215122475E-02  0.23540961345E-01  0.00000000000E+00 0. -1.
     999901    1    3    3    0    0 -0.73173977660E-01 -0.10457669084E+00 -0.39285746676E-01  0.89007532556E+00  0.88000000000E+00 0.  1.
        -11    1    4    4    0    0  0.28949231703E-01  0.38884676763E-01  0.11030726531E-01  0.49719353897E-01  0.51100000000E-03 0.  1.
         11    1    4    4    0    0  0.54822041801E-01  0.46388475131E-01  0.36576532393E-01  0.80594359202E-01  0.51100000000E-03 0. -1.
</event>
<event>
 8    1  0.1030163E+005  0.1043930E+01  0.7957747E-01            NaN
         13   -1    0    0    0    0  0.00000000000E+00  0.00000000000E+00  0.74505805969E-08  0.10566000000E+00  0.10566000000E+00 0. -1.
     999900   -1    0    0    0    0 -0.00000000000E+00 -0.00000000000E+00 -0.74505805969E-08  0.93827000000E+00  0.93827000000E+00 0.  1.
     999902    2    1    2    0    0  0.24405094304E-02 -0.13393535683E-01 -0.15955269766E-01  0.10229558846E+01  0.10227408412E+01 0.  0.
     999903    2    3    3    0    0  0.11521221999E+00  0.61932474134E-01 -0.39570611000E-02  0.13248666924E+00  0.20677819173E-01 0.  0.
         14    1    1    2    0    0 -0.24405094304E-02  0.13393535683E-01  0.15955269766E-01  0.20974115421E-01  0.00000000000E+00 0. -1.
     999901    1    3    3    0    0 -0.11277171056E+00 -0.75326009816E-01 -0.11998208666E-01  0.89046921534E+00  0.88000000000E+00 0.  1.
        -11    1    4    4    0    0  0.10444564826E-01  0.12287202732E-01  0.27029785893E-02  0.16359446801E-01  0.51100000000E-03 0. -1.
         11    1    4    4    0    0  0.10476765517E+00  0.49645271401E-01 -0.66600396893E-02  0.11612722244E+00  0.51100000000E-03 0.  1.
</event>
<event>
 8    1  0.1030163E+005  0.1043930E+01  0.7957747E-01            NaN
         13   -1    0    0    0    0  0.00000000000E+00  0.00000000000E+00  0.74505805969E-08  0.10566000000E+00  0.10566000000E+00 0.  1.
     999900   -1    0    0    0    0 -0.00000000000E+00 -0.00000000000E+00 -0.74505805969E-08  0.93827000000E+00  0.93827000000E+00 0.  1.
     999902    2    1    2    0    0 -0.17507579149E-01 -0.11545206792E-01 -0.96697757725E-02  0.10208364578E+01  0.10205752113E+01 0.  0.
     999903    2    3    3    0    0 -0.21238653078E-01 -0.39244470831E-02  0.12696877442E+00  0.13025120625E+00  0.19437730875E-01 0.  0.
         14    1    1    2    0    0  0.17507579149E-01  0.11545206792E-01  0.96697757725E-02  0.23093542193E-01  0.00000000000E+00 0. -1.
     999901    1    3    3    0    0  0.37310739286E-02 -0.76207597086E-02 -0.13663855020E+00  0.89058525156E+00  0.88000000000E+00 0.  1.
        -11    1    4    4    0    0 -0.96657195930E-02  0.15419926711E-03  0.10166168490E+00  0.10212154137E+00  0.51100000000E-03 0.  1.
         11    1    4    4    0    0 -0.11572933485E-01 -0.40786463502E-02  0.25307089520E-01  0.28129664884E-01  0.51100000000E-03 0. -1.
</event>
<event>
 8    1  0.1030163E+005  0.1043930E+01  0.7957747E-01            NaN
         13   -1    0    0    0    0  0.00000000000E+00  0.00000000000E+00  0.74505805969E-08  0.10566000000E+00  0.10566000000E+00 0. -1.
     999900   -1    0    0    0    0 -0.00000000000E+00 -0.00000000000E+00 -0.74505805969E-08  0.93827000000E+00  0.93827000000E+00 0. -1.
     999902    2    1    2    0    0 -0.22121658173E-01  0.13796291663E-02 -0.89582892348E-02  0.10200234720E+01  0.10197432820E+01 0.  0.
     999903    2    3    3    0    0 -0.79482308274E-01 -0.91928376731E-01 -0.47963497789E-01  0.13237600002E+00  0.21322393961E-01 0.  0.
         14    1    1    2    0    0  0.22121658173E-01 -0.13796291663E-02  0.89582892348E-02  0.23906528041E-01  0.00000000000E+00 0.  1.
     999901    1    3    3    0    0  0.57360650101E-01  0.93308005898E-01  0.39005208554E-01  0.88764747194E+00  0.88000000000E+00 0.  1.
        -11    1    4    4    0    0 -0.20900062643E-01 -0.39359293219E-01 -0.14769848682E-01  0.46950784149E-01  0.51100000000E-03 0.  1.
         11    1    4    4    0    0 -0.58582245631E-01 -0.52569083512E-01 -0.33193649107E-01  0.85425215871E-01  0.51100000000E-03 0. -1.
</event>
<event>
 8    1  0.1030163E+005  0.1043930E+01  0.7957747E-01            NaN
         13   -1    0    0    0    0  0.00000000000E+00  0.00000000000E+00  0.74505805969E-08  0.10566000000E+00  0.10566000000E+00 0.  1.
     999900   -1    0    0    0    0 -0.00000000000E+00 -0.00000000000E+00 -0.74505805969E-08  0.93827000000E+00  0.93827000000E+00 0.  1.
     999902    2    1    2    0    0  0.67359258827E-02 -0.22951357794E-01  0.49154765850E-02  0.10195107569E+01  0.10192182711E+01 0.  0.
     999903    2    3    3    0    0 -0.39176290030E-01 -0.72781520044E-01  0.10063628960E+00  0.13173068806E+00  0.19833810330E-01 0.  0.
         14    1    1    2    0    0 -0.67359258827E-02  0.22951357794E-01 -0.49154765850E-02  0.24419243071E-01  0.00000000000E+00 0. -1.
     999901    1    3    3    0    0  0.45912215912E-01  0.49830162250E-01 -0.95720813012E-01  0.88778006887E+00  0.88000000000E+00 0.  1.
        -11    1    4    4    0    0 -0.23060153502E-01 -0.52353682274E-01  0.80824734764E-01  0.99023116482E-01  0.51100000000E-03 0. -1.
         11    1    4    4    0    0 -0.16116136528E-01 -0.20427837770E-01  0.19811554833E-01  0.32707571576E-01  0.51100000000E-03 0.  1.
</event>
<event>
 8    1  0.1030163E+005  0.1043930E+01  0.7957747E-01            NaN
         13   -1    0    0    0    0  0.00000000000E+00  0.00000000000E+00  0.74505805969E-08  0.10566000000E+00  0.10566000000E+00 0.  1.
     999900   -1    0    0    0    0 -0.00000000000E+00 -0.00000000000E+00 -0.74505805969E-08  0.93827000000E+00  0.93827000000E+00 0.  1.
     999902    2    1    2    0    0  0.68640342259E-02 -0.14392810930E-01  0.17288702059E-01  0.10204104934E+01  0.10201394061E+01 0.  0.
     999903    2    3    3    0    0 -0.11610425601E+00 -0.14506224698E-01 -0.51188641507E-01  0.12922568660E+00  0.19707162145E-01 0.  0.
         14    1    1    2    0    0 -0.68640342259E-02  0.14392810930E-01 -0.17288702059E-01  0.23519506611E-01  0.00000000000E+00 0.  1.
     999901    1    3    3    0    0  0.12296829024E+00  0.11341376757E-03  0.68477343566E-01  0.89118480679E+00  0.88000000000E+00 0. -1.
        -11    1    4    4    0    0 -0.83055847371E-01 -0.17965534112E-01 -0.31689589070E-01  0.90694682176E-01  0.51100000000E-03 0.  1.
         11    1    4    4    0    0 -0.33048408639E-01  0.34593094144E-02 -0.19499052437E-01  0.38531004426E-01  0.51100000000E-03 0. -1.
</event>
<event>
 8    1  0.1030163E+005  0.1043930E+01  0.7957747E-01            NaN
         13   -1    0    0    0    0  0.00000000000E+00  0.00000000000E+00  0.74505805969E-08  0.10566000000E+00  0.10566000000E+00 0. -1.
     999900   -1    0    0    0    0 -0.00000000000E+00 -0.00000000000E+00 -0.74505805969E-08  0.93827000000E+00  0.93827000000E+00 0. -1.
     999902    2    1    2    0    0  0.92397275491E-02 -0.12415954035E-01 -0.17783086642E-01  0.10203552964E+01  0.10200829203E+01 0.  0.
     999903    2    3    3    0    0 -0.21814554204E-01  0.85131047900E-01  0.90685942243E-01  0.12780540074E+00  0.19675117417E-01 0.  0.
         14    1    1    2    0    0 -0.92397275491E-02  0.12415954035E-01  0.17783086642E-01  0.23574703610E-01  0.00000000000E+00 0. -1.
     999901    1    3    3    0    0  0.31054281753E-01 -0.97547001935E-01 -0.10846902889E+00  0.89254989565E+00  0.88000000000E+00 0. -1.
        -11    1    4    4    0    0 -0.18891955712E-01  0.63465012562E-01  0.55616520092E-01  0.86476425911E-01  0.51100000000E-03 0.  1.
         11    1    4    4    0    0 -0.29225984921E-02  0.21666035338E-01  0.35069422151E-01  0.41328974826E-01  0.51100000000E-03 0. -1.
</event>
<event>
 8    1  0.1030163E+005  0.1043930E+01  0.7957747E-01            NaN
         13   -1    0    0    0    0  0.00000000000E+00  0.00000000000E+00  0.74505805969E-08  0.10566000000E+00  0.10566000000E+00 0. -1.
     999900   -1    0    0    0    0 -0.00000000000E+00 -0.00000000000E+00 -0.74505805969E-08  0.93827000000E+00  0.93827000000E+00 0.  1.
     999902    2    1    2    0    0 -0.12268073128E-01 -0.17834594653E-01  0.10037718660E-01  0.10200692754E+01  0.10197901707E+01 0.  0.
     999903    2    3    3    0    0  0.28253779809E-01  0.10494186229E+00 -0.63653575520E-01  0.12757474552E+00  0.20309295504E-01 0.  0.
         14    1    1    2    0    0  0.12268073128E-01  0.17834594653E-01 -0.10037718660E-01  0.23860724645E-01  0.00000000000E+00 0.  1.
     999901    1    3    3    0    0 -0.40521852936E-01 -0.12277645694E+00  0.73691294180E-01  0.89249452983E+00  0.88000000000E+00 0. -1.
        -11    1    4    4    0    0  0.23425162239E-01  0.68007219944E-01 -0.32154622672E-01  0.78790234615E-01  0.51100000000E-03 0.  1.
         11    1    4    4    0    0  0.48286175696E-02  0.36934642346E-01 -0.31498952848E-01  0.48784510906E-01  0.51100000000E-03 0. -1.
</event>
<event>
 8    1  0.1030163E+005  0.1043930E+01  0.7957747E-01            NaN
         13   -1    0    0    0    0  0.00000000000E+00  0.00000000000E+00  0.74505805969E-08  0.10566000000E+00  0.10566000000E+00 0.  1.
     999900   -1    0    0    0    0 -0.00000000000E+00 -0.00000000000E+00 -0.74505805969E-08  0.93827000000E+00  0.93827000000E+00 0. -1.
     999902    2    1    2    0    0  0.20259124290E-01 -0.98235197323E-02  0.46213288339E-02  0.10209454326E+01  0.10206866738E+01 0.  0.
     999903    2    3    3    0    0 -0.79981902811E-02  0.12679528466E+00 -0.16723955048E-01  0.12969979046E+00  0.20033215232E-01 0.  0.
         14    1    1    2    0    0 -0.20259124290E-01  0.98235197323E-02 -0.46213288339E-02  0.22984567369E-01  0.00000000000E+00 0.  1.
     999901    1    3    3    0    0  0.28257314571E-01 -0.13661880440E+00  0.21345283882E-01  0.89124564217E+00  0.88000000000E+00 0.  1.
        -11    1    4    4    0    0  0.12820201412E-02  0.46904417621E-01 -0.14956657282E-01  0.49250692239E-01  0.51100000000E-03 0. -1.
         11    1    4    4    0    0 -0.92802104223E-02  0.79890867044E-01 -0.17672977657E-02  0.80449098223E-01  0.51100000000E-03 0.  1.
</event>
<event>
 8    1  0.1030163E+005  0.1043930E+01  0.7957747E-01            NaN
         13   -1    0    0    0    0  0.00000000000E+00  0.00000000000E+00  0.74505805969E-08  0.10566000000E+00  0.10566000000E+00 0. -1.
     999900   -1    0    0    0    0 -0.00000000000E+00 -0.00000000000E+00 -0.74505805969E-08  0.93827000000E+00  0.93827000000E+00 0.  1.
     999902    2    1    2    0    0  0.15955993224E-01 -0.64824212399E-02 -0.14784496625E-01  0.10212320520E+01  0.10209797780E+01 0.  0.
     999903    2    3    3    0    0  0.12156407988E+00 -0.10700231393E-01  0.48288306208E-01  0.13266633331E+00  0.19397809425E-01 0.  0.
         14    1    1    2    0    0 -0.15955993224E-01  0.64824212399E-02  0.14784496625E-01  0.22697948043E-01  0.00000000000E+00 0.  1.
     999901    1    3    3    0    0 -0.10560808665E+00  0.42178101531E-02 -0.63072802833E-01  0.88856571864E+00  0.88000000000E+00 0.  1.
        -11    1    4    4    0    0  0.98505331382E-01 -0.10060611340E-01  0.30749089031E-01  0.10368357540E+00  0.51100000000E-03 0. -1.
         11    1    4    4    0    0  0.23058748496E-01 -0.63962005300E-03  0.17539217176E-01  0.28982757912E-01  0.51100000000E-03 0.  1.
</event>
<event>
 8    1  0.1030163E+005  0.1043930E+01  0.7957747E-01            NaN
         13   -1    0    0    0    0  0.00000000000E+00  0.00000000000E+00  0.74505805969E-08  0.10566000000E+00  0.10566000000E+00 0. -1.
     999900   -1    0    0    0    0 -0.00000000000E+00 -0.00000000000E+00 -0.74505805969E-08  0.93827000000E+00  0.93827000000E+00 0.  1.
     999902    2    1    2    0    0 -0.79084223484E-02 -0.17841981506E-01 -0.12202292124E-01  0.10209131501E+01  0.10206536555E+01 0.  0.
     999903    2    3    3    0    0 -0.36631874594E-01  0.10911525455E+00  0.54304012718E-01  0.12885582843E+00  0.20170912478E-01 0.  0.
         14    1    1    2    0    0  0.79084223484E-02  0.17841981506E-01  0.12202292124E-01  0.23016849940E-01  0.00000000000E+00 0. -1.
     999901    1    3    3    0    0  0.28723452245E-01 -0.12695723606E+00 -0.66506304841E-01  0.89205732163E+00  0.88000000000E+00 0. -1.
        -11    1    4    4    0    0 -0.20256457344E-01  0.51313065735E-01  0.36662332219E-01  0.66240037017E-01  0.51100000000E-03 0. -1.
         11    1    4    4    0    0 -0.16375417250E-01  0.57802188816E-01  0.17641680499E-01  0.62615791410E-01  0.51100000000E-03 0.  1.
</event>
<event>
 8    1  0.1030163E+005  0.1043930E+01  0.7957747E-01            NaN
         13   -1    0    0    0    0  0.00000000000E+00  0.00000000000E+00  0.74505805969E-08  0.10566000000E+00  0.10566000000E+00 0.  1.
     999900   -1    0    0    0    0 -0.00000000000E+00 -0.00000000000E+00 -0.74505805969E-08  0.93827000000E+00  0.93827000000E+00 0. -1.
     999902    2    1    2    0    0 -0.43153279496E-02 -0.29120515920E-02  0.22608168142E-01  0.10207301861E+01  0.10204665018E+01 0.  0.
     999903    2    3    3    0    0 -0.17107808426E-02  0.12815206991E+00 -0.13660367025E-01  0.13028086451E+00  0.18989950944E-01 0.  0.
         14    1    1    2    0    0  0.43153279496E-02  0.29120515920E-02 -0.22608168142E-01  0.23199813933E-01  0.00000000000E+00 0. -1.
     999901    1    3    3    0    0 -0.26045471070E-02 -0.13106412151E+00  0.36268535166E-01  0.89044932155E+00  0.88000000000E+00 0. -1.
        -11    1    4    4    0    0  0.32585415543E-02  0.44609510369E-02 -0.21684836669E-02  0.59566449976E-02  0.51100000000E-03 0. -1.
         11    1    4    4    0    0 -0.49693223969E-02  0.12369111888E+00 -0.11491883358E-01  0.12432421952E+00  0.51100000000E-03 0.  1.
</event>
<event>
 8    1  0.1030163E+005  0.1043930E+01  0.7957747E-01            NaN
         13   -1    0    0    0    0  0.00000000000E+00  0.00000000000E+00  0.74505805969E-08  0.10566000000E+00  0.10566000000E+00 0. -1.
     999900   -1    0    0    0    0 -0.00000000000E+00 -0.00000000000E+00 -0.74505805969E-08  0.93827000000E+00  0.93827000000E+00 0. -1.
     999902    2    1    2    0    0 -0.23132059391E-01  0.52576450172E-02 -0.77221023244E-02  0.10189827383E+01  0.10186773066E+01 0.  0.
     999903    2    3    3    0    0 -0.94690885708E-02 -0.45413972825E-01 -0.12006449700E+00  0.13028981985E+00  0.20195572551E-01 0.  0.
         14    1    1    2    0    0  0.23132059391E-01 -0.52576450172E-02  0.77221023244E-02  0.24947261715E-01  0.00000000000E+00 0. -1.
     999901    1    3    3    0    0 -0.13662970820E-01  0.50671617842E-01  0.11234239468E+00  0.88869291843E+00  0.88000000000E+00 0.  1.
        -11    1    4    4    0    0  0.16076308300E-02 -0.29467379616E-01 -0.55409709398E-01  0.62780633598E-01  0.51100000000E-03 0.  1.
         11    1    4    4    0    0 -0.11076719401E-01 -0.15946593209E-01 -0.64654787606E-01  0.67509186256E-01  0.51100000000E-03 0. -1.
</event>
<event>
 8    1  0.1030163E+005  0.1043930E+01  0.7957747E-01            NaN
         13   -1    0    0    0    0  0.00000000000E+00  0.00000000000E+00  0.74505805969E-08  0.10566000000E+00  0.10566000000E+00 0. -1.
     999900   -1    0    0    0    0 -0.00000000000E+00 -0.00000000000E+00 -0.74505805969E-08  0.93827000000E+00  0.93827000000E+00 0.  1.
     999902    2    1    2    0    0 -0.10117732468E-01  0.36423242233E-02  0.23769559387E-01  0.10178411712E+01  0.10175067679E+01 0.  0.
     999903    2    3    3    0    0  0.85523007238E-01 -0.18586121010E-01  0.93459220751E-01  0.12964192339E+00  0.20316832795E-01 0.  0.
         14    1    1    2    0    0  0.10117732468E-01 -0.36423242233E-02 -0.23769559387E-01  0.26088828826E-01  0.00000000000E+00 0.  1.
     999901    1    3    3    0    0 -0.95640739706E-01  0.22228445233E-01 -0.69689661363E-01  0.88819924779E+00  0.88000000000E+00 0.  1.
        -11    1    4    4    0    0  0.53696193025E-01 -0.21037201836E-01  0.55463475791E-01  0.80014394170E-01  0.51100000000E-03 0. -1.
         11    1    4    4    0    0  0.31826814213E-01  0.24510808261E-02  0.37995744959E-01  0.49627529217E-01  0.51100000000E-03 0.  1.
</event>
<event>
 8    1  0.1030163E+005  0.1043930E+01  0.7957747E-01            NaN
         13   -1    0    0    0    0  0.00000000000E+00  0.00000000000E+00  0.74505805969E-08  0.10566000000E+00  0.10566000000E+00 0. -1.
     999900   -1    0    0    0    0 -0.00000000000E+00 -0.00000000000E+00 -0.74505805969E-08  0.93827000000E+00  0.93827000000E+00 0. -1.
     999902    2    1    2    0    0 -0.87788386564E-02 -0.96427935924E-02 -0.19308551679E-01  0.10206303939E+01  0.10203644101E+01 0.  0.
     999903    2    3    3    0    0  0.33892401173E-01 -0.93161440117E-01  0.81690176760E-01  0.12990207271E+00  0.19326529265E-01 0.  0.
         14    1    1    2    0    0  0.87788386564E-02  0.96427935924E-02  0.19308551679E-01  0.23299606099E-01  0.00000000000E+00 0. -1.
     999901    1    3    3    0    0 -0.42671239830E-01  0.83518646524E-01 -0.10099872844E+00  0.89072832119E+00  0.88000000000E+00 0. -1.
        -11    1    4    4    0    0  0.85481536964E-02 -0.82982577525E-02  0.57669271980E-02  0.13245776068E-01  0.51100000000E-03 0. -1.
         11    1    4    4    0    0  0.25344247477E-01 -0.84863182364E-01  0.75923249562E-01  0.11665629664E+00  0.51100000000E-03 0.  1.
</event>
<event>
 8    1  0.1030163E+005  0.1043930E+01  0.7957747E-01            NaN
         13   -1    0    0    0    0  0.00000000000E+00  0.00000000000E+00  0.74505805969E-08  0.10566000000E+00  0.10566000000E+00 0. -1.
     999900   -1    0    0    0    0 -0.00000000000E+00 -0.00000000000E+00 -0.74505805969E-08  0.93827000000E+00  0.93827000000E+00 0.  1.
     999902    2    1    2    0    0  0.88735995440E-02  0.61188947170E-02 -0.21491233373E-01  0.10198872307E+01  0.10196037999E+01 0.  0.
     999903    2    3    3    0    0  0.59066775591E-01  0.60439602969E-01  0.95575919084E-01  0.12905906974E+00  0.19484803994E-01 0.  0.
         14    1    1    2    0    0 -0.88735995440E-02 -0.61188947170E-02  0.21491233373E-01  0.24042769252E-01  0.00000000000E+00 0. -1.
     999901    1    3    3    0    0 -0.50193176047E-01 -0.54320708252E-01 -0.11706715246E+00  0.89082816101E+00  0.88000000000E+00 0.  1.
        -11    1    4    4    0    0  0.36876974549E-01  0.31521308011E-01  0.41503162498E-01  0.63845733835E-01  0.51100000000E-03 0. -1.
         11    1    4    4    0    0  0.22189801043E-01  0.28918294958E-01  0.54072756586E-01  0.65213335901E-01  0.51100000000E-03 0.  1.
</event>
<event>
 8    1  0.1030163E+005  0.1043930E+01  0.7957747E-01            NaN
         13   -1    0    0    0    0  0.00000000000E+00  0.00000000000E+00  0.74505805969E-08  0.10566000000E+00  0.10566000000E+00 0. -1.
     999900   -1    0    0    0    0 -0.00000000000E+00 -0.00000000000E+00 -0.74505805969E-08  0.93827000000E+00  0.93827000000E+00 0.  1.
     999902    2    1    2    0    0  0.14273736780E-01 -0.93771497814E-02  0.16506808397E-01  0.10201782585E+01  0.10199017276E+01 0.  0.
     999903    2    3    3    0    0 -0.75949196707E-01 -0.31094484253E-01  0.10039853887E+00  0.13133089098E+00  0.20803578725E-01 0.  0.
         14    1    1    2    0    0 -0.14273736780E-01  0.93771497814E-02 -0.16506808397E-01  0.23751741476E-01  0.00000000000E+00 0.  1.
     999901    1    3    3    0    0  0.90222933487E-01  0.21717334471E-01 -0.83891730472E-01  0.88884736754E+00  0.88000000000E+00 0.  1.
        -11    1    4    4    0    0 -0.55512676186E-01 -0.30299292114E-01  0.83789870704E-01  0.10497955931E+00  0.51100000000E-03 0.  1.
         11    1    4    4    0    0 -0.20436520520E-01 -0.79519213891E-03  0.16608668165E-01  0.26351331669E-01  0.51100000000E-03 0. -1.
</event>
<event>
 8    1  0.1030163E+005  0.1043930E+01  0.7957747E-01            NaN
         13   -1    0    0    0    0  0.00000000000E+00  0.00000000000E+00  0.74505805969E-08  0.10566000000E+00  0.10566000000E+00 0. -1.
     999900   -1    0    0    0    0 -0.00000000000E+00 -0.00000000000E+00 -0.74505805969E-08  0.93827000000E+00  0.93827000000E+00 0. -1.
     999902    2    1    2    0    0  0.17461316773E-01  0.11996014858E-04  0.16030305679E-01  0.10202262360E+01  0.10199508342E+01 0.  0.
     999903    2    3    3    0    0  0.85878896793E-01  0.23732024029E-01 -0.93260339912E-01  0.13051389474E+00  0.19949732858E-01 0.  0.
         14    1    1    2    0    0 -0.17461316773E-01 -0.11996014858E-04 -0.16030305679E-01  0.23703763994E-01  0.00000000000E+00 0. -1.
     999901    1    3    3    0    0 -0.68417580021E-01 -0.23720028014E-01  0.10929064559E+00  0.88971234126E+00  0.88000000000E+00 0.  1.
        -11    1    4    4    0    0  0.14916361482E-01 -0.23956632864E-03 -0.76909856995E-02  0.16791891314E-01  0.51100000000E-03 0.  1.
         11    1    4    4    0    0  0.70962535312E-01  0.23971590358E-01 -0.85569354212E-01  0.11372200343E+00  0.51100000000E-03 0. -1.
</event>
<event>
 8    1  0.1030163E+005  0.1043930E+01  0.7957747E-01            NaN
         13   -1    0    0    0    0  0.00000000000E+00  0.00000000000E+00  0.74505805969E-08  0.10566000000E+00  0.10566000000E+00 0. -1.
     999900   -1    0    0    0    0 -0.00000000000E+00 -0.00000000000E+00 -0.74505805969E-08  0.93827000000E+00  0.93827000000E+00 0. -1.
     999902    2    1    2    0    0  0.79665981916E-02 -0.24736619831E-01  0.82356042761E-02  0.10166684479E+01  0.10163028784E+01 0.  0.
     999903    2    3    3    0    0 -0.46145730124E-01  0.35894354019E-01 -0.10884564978E+00  0.12520208331E+00  0.20257174818E-01 0.  0.
         14    1    1    2    0    0 -0.79665981916E-02  0.24736619831E-01 -0.82356042761E-02  0.27261552142E-01  0.00000000000E+00 0.  1.
     999901    1    3    3    0    0  0.54112328316E-01 -0.60630973850E-01  0.11708125405E+00  0.89146636455E+00  0.88000000000E+00 0.  1.
        -11    1    4    4    0    0 -0.25145309915E-01  0.19175570954E-01 -0.78794752659E-01  0.84905025174E-01  0.51100000000E-03 0. -1.
         11    1    4    4    0    0 -0.21000420209E-01  0.16718783065E-01 -0.30050897116E-01  0.40297058139E-01  0.51100000000E-03 0.  1.
</event>
<event>
 8    1  0.1030163E+005  0.1043930E+01  0.7957747E-01            NaN
         13   -1    0    0    0    0  0.00000000000E+00  0.00000000000E+00  0.74505805969E-08  0.10566000000E+00  0.10566000000E+00 0.  1.
     999900   -1    0    0    0    0 -0.00000000000E+00 -0.00000000000E+00 -0.74505805969E-08  0.93827000000E+00  0.93827000000E+00 0. -1.
     999902    2    1    2    0    0 -0.21434850273E-01  0.15159978080E-01 -0.59821362550E-02  0.10170029932E+01  0.10166464599E+01 0.  0.
     999903    2    3    3    0    0  0.14662960548E-02  0.17707542901E-01 -0.12558963653E+00  0.12861292868E+00  0.21279603412E-01 0.  0.
         14    1    1    2    0    0  0.21434850273E-01 -0.15159978080E-01  0.59821362550E-02  0.26927006810E-01  0.00000000000E+00 0. -1.
     999901    1    3    3    0    0 -0.22901146327E-01 -0.25475648214E-02  0.11960750027E+00  0.88839006451E+00  0.88000000000E+00 0.  1.
        -11    1    4    4    0    0  0.98743628106E-02  0.48140048740E-02 -0.72680667976E-01  0.73507947205E-01  0.51100000000E-03 0.  1.
         11    1    4    4    0    0 -0.84080667558E-02  0.12893538027E-01 -0.52908968554E-01  0.55104981480E-01  0.51100000000E-03 0. -1.
</event>
<event>
 8    1  0.1030163E+005  0.1043930E+01  0.7957747E-01            NaN
         13   -1    0    0    0    0  0.00000000000E+00  0.00000000000E+00  0.74505805969E-08  0.10566000000E+00  0.10566000000E+00 0.  1.
     999900   -1    0    0    0    0 -0.00000000000E+00 -0.00000000000E+00 -0.74505805969E-08  0.93827000000E+00  0.93827000000E+00 0. -1.
     999902    2    1    2    0    0 -0.20403488190E-01 -0.93842871669E-02  0.60571416905E-02  0.10206693865E+01  0.10204043024E+01 0.  0.
     999903    2    3    3    0    0 -0.10151209868E+00  0.72134923286E-01  0.40609920904E-01  0.13251518651E+00  0.20073755129E-01 0.  0.
         14    1    1    2    0    0  0.20403488190E-01  0.93842871669E-02 -0.60571416905E-02  0.23260613521E-01  0.00000000000E+00 0. -1.
     999901    1    3    3    0    0  0.81108610488E-01 -0.81519210453E-01 -0.34552779214E-01  0.88815419997E+00  0.88000000000E+00 0. -1.
        -11    1    4    4    0    0 -0.89985222377E-01  0.62684002611E-01  0.28517704552E-01  0.11331436371E+00  0.51100000000E-03 0. -1.
         11    1    4    4    0    0 -0.11526876300E-01  0.94509206745E-02  0.12092216353E-01  0.19200822799E-01  0.51100000000E-03 0.  1.
</event>
<event>
 8    1  0.1030163E+005  0.1043930E+01  0.7957747E-01            NaN
         13   -1    0    0    0    0  0.00000000000E+00  0.00000000000E+00  0.74505805969E-08  0.10566000000E+00  0.10566000000E+00 0. -1.
     999900   -1    0    0    0    0 -0.00000000000E+00 -0.00000000000E+00 -0.74505805969E-08  0.93827000000E+00  0.93827000000E+00 0.  1.
     999902    2    1    2    0    0 -0.19910959962E-01 -0.45437512153E-02 -0.10092894500E-01  0.10211493389E+01  0.10208952021E+01 0.  0.
     999903    2    3    3    0    0  0.90078942214E-01  0.41352501019E-01 -0.81965101590E-01  0.13021170992E+00  0.20311729361E-01 0.  0.
         14    1    1    2    0    0  0.19910959962E-01  0.45437512153E-02  0.10092894500E-01  0.22780661121E-01  0.00000000000E+00 0. -1.
     999901    1    3    3    0    0 -0.10998990218E+00 -0.45896252235E-01  0.71872207089E-01  0.89093762896E+00  0.88000000000E+00 0. -1.
        -11    1    4    4    0    0  0.31717382474E-01  0.44503480046E-02 -0.23396756263E-01  0.39666954420E-01  0.51100000000E-03 0. -1.
         11    1    4    4    0    0  0.58361559740E-01  0.36902153015E-01 -0.58568345327E-01  0.90544755496E-01  0.51100000000E-03 0.  1.
</event>
<event>
 8    1  0.1030163E+005  0.1043930E+01  0.7957747E-01            NaN
         13   -1    0    0    0    0  0.00000000000E+00  0.00000000000E+00  0.74505805969E-08  0.10566000000E+00  0.10566000000E+00 0.  1.
     999900   -1    0    0    0    0 -0.00000000000E+00 -0.00000000000E+00 -0.74505805969E-08  0.93827000000E+00  0.93827000000E+00 0. -1.
     999902    2    1    2    0    0  0.34003702159E-02 -0.21133707585E-01 -0.10592576920E-01  0.10200469767E+01  0.10197673440E+01 0.  0.
     999903    2    3    3    0    0 -0.18491771279E-01  0.90022091032E-01 -0.88986091108E-01  0.12932792986E+00  0.19007013223E-01 0.  0.
         14    1    1    2    0    0 -0.34003702159E-02  0.21133707585E-01  0.10592576920E-01  0.23883023253E-01  0.00000000000E+00 0.  1.
     999901    1    3    3    0    0  0.21892141495E-01 -0.11115579862E+00  0.78393514188E-01  0.89071904689E+00  0.88000000000E+00 0. -1.
        -11    1    4    4    0    0 -0.98064615736E-02  0.70296500650E-01 -0.76744163691E-01  0.10453560386E+00  0.51100000000E-03 0.  1.
         11    1    4    4    0    0 -0.86853097051E-02  0.19725590383E-01 -0.12241927417E-01  0.24792326000E-01  0.51100000000E-03 0. -1.
</event>
<event>
 8    1  0.1030163E+005  0.1043930E+01  0.7957747E-01            NaN
         13   -1    0    0    0    0  0.00000000000E+00  0.00000000000E+00  0.74505805969E-08  0.10566000000E+00  0.10566000000E+00 0. -1.
     999900   -1    0    0    0    0 -0.00000000000E+00 -0.00000000000E+00 -0.74505805969E-08  0.93827000000E+00  0.93827000000E+00 0. -1.
     999902    2    1    2    0    0 -0.66241659809E-02 -0.16291368554E-01  0.15876270270E-01  0.10202372960E+01  0.10199621542E+01 0.  0.
     999903    2    3    3    0    0  0.91784024483E-01 -0.66256328951E-01  0.64796676046E-01  0.13199528208E+00  0.20246900728E-01 0.  0.
         14    1    1    2    0    0  0.66241659809E-02  0.16291368554E-01 -0.15876270270E-01  0.23692703982E-01  0.00000000000E+00 0.  1.
     999901    1    3    3    0    0 -0.98408190464E-01  0.49964960398E-01 -0.48920405775E-01  0.88824201393E+00  0.88000000000E+00 0. -1.
        -11    1    4    4    0    0  0.64832207257E-01 -0.36014218514E-01  0.46547852689E-01  0.87562564741E-01  0.51100000000E-03 0.  1.
         11    1    4    4    0    0  0.26951817226E-01 -0.30242110437E-01  0.18248823356E-01  0.44432717342E-01  0.51100000000E-03 0. -1.
</event>
<event>
 8    1  0.1030163E+005  0.1043930E+01  0.7957747E-01            NaN
         13   -1    0    0    0    0  0.00000000000E+00  0.00000000000E+00  0.74505805969E-08  0.10566000000E+00  0.10566000000E+00 0.  1.
     999900   -1    0    0    0    0 -0.00000000000E+00 -0.00000000000E+00 -0.74505805969E-08  0.93827000000E+00  0.93827000000E+00 0.  1.
     999902    2    1    2    0    0 -0.67654532913E-02 -0.13115343649E-01 -0.16976475195E-01  0.10214359051E+01  0.10211881922E+01 0.  0.
     999903    2    3    3    0    0  0.11982433433E+00  0.19811479977E-02  0.46514924944E-01  0.12998538131E+00  0.19255260811E-01 0.  0.
         14    1    1    2    0    0  0.67654532913E-02  0.13115343649E-01  0.16976475195E-01  0.22494094943E-01  0.00000000000E+00 0.  1.
     999901    1    3    3    0    0 -0.12658978762E+00 -0.15096491647E-01 -0.63491400139E-01  0.89145052374E+00  0.88000000000E+00 0.  1.
        -11    1    4    4    0    0  0.96346081426E-01  0.25681183067E-02  0.28892746484E-01  0.10061915602E+00  0.51100000000E-03 0. -1.
         11    1    4    4    0    0  0.23478252900E-01 -0.58697030895E-03  0.17622178460E-01  0.29366225294E-01  0.51100000000E-03 0.  1.
</event>
<event>
 8    1  0.1030163E+005  0.1043930E+01  0.7957747E-01            NaN
         13   -1    0    0    0    0  0.00000000000E+00  0.00000000000E+00  0.74505805969E-08  0.10566000000E+00  0.10566000000E+00 0.  1.
     999900   -1    0    0    0    0 -0.00000000000E+00 -0.00000000000E+00 -0.74505805969E-08  0.93827000000E+00  0.93827000000E+00 0. -1.
     999902    2    1    2    0    0  0.18711981481E-01 -0.11013049469E-01 -0.94703495173E-02  0.10202421755E+01  0.10199671483E+01 0.  0.
     999903    2    3    3    0    0  0.84028810435E-01  0.40975658164E-01 -0.91724755363E-01  0.13247255384E+00  0.19892240415E-01 0.  0.
         14    1    1    2    0    0 -0.18711981481E-01  0.11013049469E-01  0.94703495173E-02  0.23687824500E-01  0.00000000000E+00 0. -1.
     999901    1    3    3    0    0 -0.65316828954E-01 -0.51988707633E-01  0.82254405846E-01  0.88776962166E+00  0.88000000000E+00 0.  1.
        -11    1    4    4    0    0  0.14433161390E-01  0.14432832950E-01 -0.26581944986E-01  0.33518408896E-01  0.51100000000E-03 0. -1.
         11    1    4    4    0    0  0.69595649045E-01  0.26542825214E-01 -0.65142810377E-01  0.98954144942E-01  0.51100000000E-03 0.  1.
</event>
<event>
 8    1  0.1030163E+005  0.1043930E+01  0.7957747E-01            NaN
         13   -1    0    0    0    0  0.00000000000E+00  0.00000000000E+00  0.74505805969E-08  0.10566000000E+00  0.10566000000E+00 0. -1.
     999900   -1    0    0    0    0 -0.00000000000E+00 -0.00000000000E+00 -0.74505805969E-08  0.93827000000E+00  0.93827000000E+00 0.  1.
     999902    2    1    2    0    0 -0.80506257800E-02 -0.10201889249E-01 -0.21697809164E-01  0.10186379846E+01  0.10183239453E+01 0.  0.
     999903    2    3    3    0    0 -0.42083172345E-01  0.83424815091E-01  0.83332840998E-01  0.12681086490E+00  0.20147950261E-01 0.  0.
         14    1    1    2    0    0  0.80506257800E-02  0.10201889249E-01  0.21697809164E-01  0.25292015384E-01  0.00000000000E+00 0. -1.
     999901    1    3    3    0    0  0.34032546565E-01 -0.93626704340E-01 -0.10503065016E+00  0.89182711972E+00  0.88000000000E+00 0.  1.
        -11    1    4    4    0    0 -0.19794680364E-01  0.56480299790E-01  0.44705311338E-01  0.74703946468E-01  0.51100000000E-03 0.  1.
         11    1    4    4    0    0 -0.22288491981E-01  0.26944515301E-01  0.38627529660E-01  0.52106918430E-01  0.51100000000E-03 0. -1.
</event>
<event>
 8    1  0.1030163E+005  0.1043930E+01  0.7957747E-01            NaN
         13   -1    0    0    0    0  0.00000000000E+00  0.00000000000E+00  0.74505805969E-08  0.10566000000E+00  0.10566000000E+00 0.  1.
     999900   -1    0    0    0    0 -0.00000000000E+00 -0.00000000000E+00 -0.74505805969E-08  0.93827000000E+00  0.93827000000E+00 0.  1.
     999902    2    1    2    0    0  0.24265361999E-01  0.90468734759E-02  0.42205338696E-02  0.10176913526E+01  0.10173530471E+01 0.  0.
     999903    2    3    3    0    0 -0.36929006634E-01  0.93334727241E-01 -0.76631836510E-01  0.12786760663E+00  0.20063988109E-01 0.  0.
         14    1    1    2    0    0 -0.24265361999E-01 -0.90468734759E-02 -0.42205338696E-02  0.26238647426E-01  0.00000000000E+00 0. -1.
     999901    1    3    3    0    0  0.61194368632E-01 -0.84287853765E-01  0.80852370380E-01  0.88982374594E+00  0.88000000000E+00 0. -1.
        -11    1    4    4    0    0 -0.29329134747E-01  0.52370385203E-01 -0.52317978063E-01  0.79625921288E-01  0.51100000000E-03 0. -1.
         11    1    4    4    0    0 -0.75998718872E-02  0.40964342038E-01 -0.24313858447E-01  0.48241685345E-01  0.51100000000E-03 0.  1.
</event>
<event>
 8    1  0.1030163E+005  0.1043930E+01  0.7957747E-01            NaN
         13   -1    0    0    0    0  0.00000000000E+00  0.00000000000E+00  0.74505805969E-08  0.10566000000E+00  0.10566000000E+00 0.  1.
     999900   -1    0    0    0    0 -0.00000000000E+00 -0.00000000000E+00 -0.74505805969E-08  0.93827000000E+00  0.93827000000E+00 0. -1.
     999902    2    1    2    0    0  0.12326825073E-01 -0.19946253837E-01 -0.50896121535E-02  0.10199360881E+01  0.10196538216E+01 0.  0.
     999903    2    3    3    0    0 -0.91207425418E-01 -0.31292528359E-01  0.83687148646E-01  0.12935796558E+00  0.20782868631E-01 0.  0.
         14    1    1    2    0    0 -0.12326825073E-01  0.19946253837E-01  0.50896121535E-02  0.23993911944E-01  0.00000000000E+00 0. -1.
     999901    1    3    3    0    0  0.10353425049E+00  0.11346274522E-01 -0.88776760800E-01  0.89057812247E+00  0.88000000000E+00 0.  1.
        -11    1    4    4    0    0 -0.19267280252E-01 -0.15703458120E-01  0.24474377037E-01  0.34886715775E-01  0.51100000000E-03 0.  1.
         11    1    4    4    0    0 -0.71940145166E-01 -0.15589070240E-01  0.59212771610E-01  0.94471249808E-01  0.51100000000E-03 0. -1.
</event>
<event>
 8    1  0.1030163E+005  0.1043930E+01  0.7957747E-01            NaN
         13   -1    0    0    0    0  0.00000000000E+00  0.00000000000E+00  0.74505805969E-08  0.10566000000E+00  0.10566000000E+00 0. -1.
     999900   -1    0    0    0    0 -0.00000000000E+00 -0.00000000000E+00 -0.74505805969E-08  0.93827000000E+00  0.93827000000E+00 0. -1.
     999902    2    1    2    0    0 -0.27752614653E-02  0.24725948955E-01  0.95356501547E-02  0.10172841138E+01  0.10169350839E+01 0.  0.
     999903    2    3    3    0    0  0.25466276655E-01  0.11925740623E+00  0.43868626079E-01  0.13110550080E+00  0.19832695222E-01 0.  0.
         14    1    1    2    0    0  0.27752614653E-02 -0.24725948955E-01 -0.95356501547E-02  0.26645886207E-01  0.00000000000E+00 0. -1.
     999901    1    3    3    0    0 -0.28241538120E-01 -0.94531457271E-01 -0.34332975924E-01  0.88617861299E+00  0.88000000000E+00 0. -1.
        -11    1    4    4    0    0  0.16341034491E-01  0.10046244222E+00  0.30340510477E-01  0.10620988373E+00  0.51100000000E-03 0. -1.
         11    1    4    4    0    0  0.91252421636E-02  0.18794964001E-01  0.13528115601E-01  0.24895617066E-01  0.51100000000E-03 0.  1.
</event>
<event>
 8    1  0.1030163E+005  0.1043930E+01  0.7957747E-01            NaN
         13   -1    0    0    0    0  0.00000000000E+00  0.00000000000E+00  0.74505805969E-08  0.10566000000E+00  0.10566000000E+00 0. -1.
     999900   -1    0    0    0    0 -0.00000000000E+00 -0.00000000000E+00 -0.74505805969E-08  0.93827000000E+00  0.93827000000E+00 0. -1.
     999902    2    1    2    0    0 -0.72961825081E-02  0.21179171489E-01 -0.67974709592E-02  0.10205206601E+01  0.10202521357E+01 0.  0.
     999903    2    3    3    0    0  0.31997134225E-02  0.11319671320E+00  0.66315072042E-01  0.13264519823E+00  0.19321640411E-01 0.  0.
         14    1    1    2    0    0  0.72961825081E-02 -0.21179171489E-01  0.67974709592E-02  0.23409339922E-01  0.00000000000E+00 0. -1.
     999901    1    3    3    0    0 -0.10495895931E-01 -0.92017541708E-01 -0.73112543001E-01  0.88787546185E+00  0.88000000000E+00 0.  1.
        -11    1    4    4    0    0  0.63501328191E-02  0.54204964385E-01  0.22230470667E-01  0.58931802093E-01  0.51100000000E-03 0. -1.
         11    1    4    4    0    0 -0.31504193966E-02  0.58991748811E-01  0.44084601375E-01  0.73713396134E-01  0.51100000000E-03 0.  1.
</event>
<event>
 8    1  0.1030163E+005  0.1043930E+01  0.7957747E-01            NaN
         13   -1    0    0    0    0  0.00000000000E+00  0.00000000000E+00  0.74505805969E-08  0.10566000000E+00  0.10566000000E+00 0.  1.
     999900   -1    0    0    0    0 -0.00000000000E+00 -0.00000000000E+00 -0.74505805969E-08  0.93827000000E+00  0.93827000000E+00 0. -1.
     999902    2    1    2    0    0 -0.14195546154E-01  0.18172944378E-01 -0.40855934956E-02  0.10205107448E+01  0.10202419903E+01 0.  0.
     999903    2    3    3    0    0 -0.11371026254E+00  0.59372897333E-01  0.31054520682E-01  0.13324785115E+00  0.18315071310E-01 0.  0.
         14    1    1    2    0    0  0.14195546154E-01 -0.18172944378E-01  0.40855934956E-02  0.23419255159E-01  0.00000000000E+00 0.  1.
     999901    1    3    3    0    0  0.99514716382E-01 -0.41199952955E-01 -0.35140114178E-01  0.88726289369E+00  0.88000000000E+00 0.  1.
        -11    1    4    4    0    0 -0.74869446570E-01  0.29107064649E-01  0.19839777738E-01  0.82743780092E-01  0.51100000000E-03 0. -1.
         11    1    4    4    0    0 -0.38840815966E-01  0.30265832685E-01  0.11214742944E-01  0.50504071057E-01  0.51100000000E-03 0.  1.
</event>
<event>
 8    1  0.1030163E+005  0.1043930E+01  0.7957747E-01            NaN
         13   -1    0    0    0    0  0.00000000000E+00  0.00000000000E+00  0.74505805969E-08  0.10566000000E+00  0.10566000000E+00 0.  1.
     999900   -1    0    0    0    0 -0.00000000000E+00 -0.00000000000E+00 -0.74505805969E-08  0.93827000000E+00  0.93827000000E+00 0. -1.
     999902    2    1    2    0    0  0.52771745529E-03 -0.14181481546E-01  0.20468066238E-01  0.10190234820E+01  0.10187190595E+01 0.  0.
     999903    2    3    3    0    0  0.67913151375E-01  0.10487896951E+00 -0.17641405121E-01  0.12763775205E+00  0.19193285230E-01 0.  0.
         14    1    1    2    0    0 -0.52771745529E-03  0.14181481546E-01 -0.20468066238E-01  0.24906518024E-01  0.00000000000E+00 0. -1.
     999901    1    3    3    0    0 -0.67385433920E-01 -0.11906045106E+00  0.38109471358E-01  0.89138572993E+00  0.88000000000E+00 0. -1.
        -11    1    4    4    0    0  0.42790033249E-01  0.77013948072E-01 -0.18841821767E-01  0.90096673144E-01  0.51100000000E-03 0.  1.
         11    1    4    4    0    0  0.25123118127E-01  0.27865021439E-01  0.12004166467E-02  0.37541078905E-01  0.51100000000E-03 0. -1.
</event>
<event>
 8    1  0.1030163E+005  0.1043930E+01  0.7957747E-01            NaN
         13   -1    0    0    0    0  0.00000000000E+00  0.00000000000E+00  0.74505805969E-08  0.10566000000E+00  0.10566000000E+00 0.  1.
     999900   -1    0    0    0    0 -0.00000000000E+00 -0.00000000000E+00 -0.74505805969E-08  0.93827000000E+00  0.93827000000E+00 0. -1.
     999902    2    1    2    0    0 -0.10561801834E-01 -0.17486110112E-01  0.89774474952E-02  0.10216160970E+01  0.10213723803E+01 0.  0.
     999903    2    3    3    0    0  0.10211524312E+00 -0.26871361676E-01  0.76317306563E-01  0.13183024856E+00  0.20131820557E-01 0.  0.
         14    1    1    2    0    0  0.10561801834E-01  0.17486110112E-01 -0.89774474952E-02  0.22313903028E-01  0.00000000000E+00 0. -1.
     999901    1    3    3    0    0 -0.11267704496E+00  0.93852515640E-02 -0.67339859068E-01  0.88978584841E+00  0.88000000000E+00 0. -1.
        -11    1    4    4    0    0  0.21294857416E-04 -0.24350855831E-02  0.22265796250E-02  0.33389928264E-02  0.51100000000E-03 0.  1.
         11    1    4    4    0    0  0.10209394827E+00 -0.24436276093E-01  0.74090726938E-01  0.12849125574E+00  0.51100000000E-03 0. -1.
</event>
<event>
 8    1  0.1030163E+005  0.1043930E+01  0.7957747E-01            NaN
         13   -1    0    0    0    0  0.00000000000E+00  0.00000000000E+00  0.74505805969E-08  0.10566000000E+00  0.10566000000E+00 0. -1.
     999900   -1    0    0    0    0 -0.00000000000E+00 -0.00000000000E+00 -0.74505805969E-08  0.93827000000E+00  0.93827000000E+00 0.  1.
     999902    2    1    2    0    0  0.13872667062E-01 -0.17672704069E-01 -0.31823056046E-02  0.10212385384E+01  0.10209864102E+01 0.  0.
     999903    2    3    3    0    0 -0.60658292106E-01 -0.97920197883E-01 -0.62630762114E-01  0.13245923896E+00  0.18842613081E-01 0.  0.
         14    1    1    2    0    0 -0.13872667062E-01  0.17672704069E-01  0.31823056046E-02  0.22691461598E-01  0.00000000000E+00 0.  1.
     999901    1    3    3    0    0  0.74530959168E-01  0.80247493814E-01  0.59448456510E-01  0.88877929944E+00  0.88000000000E+00 0.  1.
        -11    1    4    4    0    0 -0.40663326054E-01 -0.72128917478E-01 -0.53444850980E-01  0.98553031611E-01  0.51100000000E-03 0.  1.
         11    1    4    4    0    0 -0.19994966052E-01 -0.25791280405E-01 -0.91859111341E-02  0.33906207348E-01  0.51100000000E-03 0. -1.
</event>
<event>
 8    1  0.1030163E+005  0.1043930E+01  0.7957747E-01            NaN
         13   -1    0    0    0    0  0.00000000000E+00  0.00000000000E+00  0.74505805969E-08  0.10566000000E+00  0.10566000000E+00 0.  1.
     999900   -1    0    0    0    0 -0.00000000000E+00 -0.00000000000E+00 -0.74505805969E-08  0.93827000000E+00  0.93827000000E+00 0. -1.
     999902    2    1    2    0    0  0.16660009724E-01 -0.35738896257E-02 -0.83734985160E-02  0.10249446349E+01  0.10247687839E+01 0.  0.
     999903    2    3    3    0    0 -0.10062112344E+00 -0.31399039828E-01  0.77905513720E-01  0.13254720597E+00  0.19722640795E-01 0.  0.
         14    1    1    2    0    0 -0.16660009724E-01  0.35738896257E-02  0.83734985160E-02  0.18985365113E-01  0.00000000000E+00 0.  1.
     999901    1    3    3    0    0  0.11728113316E+00  0.27825150203E-01 -0.86279012236E-01  0.89239742891E+00  0.88000000000E+00 0. -1.
        -11    1    4    4    0    0 -0.32438304691E-01 -0.74091249454E-03  0.22279158306E-01  0.39362603806E-01  0.51100000000E-03 0.  1.
         11    1    4    4    0    0 -0.68182818745E-01 -0.30658127334E-01  0.55626355414E-01  0.93184602168E-01  0.51100000000E-03 0. -1.
</event>
<event>
 8    1  0.1143248E+005  0.1043930E+01  0.7957747E-01            NaN
         13   -1    0    0    0    0  0.00000000000E+00  0.00000000000E+00  0.74505805969E-08  0.10566000000E+00  0.10566000000E+00 0.  1.
     999900   -1    0    0    0    0 -0.00000000000E+00 -0.00000000000E+00 -0.74505805969E-08  0.93827000000E+00  0.93827000000E+00 0. -1.
     999902    2    1    2    0    0 -0.21021010143E-01  0.76817965766E-02  0.58738736584E-02  0.10207913903E+01  0.10205291114E+01 0.  0.
     999903    2    3    3    0    0 -0.12359630210E+00 -0.27430603266E-01 -0.36477148446E-01  0.13312693783E+00  0.19071322138E-01 0.  0.
         14    1    1    2    0    0  0.21021010143E-01 -0.76817965766E-02 -0.58738736584E-02  0.23138609678E-01  0.00000000000E+00 0. -1.
     999901    1    3    3    0    0  0.10257529196E+00  0.35112399842E-01  0.42351022104E-01  0.88766445249E+00  0.88000000000E+00 0.  1.
        -11    1    4    4    0    0 -0.50072811439E-01 -0.17099533238E-02 -0.15759452217E-01  0.52524583206E-01  0.51100000000E-03 0. -1.
         11    1    4    4    0    0 -0.73523490665E-01 -0.25720649942E-01 -0.20717696229E-01  0.80602354625E-01  0.51100000000E-03 0.  1.
</event>
<event>
 8    1  0.1030163E+005  0.1043930E+01  0.7957747E-01            NaN
         13   -1    0    0    0    0  0.00000000000E+00  0.00000000000E+00  0.74505805969E-08  0.10566000000E+00  0.10566000000E+00 0.  1.
     999900   -1    0    0    0    0 -0.00000000000E+00 -0.00000000000E+00 -0.74505805969E-08  0.93827000000E+00  0.93827000000E+00 0.  1.
     999902    2    1    2    0    0  0.83041849222E-02  0.39180590194E-02  0.25007848791E-01  0.10172897452E+01  0.10169408648E+01 0.  0.
     999903    2    3    3    0    0  0.66845888955E-01 -0.95802958391E-01  0.51935831985E-01  0.12931647495E+00  0.19463821414E-01 0.  0.
         14    1    1    2    0    0 -0.83041849222E-02 -0.39180590194E-02 -0.25007848791E-01  0.26640254782E-01  0.00000000000E+00 0. -1.
     999901    1    3    3    0    0 -0.58541704033E-01  0.99721017410E-01 -0.26927983195E-01  0.88797327026E+00  0.88000000000E+00 0. -1.
        -11    1    4    4    0    0  0.14944601555E-01 -0.30601032823E-01  0.75139706794E-02  0.34878147913E-01  0.51100000000E-03 0.  1.
         11    1    4    4    0    0  0.51901287400E-01 -0.65201925568E-01  0.44421861306E-01  0.94438327042E-01  0.51100000000E-03 0. -1.
</event>
<event>
 8    1  0.1030163E+005  0.1043930E+01  0.7957747E-01            NaN
         13   -1    0    0    0    0  0.00000000000E+00  0.00000000000E+00  0.74505805969E-08  0.10566000000E+00  0.10566000000E+00 0. -1.
     999900   -1    0    0    0    0 -0.00000000000E+00 -0.00000000000E+00 -0.74505805969E-08  0.93827000000E+00  0.93827000000E+00 0. -1.
     999902    2    1    2    0    0  0.18148197141E-01  0.29787069962E-02  0.12654887951E-01  0.10216056648E+01  0.10213617177E+01 0.  0.
     999903    2    3    3    0    0 -0.12350033638E+00 -0.30589694363E-01 -0.11117945975E-01  0.12932975886E+00  0.20359649241E-01 0.  0.
         14    1    1    2    0    0 -0.18148197141E-01 -0.29787069962E-02 -0.12654887951E-01  0.22324335239E-01  0.00000000000E+00 0.  1.
     999901    1    3    3    0    0  0.14164853352E+00  0.33568401360E-01  0.23772833926E-01  0.89227590590E+00  0.88000000000E+00 0.  1.
        -11    1    4    4    0    0 -0.11589922016E+00 -0.24094215499E-01 -0.72601032634E-02  0.11860071953E+00  0.51100000000E-03 0. -1.
         11    1    4    4    0    0 -0.76011162236E-02 -0.64954788642E-02 -0.38578427115E-02  0.10729039328E-01  0.51100000000E-03 0.  1.
</event>
<event>
 8    1  0.1030163E+005  0.1043930E+01  0.7957747E-01            NaN
         13   -1    0    0    0    0  0.00000000000E+00  0.00000000000E+00  0.74505805969E-08  0.10566000000E+00  0.10566000000E+00 0.  1.
     999900   -1    0    0    0    0 -0.00000000000E+00 -0.00000000000E+00 -0.74505805969E-08  0.93827000000E+00  0.93827000000E+00 0. -1.
     999902    2    1    2    0    0 -0.11346196770E-01 -0.97696247569E-02 -0.18818648642E-01  0.10198816469E+01  0.10195980828E+01 0.  0.
     999903    2    3    3    0    0  0.10753114690E-01 -0.11383767709E+00 -0.63627076514E-01  0.13234216369E+00  0.19783761648E-01 0.  0.
         14    1    1    2    0    0  0.11346196770E-01  0.97696247569E-02  0.18818648642E-01  0.24048353078E-01  0.00000000000E+00 0.  1.
     999901    1    3    3    0    0 -0.22099311460E-01  0.10406805233E+00  0.44808427872E-01  0.88753948323E+00  0.88000000000E+00 0. -1.
        -11    1    4    4    0    0  0.12755903836E-01 -0.36370505719E-01 -0.21554890359E-01  0.44163346661E-01  0.51100000000E-03 0. -1.
         11    1    4    4    0    0 -0.20027891463E-02 -0.77467171369E-01 -0.42072186155E-01  0.88178817032E-01  0.51100000000E-03 0.  1.
</event>
<event>
 8    1  0.1030163E+005  0.1043930E+01  0.7957747E-01            NaN
         13   -1    0    0    0    0  0.00000000000E+00  0.00000000000E+00  0.74505805969E-08  0.10566000000E+00  0.10566000000E+00 0.  1.
     999900   -1    0    0    0    0 -0.00000000000E+00 -0.00000000000E+00 -0.74505805969E-08  0.93827000000E+00  0.93827000000E+00 0.  1.
     999902    2    1    2    0    0 -0.13189692262E-01  0.12867197294E-01  0.14006000505E-01  0.10207847889E+01  0.10205223586E+01 0.  0.
     999903    2    3    3    0    0 -0.66370569412E-01  0.84136998341E-01 -0.74577170799E-01  0.13187839983E+00  0.18602982650E-01 0.  0.
         14    1    1    2    0    0  0.13189692262E-01 -0.12867197294E-01 -0.14006000505E-01  0.23145211132E-01  0.00000000000E+00 0. -1.
     999901    1    3    3    0    0  0.53180877150E-01 -0.71269801046E-01  0.88583171304E-01  0.88890638904E+00  0.88000000000E+00 0. -1.
        -11    1    4    4    0    0 -0.52455501529E-01  0.54392802171E-01 -0.56797494143E-01  0.94532391436E-01  0.51100000000E-03 0.  1.
         11    1    4    4    0    0 -0.13915067883E-01  0.29744196170E-01 -0.17779676656E-01  0.37346008394E-01  0.51100000000E-03 0. -1.
</event>
<event>
 7    1  0.1030163E+005  0.1043930E+01  0.7957747E-01            NaN
         13   -1    0    0    0    0  0.00000000000E+00  0.00000000000E+00  0.74505805969E-08  0.10566000000E+00  0.10566000000E+00 0. -1.
     999900   -1    0    0    0    0 -0.00000000000E+00 -0.00000000000E+00 -0.74505805969E-08  0.93827000000E+00  0.93827000000E+00 0.  1.
     999903    2    1    2    0    0  0.74600910954E-01  0.73356480243E-01 -0.25496084858E-01  0.10955202983E+00  0.20127786465E-01 0.  0.
         14    1    1    2    0    0 -0.51751180756E-02  0.29070474988E-01  0.34843111978E-01  0.45671838319E-01  0.00000000000E+00 0.  1.
     999901    1    1    2    0    0 -0.69425792878E-01 -0.10242695523E+00 -0.93470271197E-02  0.88870613185E+00  0.88000000000E+00 0.  1.
        -11    1    3    3    0    0  0.45113069605E-02  0.10058201309E-01 -0.76759490311E-02  0.13442493020E-01  0.51100000000E-03 0.  1.
         11    1    3    3    0    0  0.70089603993E-01  0.63298278934E-01 -0.17820135827E-01  0.96109536810E-01  0.51100000000E-03 0. -1.
</event>
<event>
 8    1  0.1030163E+005  0.1043930E+01  0.7957747E-01            NaN
         13   -1    0    0    0    0  0.00000000000E+00  0.00000000000E+00  0.74505805969E-08  0.10566000000E+00  0.10566000000E+00 0.  1.
     999900   -1    0    0    0    0 -0.00000000000E+00 -0.00000000000E+00 -0.74505805969E-08  0.93827000000E+00  0.93827000000E+00 0. -1.
     999902    2    1    2    0    0 -0.25145944621E-02  0.21648171381E-01 -0.98967076510E-02  0.10199944337E+01  0.10197135547E+01 0.  0.
     999903    2    3    3    0    0 -0.10579042295E+00 -0.70784831892E-01  0.94424806756E-02  0.12893676948E+00  0.18259903349E-01 0.  0.
         14    1    1    2    0    0  0.25145944621E-02 -0.21648171381E-01  0.98967076510E-02  0.23935566251E-01  0.00000000000E+00 0. -1.
     999901    1    3    3    0    0  0.10327582848E+00  0.92433003273E-01 -0.19339188327E-01  0.89105766427E+00  0.88000000000E+00 0.  1.
        -11    1    4    4    0    0 -0.64715399695E-01 -0.34013250809E-01  0.10066605844E-01  0.73800961121E-01  0.51100000000E-03 0. -1.
         11    1    4    4    0    0 -0.41075023251E-01 -0.36771581083E-01 -0.62412516816E-03  0.55135808361E-01  0.51100000000E-03 0.  1.
</event>
<event>
 8    1  0.1030163E+005  0.1043930E+01  0.7957747E-01            NaN
         13   -1    0    0    0    0  0.00000000000E+00  0.00000000000E+00  0.74505805969E-08  0.10566000000E+00  0.10566000000E+00 0. -1.
     999900   -1    0    0    0    0 -0.00000000000E+00 -0.00000000000E+00 -0.74505805969E-08  0.93827000000E+00  0.93827000000E+00 0. -1.
     999902    2    1    2    0    0  0.11506702835E-01  0.99144982075E-02  0.18376092930E-01  0.10200892308E+01  0.10198105984E+01 0.  0.
     999903    2    3    3    0    0 -0.10395242265E-02  0.93924713237E-01  0.91981481705E-01  0.13294049620E+00  0.19739558896E-01 0.  0.
         14    1    1    2    0    0 -0.11506702835E-01 -0.99144982075E-02 -0.18376092930E-01  0.23840769203E-01  0.00000000000E+00 0.  1.
     999901    1    3    3    0    0  0.12546227061E-01 -0.84010215030E-01 -0.73605388775E-01  0.88714873460E+00  0.88000000000E+00 0. -1.
        -11    1    4    4    0    0  0.68634883839E-02  0.21028897228E-01  0.15688828385E-01  0.27124204109E-01  0.51100000000E-03 0. -1.
         11    1    4    4    0    0 -0.79030126105E-02  0.72895816009E-01  0.76292653320E-01  0.10581629209E+00  0.51100000000E-03 0.  1.
</event>
<event>
 8    1  0.1030163E+005  0.1043930E+01  0.7957747E-01            NaN
         13   -1    0    0    0    0  0.00000000000E+00  0.00000000000E+00  0.74505805969E-08  0.10566000000E+00  0.10566000000E+00 0.  1.
     999900   -1    0    0    0    0 -0.00000000000E+00 -0.00000000000E+00 -0.74505805969E-08  0.93827000000E+00  0.93827000000E+00 0. -1.
     999902    2    1    2    0    0  0.43834429806E-02  0.11229694906E-01 -0.21067895787E-01  0.10196570345E+01  0.10193680843E+01 0.  0.
     999903    2    3    3    0    0  0.61141480212E-01 -0.65091876400E-01 -0.94501768800E-01  0.13149095167E+00  0.19597272454E-01 0.  0.
         14    1    1    2    0    0 -0.43834429806E-02 -0.11229694906E-01  0.21067895787E-01  0.24272965475E-01  0.00000000000E+00 0.  1.
     999901    1    3    3    0    0 -0.56758037232E-01  0.76321571306E-01  0.73433873012E-01  0.88816608286E+00  0.88000000000E+00 0.  1.
        -11    1    4    4    0    0  0.32542192404E-01 -0.20924620513E-01 -0.43337139525E-01  0.58096495706E-01  0.51100000000E-03 0. -1.
         11    1    4    4    0    0  0.28599287808E-01 -0.44167255887E-01 -0.51164629274E-01  0.73394455959E-01  0.51100000000E-03 0.  1.
</event>
<event>
 8    1  0.1030163E+005  0.1043930E+01  0.7957747E-01            NaN
         13   -1    0    0    0    0  0.00000000000E+00  0.00000000000E+00  0.74505805969E-08  0.10566000000E+00  0.10566000000E+00 0.  1.
     999900   -1    0    0    0    0 -0.00000000000E+00 -0.00000000000E+00 -0.74505805969E-08  0.93827000000E+00  0.93827000000E+00 0.  1.
     999902    2    1    2    0    0 -0.60886065022E-02  0.21568963061E-01  0.60691662979E-02  0.10207109114E+01  0.10204467838E+01 0.  0.
     999903    2    3    3    0    0  0.71874204588E-01  0.10437973502E+00 -0.32700270358E-01  0.13254488350E+00  0.20923864195E-01 0.  0.
         14    1    1    2    0    0  0.60886065022E-02 -0.21568963061E-01 -0.60691662979E-02  0.23219088618E-01  0.00000000000E+00 0. -1.
     999901    1    3    3    0    0 -0.77962811091E-01 -0.82810771957E-01  0.38769436656E-01  0.88816602788E+00  0.88000000000E+00 0. -1.
        -11    1    4    4    0    0  0.32455581941E-01  0.65066802101E-01 -0.20523435135E-01  0.75554788370E-01  0.51100000000E-03 0.  1.
         11    1    4    4    0    0  0.39418622647E-01  0.39312932917E-01 -0.12176835223E-01  0.56990095131E-01  0.51100000000E-03 0. -1.
</event>
<event>
 8    1  0.1030163E+005  0.1043930E+01  0.7957747E-01            NaN
         13   -1    0    0    0    0  0.00000000000E+00  0.00000000000E+00  0.74505805969E-08  0.10566000000E+00  0.10566000000E+00 0. -1.
     999900   -1    0    0    0    0 -0.00000000000E+00 -0.00000000000E+00 -0.74505805969E-08  0.93827000000E+00  0.93827000000E+00 0.  1.
     999902    2    1    2    0    0 -0.47205434512E-02  0.14042721019E-01 -0.18370643435E-01  0.10203299558E+01  0.10200569870E+01 0.  0.
     999903    2    3    3    0    0 -0.80547197951E-01  0.70186887558E-01 -0.77214453403E-01  0.13333252465E+00  0.20035968462E-01 0.  0.
         14    1    1    2    0    0  0.47205434512E-02 -0.14042721019E-01  0.18370643435E-01  0.23600044159E-01  0.00000000000E+00 0. -1.
     999901    1    3    3    0    0  0.75826654500E-01 -0.56144166538E-01  0.58843809969E-01  0.88699743119E+00  0.88000000000E+00 0. -1.
        -11    1    4    4    0    0 -0.68745375039E-01  0.49149821570E-01 -0.58160858536E-01  0.10258936658E+00  0.51100000000E-03 0.  1.
         11    1    4    4    0    0 -0.11801822912E-01  0.21037065988E-01 -0.19053594867E-01  0.30743158064E-01  0.51100000000E-03 0. -1.
</event>
<event>
 8    1  0.1654089E+005  0.1043930E+01  0.7957747E-01            NaN
         13   -1    0    0    0    0  0.00000000000E+00  0.00000000000E+00  0.74505805969E-08  0.10566000000E+00  0.10566000000E+00 0.  1.
     999900   -1    0    0    0    0 -0.00000000000E+00 -0.00000000000E+00 -0.74505805969E-08  0.93827000000E+00  0.93827000000E+00 0. -1.
     999902    2    1    2    0    0 -0.54759363227E-02  0.29418823131E-03 -0.23618555066E-01  0.10196831740E+01  0.10193948533E+01 0.  0.
     999903    2    3    3    0    0  0.10499084757E+00 -0.70010293570E-01  0.16052892476E-01  0.12911063110E+00  0.22075788228E-01 0.  0.
         14    1    1    2    0    0  0.54759363227E-02 -0.29418823131E-03  0.23618555066E-01  0.24246825952E-01  0.00000000000E+00 0.  1.
     999901    1    3    3    0    0 -0.11046678390E+00  0.70304481801E-01 -0.39671447542E-01  0.89057254295E+00  0.88000000000E+00 0.  1.
        -11    1    4    4    0    0  0.68742590206E-01 -0.33222066630E-01  0.69601712505E-02  0.76667819352E-01  0.51100000000E-03 0. -1.
         11    1    4    4    0    0  0.36248257368E-01 -0.36788226940E-01  0.90927212258E-02  0.52442811747E-01  0.51100000000E-03 0.  1.
</event>
<event>
 8    1  0.1030163E+005  0.1043930E+01  0.7957747E-01            NaN
         13   -1    0    0    0    0  0.00000000000E+00  0.00000000000E+00  0.74505805969E-08  0.10566000000E+00  0.10566000000E+00 0. -1.
     999900   -1    0    0    0    0 -0.00000000000E+00 -0.00000000000E+00 -0.74505805969E-08  0.93827000000E+00  0.93827000000E+00 0.  1.
     999902    2    1    2    0    0 -0.13529191577E-01 -0.92697192352E-03 -0.19887126227E-01  0.10198593521E+01  0.10195752557E+01 0.  0.
     999903    2    3    3    0    0 -0.57100264185E-01  0.10905994752E+00  0.36738702106E-01  0.13013914592E+00  0.20783472892E-01 0.  0.
         14    1    1    2    0    0  0.13529191577E-01  0.92697192352E-03  0.19887126227E-01  0.24070647919E-01  0.00000000000E+00 0. -1.
     999901    1    3    3    0    0  0.43571072607E-01 -0.10998691944E+00 -0.56625828332E-01  0.88972020616E+00  0.88000000000E+00 0.  1.
        -11    1    4    4    0    0 -0.19974815002E-01  0.60519192693E-01  0.18557017042E-01  0.66379137695E-01  0.51100000000E-03 0. -1.
         11    1    4    4    0    0 -0.37125449183E-01  0.48540754826E-01  0.18181685064E-01  0.63760008226E-01  0.51100000000E-03 0.  1.
</event>
<event>
 8    1  0.1030163E+005  0.1043930E+01  0.7957747E-01            NaN
         13   -1    0    0    0    0  0.00000000000E+00  0.00000000000E+00  0.74505805969E-08  0.10566000000E+00  0.10566000000E+00 0. -1.
     999900   -1    0    0    0    0 -0.00000000000E+00 -0.00000000000E+00 -0.74505805969E-08  0.93827000000E+00  0.93827000000E+00 0.  1.
     999902    2    1    2    0    0  0.23214344387E-01  0.57021161042E-02  0.22286668678E-02  0.10199219416E+01  0.10196393382E+01 0.  0.
     999903    2    3    3    0    0 -0.70992299894E-01 -0.10470351450E+00  0.11899620927E-02  0.12803328597E+00  0.19707199529E-01 0.  0.
         14    1    1    2    0    0 -0.23214344387E-01 -0.57021161042E-02 -0.22286668678E-02  0.24008058426E-01  0.00000000000E+00 0.  1.
     999901    1    3    3    0    0  0.94206644280E-01  0.11040563060E+00  0.10387047751E-02  0.89188865561E+00  0.88000000000E+00 0.  1.
        -11    1    4    4    0    0 -0.54904738373E-01 -0.81179974318E-01  0.91729935371E-02  0.98433345252E-01  0.51100000000E-03 0.  1.
         11    1    4    4    0    0 -0.16087561521E-01 -0.23523540179E-01 -0.79830314444E-02  0.29599940715E-01  0.51100000000E-03 0. -1.
</event>
<event>
 8    1  0.1030163E+005  0.1043930E+01  0.7957747E-01            NaN
         13   -1    0    0    0    0  0.00000000000E+00  0.00000000000E+00  0.74505805969E-08  0.10566000000E+00  0.10566000000E+00 0. -1.
     999900   -1    0    0    0    0 -0.00000000000E+00 -0.00000000000E+00 -0.74505805969E-08  0.93827000000E+00  0.93827000000E+00 0.  1.
     999902    2    1    2    0    0  0.59839854244E-02  0.19360013264E-02  0.22974749997E-01  0.10201099387E+01  0.10198317958E+01 0.  0.
     999903    2    3    3    0    0  0.11866545189E+00  0.52077438933E-01  0.82298378115E-02  0.13138687212E+00  0.20030746753E-01 0.  0.
         14    1    1    2    0    0 -0.59839854244E-02 -0.19360013264E-02 -0.22974749997E-01  0.23820061295E-01  0.00000000000E+00 0.  1.
     999901    1    3    3    0    0 -0.11268146647E+00 -0.50141437607E-01  0.14744912185E-01  0.88872306659E+00  0.88000000000E+00 0.  1.
        -11    1    4    4    0    0  0.97098679160E-01  0.34005932808E-01  0.43046685638E-02  0.10297256068E+00  0.51100000000E-03 0. -1.
         11    1    4    4    0    0  0.21566772732E-01  0.18071506126E-01  0.39251692476E-02  0.28414311436E-01  0.51100000000E-03 0.  1.
</event>
<event>
 8    1  0.1030163E+005  0.1043930E+01  0.7957747E-01            NaN
         13   -1    0    0    0    0  0.00000000000E+00  0.00000000000E+00  0.74505805969E-08  0.10566000000E+00  0.10566000000E+00 0.  1.
     999900   -1    0    0    0    0 -0.00000000000E+00 -0.00000000000E+00 -0.74505805969E-08  0.93827000000E+00  0.93827000000E+00 0. -1.
     999902    2    1    2    0    0  0.11018475150E-01 -0.12081296527E-01 -0.17930887259E-01  0.10196631247E+01  0.10193743211E+01 0.  0.
     999903    2    3    3    0    0 -0.82765436398E-01  0.91602556429E-01  0.24271803909E-01  0.12762790643E+00  0.21415326973E-01 0.  0.
         14    1    1    2    0    0 -0.11018475150E-01  0.12081296527E-01  0.17930887259E-01  0.24266875331E-01  0.00000000000E+00 0.  1.
     999901    1    3    3    0    0  0.93783911549E-01 -0.10368385296E+00 -0.42202691168E-01  0.89203521823E+00  0.88000000000E+00 0. -1.
        -11    1    4    4    0    0 -0.68601242941E-01  0.74131150471E-01  0.11237260267E-01  0.10162723622E+00  0.51100000000E-03 0. -1.
         11    1    4    4    0    0 -0.14164193457E-01  0.17471405958E-01  0.13034543642E-01  0.26000670210E-01  0.51100000000E-03 0.  1.
</event>
<event>
 8    1  0.1030163E+005  0.1043930E+01  0.7957747E-01            NaN
         13   -1    0    0    0    0  0.00000000000E+00  0.00000000000E+00  0.74505805969E-08  0.10566000000E+00  0.10566000000E+00 0.  1.
     999900   -1    0    0    0    0 -0.00000000000E+00 -0.00000000000E+00 -0.74505805969E-08  0.93827000000E+00  0.93827000000E+00 0.  1.
     999902    2    1    2    0    0 -0.84076429667E-02  0.10648630241E-01  0.19453022626E-01  0.10202128780E+01  0.10199371621E+01 0.  0.
     999903    2    3    3    0    0  0.26114861495E-01 -0.14187577226E-01 -0.12248624560E+00  0.12782540814E+00  0.21288054515E-01 0.  0.
         14    1    1    2    0    0  0.84076429667E-02 -0.10648630241E-01 -0.19453022626E-01  0.23717121992E-01  0.00000000000E+00 0.  1.
     999901    1    3    3    0    0 -0.34522504462E-01  0.24836207467E-01  0.14193926823E+00  0.89238746987E+00  0.88000000000E+00 0. -1.
        -11    1    4    4    0    0  0.55396357663E-02 -0.12234470125E-01 -0.27413863125E-01  0.30531145345E-01  0.51100000000E-03 0.  1.
         11    1    4    4    0    0  0.20575225729E-01 -0.19531071009E-02 -0.95072382479E-01  0.97294262793E-01  0.51100000000E-03 0. -1.
</event>
<event>
 8    1  0.1030163E+005  0.1043930E+01  0.7957747E-01            NaN
         13   -1    0    0    0    0  0.00000000000E+00  0.00000000000E+00  0.74505805969E-08  0.10566000000E+00  0.10566000000E+00 0. -1.
     999900   -1    0    0    0    0 -0.00000000000E+00 -0.00000000000E+00 -0.74505805969E-08  0.93827000000E+00  0.93827000000E+00 0. -1.
     999902    2    1    2    0    0 -0.34562975914E-02 -0.97084047976E-02 -0.21833162325E-01  0.10197869659E+01  0.10195011377E+01 0.  0.
     999903    2    3    3    0    0  0.90524765126E-01 -0.92285289029E-01 -0.38438513002E-02  0.13075659679E+00  0.19266674281E-01 0.  0.
         14    1    1    2    0    0  0.34562975914E-02  0.97084047976E-02  0.21833162325E-01  0.24143034065E-01  0.00000000000E+00 0. -1.
     999901    1    3    3    0    0 -0.93981062717E-01  0.82576884232E-01 -0.17989311025E-01  0.88903036915E+00  0.88000000000E+00 0. -1.
        -11    1    4    4    0    0  0.43539442422E-01 -0.35067907814E-01  0.52856331506E-02  0.56157281306E-01  0.51100000000E-03 0. -1.
         11    1    4    4    0    0  0.46985322704E-01 -0.57217381215E-01 -0.91294844509E-02  0.74599315479E-01  0.51100000000E-03 0.  1.
</event>
<event>
 8    1  0.1030163E+005  0.1043930E+01  0.7957747E-01            NaN
         13   -1    0    0    0    0  0.00000000000E+00  0.00000000000E+00  0.74505805969E-08  0.10566000000E+00  0.10566000000E+00 0. -1.
     999900   -1    0    0    0    0 -0.00000000000E+00 -0.00000000000E+00 -0.74505805969E-08  0.93827000000E+00  0.93827000000E+00 0.  1.
     999902    2    1    2    0    0  0.23518764078E-01  0.15256059791E-02 -0.11162601994E-01  0.10178519744E+01  0.10175178516E+01 0.  0.
     999903    2    3    3    0    0  0.25293923851E-01  0.12055604200E+00 -0.34454139983E-01  0.12953114740E+00  0.20437429848E-01 0.  0.
         14    1    1    2    0    0 -0.23518764078E-01 -0.15256059791E-02  0.11162601994E-01  0.26078025628E-01  0.00000000000E+00 0. -1.
     999901    1    3    3    0    0 -0.17751597728E-02 -0.11903043602E+00  0.23291537990E-01  0.88832082697E+00  0.88000000000E+00 0. -1.
        -11    1    4    4    0    0  0.21910093240E-01  0.67480867332E-01 -0.26580464402E-01  0.75766099612E-01  0.51100000000E-03 0. -1.
         11    1    4    4    0    0  0.33838306108E-02  0.53075174666E-01 -0.78736755814E-02  0.53765047788E-01  0.51100000000E-03 0.  1.
</event>
<event>
 8    1  0.1030163E+005  0.1043930E+01  0.7957747E-01            NaN
         13   -1    0    0    0    0  0.00000000000E+00  0.00000000000E+00  0.74505805969E-08  0.10566000000E+00  0.10566000000E+00 0. -1.
     999900   -1    0    0    0    0 -0.00000000000E+00 -0.00000000000E+00 -0.74505805969E-08  0.93827000000E+00  0.93827000000E+00 0.  1.
     999902    2    1    2    0    0 -0.14269554956E-01  0.12099483231E-01  0.14288850995E-01  0.10203887818E+01  0.10201171879E+01 0.  0.
     999903    2    3    3    0    0  0.91706031008E-01  0.82425082381E-01  0.38682966915E-01  0.13091051469E+00  0.20911733497E-01 0.  0.
         14    1    1    2    0    0  0.14269554956E-01 -0.12099483231E-01 -0.14288850995E-01  0.23541218232E-01  0.00000000000E+00 0.  1.
     999901    1    3    3    0    0 -0.10597558596E+00 -0.70325599150E-01 -0.24394115920E-01  0.88947826708E+00  0.88000000000E+00 0.  1.
        -11    1    4    4    0    0  0.34048327555E-01  0.37169939109E-01  0.63891789829E-02  0.50813145068E-01  0.51100000000E-03 0.  1.
         11    1    4    4    0    0  0.57657703452E-01  0.45255143272E-01  0.32293787932E-01  0.80097369619E-01  0.51100000000E-03 0. -1.
</event>
<event>
 8    1  0.1030163E+005  0.1043930E+01  0.7957747E-01            NaN
         13   -1    0    0    0    0  0.00000000000E+00  0.00000000000E+00  0.74505805969E-08  0.10566000000E+00  0.10566000000E+00 0. -1.
     999900   -1    0    0    0    0 -0.00000000000E+00 -0.00000000000E+00 -0.74505805969E-08  0.93827000000E+00  0.93827000000E+00 0. -1.
     999902    2    1    2    0    0  0.40664501516E-02 -0.20785098654E-01  0.51844564493E-02  0.10221255296E+01  0.10218929314E+01 0.  0.
     999903    2    3    3    0    0  0.10990682833E+00 -0.74014413996E-01 -0.50533731626E-02  0.13412757977E+00  0.20174902241E-01 0.  0.
         14    1    1    2    0    0 -0.40664501516E-02  0.20785098654E-01 -0.51844564493E-02  0.21804470449E-01  0.00000000000E+00 0.  1.
     999901    1    3    3    0    0 -0.10584037818E+00  0.53229315342E-01  0.10237829612E-01  0.88799794978E+00  0.88000000000E+00 0. -1.
        -11    1    4    4    0    0  0.88083372641E-01 -0.51954082483E-01  0.20669511479E-02  0.10228607251E+00  0.51100000000E-03 0. -1.
         11    1    4    4    0    0  0.21823455693E-01 -0.22060331513E-01 -0.71203243105E-02  0.31841507253E-01  0.51100000000E-03 0.  1.
</event>
<event>
 8    1  0.1030163E+005  0.1043930E+01  0.7957747E-01            NaN
         13   -1    0    0    0    0  0.00000000000E+00  0.00000000000E+00  0.74505805969E-08  0.10566000000E+00  0.10566000000E+00 0. -1.
     999900   -1    0    0    0    0 -0.00000000000E+00 -0.00000000000E+00 -0.74505805969E-08  0.93827000000E+00  0.93827000000E+00 0.  1.
     999902    2    1    2    0    0  0.17785621201E-01  0.15906133235E-01 -0.22358226132E-02  0.10199647690E+01  0.10196831849E+01 0.  0.
     999903    2    3    3    0    0 -0.92651217623E-01  0.39214053267E-01  0.78518776153E-01  0.12908831303E+00  0.19406294147E-01 0.  0.
         14    1    1    2    0    0 -0.17785621201E-01 -0.15906133235E-01  0.22358226132E-02  0.23965231038E-01  0.00000000000E+00 0. -1.
     999901    1    3    3    0    0  0.11043683882E+00 -0.23307920033E-01 -0.80754598766E-01  0.89087645593E+00  0.88000000000E+00 0.  1.
        -11    1    4    4    0    0 -0.49209574473E-01  0.10481648282E-01  0.36369482689E-01  0.62084197366E-01  0.51100000000E-03 0.  1.
         11    1    4    4    0    0 -0.43441643150E-01  0.28732404986E-01  0.42149293464E-01  0.67004115667E-01  0.51100000000E-03 0. -1.
</event>
<event>
 8    1  0.1030163E+005  0.1043930E+01  0.7957747E-01            NaN
         13   -1    0    0    0    0  0.00000000000E+00  0.00000000000E+00  0.74505805969E-08  0.10566000000E+00  0.10566000000E+00 0. -1.
     999900   -1    0    0    0    0 -0.00000000000E+00 -0.00000000000E+00 -0.74505805969E-08  0.93827000000E+00  0.93827000000E+00 0. -1.
     999902    2    1    2    0    0  0.19676922073E-01  0.13529027902E-01  0.30570277238E-02  0.10198559211E+01  0.10195717427E+01 0.  0.
     999903    2    3    3    0    0 -0.88329634511E-01 -0.55109644015E-01 -0.71519708992E-01  0.12747798924E+00  0.17215451473E-01 0.  0.
         14    1    1    2    0    0 -0.19676922073E-01 -0.13529027902E-01 -0.30570277238E-02  0.24074078939E-01  0.00000000000E+00 0. -1.
     999901    1    3    3    0    0  0.10800655658E+00  0.68638671917E-01  0.74576736715E-01  0.89237793182E+00  0.88000000000E+00 0.  1.
        -11    1    4    4    0    0 -0.43232581884E-01 -0.34973328863E-01 -0.31521678603E-01  0.63922352985E-01  0.51100000000E-03 0. -1.
         11    1    4    4    0    0 -0.45097052627E-01 -0.20136315152E-01 -0.39998030388E-01  0.63555636253E-01  0.51100000000E-03 0.  1.
</event>
<event>
 8    1  0.1030163E+005  0.1043930E+01  0.7957747E-01            NaN
         13   -1    0    0    0    0  0.00000000000E+00  0.00000000000E+00  0.74505805969E-08  0.10566000000E+00  0.10566000000E+00 0.  1.
     999900   -1    0    0    0    0 -0.00000000000E+00 -0.00000000000E+00 -0.74505805969E-08  0.93827000000E+00  0.93827000000E+00 0. -1.
     999902    2    1    2    0    0  0.12476693707E-01  0.98451908067E-02 -0.17332103067E-01  0.10204141019E+01  0.10201430987E+01 0.  0.
     999903    2    3    3    0    0  0.10753132525E+00 -0.63461617879E-01  0.31925513069E-01  0.13089986145E+00  0.22916642170E-01 0.  0.
         14    1    1    2    0    0 -0.12476693707E-01 -0.98451908067E-02  0.17332103067E-01  0.23515898124E-01  0.00000000000E+00 0.  1.
     999901    1    3    3    0    0 -0.95054631543E-01  0.73306808686E-01 -0.49257616136E-01  0.88951424043E+00  0.88000000000E+00 0. -1.
        -11    1    4    4    0    0  0.96518930367E-01 -0.54454802025E-01  0.35227560121E-01  0.11628616210E+00  0.51100000000E-03 0.  1.
         11    1    4    4    0    0  0.11012394883E-01 -0.90068158546E-02 -0.33020470520E-02  0.14613699348E-01  0.51100000000E-03 0. -1.
</event>
<event>
 8    1  0.1030163E+005  0.1043930E+01  0.7957747E-01            NaN
         13   -1    0    0    0    0  0.00000000000E+00  0.00000000000E+00  0.74505805969E-08  0.10566000000E+00  0.10566000000E+00 0.  1.
     999900   -1    0    0    0    0 -0.00000000000E+00 -0.00000000000E+00 -0.74505805969E-08  0.93827000000E+00  0.93827000000E+00 0. -1.
     999902    2    1    2    0    0  0.19177105765E-01 -0.21192405086E-02  0.17588955583E-01  0.10178220716E+01  0.10174871722E+01 0.  0.
     999903    2    3    3    0    0  0.63994043485E-01  0.11063171909E+00  0.93107312576E-02  0.12945848288E+00  0.18390057177E-01 0.  0.
         14    1    1    2    0    0 -0.19177105765E-01  0.21192405086E-02 -0.17588955583E-01  0.26107928381E-01  0.00000000000E+00 0. -1.
     999901    1    3    3    0    0 -0.44816937720E-01 -0.11275095960E+00  0.82782243257E-02  0.88836358874E+00  0.88000000000E+00 0.  1.
        -11    1    4    4    0    0  0.35118626677E-01  0.42776814215E-01  0.26151001496E-02  0.55410050026E-01  0.51100000000E-03 0.  1.
         11    1    4    4    0    0  0.28875416808E-01  0.67854904875E-01  0.66956311080E-02  0.74048432855E-01  0.51100000000E-03 0. -1.
</event>
<event>
 8    1  0.1030163E+005  0.1043930E+01  0.7957747E-01            NaN
         13   -1    0    0    0    0  0.00000000000E+00  0.00000000000E+00  0.74505805969E-08  0.10566000000E+00  0.10566000000E+00 0. -1.
     999900   -1    0    0    0    0 -0.00000000000E+00 -0.00000000000E+00 -0.74505805969E-08  0.93827000000E+00  0.93827000000E+00 0.  1.
     999902    2    1    2    0    0  0.95503251582E-03 -0.21822736383E-01 -0.92646245363E-02  0.10202028599E+01  0.10199269082E+01 0.  0.
     999903    2    3    3    0    0 -0.11784288042E+00 -0.11136079947E-01  0.50248341920E-01  0.13016412931E+00  0.20170472240E-01 0.  0.
         14    1    1    2    0    0 -0.95503251582E-03  0.21822736383E-01  0.92646245363E-02  0.23727140118E-01  0.00000000000E+00 0. -1.
     999901    1    3    3    0    0  0.11879791294E+00 -0.10686656437E-01 -0.59512966457E-01  0.89003873057E+00  0.88000000000E+00 0.  1.
        -11    1    4    4    0    0 -0.46137204060E-01 -0.70810789387E-02  0.96688239146E-02  0.47671066217E-01  0.51100000000E-03 0.  1.
         11    1    4    4    0    0 -0.71705676362E-01 -0.40550010081E-02  0.40579518006E-01  0.82493063092E-01  0.51100000000E-03 0. -1.
</event>
<event>
 8    1  0.1030163E+005  0.1043930E+01  0.7957747E-01            NaN
         13   -1    0    0    0    0  0.00000000000E+00  0.00000000000E+00  0.74505805969E-08  0.10566000000E+00  0.10566000000E+00 0. -1.
     999900   -1    0    0    0    0 -0.00000000000E+00 -0.00000000000E+00 -0.74505805969E-08  0.93827000000E+00  0.93827000000E+00 0. -1.
     999902    2    1    2    0    0  0.21116163513E-01 -0.72200574395E-02 -0.10703093740E-01  0.10191796908E+01  0.10188791215E+01 0.  0.
     999903    2    3    3    0    0 -0.64734514761E-01  0.10799701901E+00 -0.16986935047E-03  0.12746434243E+00  0.19829680280E-01 0.  0.
         14    1    1    2    0    0 -0.21116163513E-01  0.72200574395E-02  0.10703093740E-01  0.24750309222E-01  0.00000000000E+00 0. -1.
     999901    1    3    3    0    0  0.85850678275E-01 -0.11521707644E+00 -0.10533224390E-01  0.89171534835E+00  0.88000000000E+00 0. -1.
        -11    1    4    4    0    0 -0.28236758553E-01  0.51101446973E-01 -0.97387264329E-02  0.59192705039E-01  0.51100000000E-03 0.  1.
         11    1    4    4    0    0 -0.36497756208E-01  0.56895572032E-01  0.95688570824E-02  0.68271637391E-01  0.51100000000E-03 0. -1.
</event>
<event>
 8    1  0.1147999E+005  0.1043930E+01  0.7957747E-01            NaN
         13   -1    0    0    0    0  0.00000000000E+00  0.00000000000E+00  0.74505805969E-08  0.10566000000E+00  0.10566000000E+00 0. -1.
     999900   -1    0    0    0    0 -0.00000000000E+00 -0.00000000000E+00 -0.74505805969E-08  0.93827000000E+00  0.93827000000E+00 0. -1.
     999902    2    1    2    0    0  0.30719296898E-02 -0.27022882207E-02  0.23647887372E-01  0.10199307981E+01  0.10196484057E+01 0.  0.
     999903    2    3    3    0    0 -0.11123618922E+00 -0.31408483105E-01  0.59133456826E-01  0.13136475257E+00  0.19998747429E-01 0.  0.
         14    1    1    2    0    0 -0.30719296898E-02  0.27022882207E-02 -0.23647887372E-01  0.23999201879E-01  0.00000000000E+00 0.  1.
     999901    1    3    3    0    0  0.11430811891E+00  0.28706194885E-01 -0.35485569454E-01  0.88856604555E+00  0.88000000000E+00 0. -1.
        -11    1    4    4    0    0 -0.74182634296E-01 -0.23944955108E-01  0.49548047933E-01  0.92367171014E-01  0.51100000000E-03 0. -1.
         11    1    4    4    0    0 -0.37053554920E-01 -0.74635279968E-02  0.95854088935E-02  0.38997581553E-01  0.51100000000E-03 0.  1.
</event>
<event>
 8    1  0.1030163E+005  0.1043930E+01  0.7957747E-01            NaN
         13   -1    0    0    0    0  0.00000000000E+00  0.00000000000E+00  0.74505805969E-08  0.10566000000E+00  0.10566000000E+00 0. -1.
     999900   -1    0    0    0    0 -0.00000000000E+00 -0.00000000000E+00 -0.74505805969E-08  0.93827000000E+00  0.93827000000E+00 0. -1.
     999902    2    1    2    0    0 -0.14951829795E-01  0.13592409477E-01 -0.19942409052E-01  0.10155396761E+01  0.10151427601E+01 0.  0.
     999903    2    3    3    0    0 -0.69154534908E-01  0.48029501947E-01 -0.96377006168E-01  0.12989522479E+00  0.22249929221E-01 0.  0.
         14    1    1    2    0    0  0.14951829795E-01 -0.13592409477E-01  0.19942409052E-01  0.28390323852E-01  0.00000000000E+00 0.  1.
     999901    1    3    3    0    0  0.54202705113E-01 -0.34437092470E-01  0.76434597116E-01  0.88564445135E+00  0.88000000000E+00 0.  1.
        -11    1    4    4    0    0 -0.58851480184E-01  0.30836295351E-01 -0.67272852600E-01  0.94553009729E-01  0.51100000000E-03 0.  1.
         11    1    4    4    0    0 -0.10303054724E-01  0.17193206596E-01 -0.29104153568E-01  0.35342215064E-01  0.51100000000E-03 0. -1.
</event>
<event>
 8    1  0.1030163E+005  0.1043930E+01  0.7957747E-01            NaN
         13   -1    0    0    0    0  0.00000000000E+00  0.00000000000E+00  0.74505805969E-08  0.10566000000E+00  0.10566000000E+00 0. -1.
     999900   -1    0    0    0    0 -0.00000000000E+00 -0.00000000000E+00 -0.74505805969E-08  0.93827000000E+00  0.93827000000E+00 0.  1.
     999902    2    1    2    0    0  0.14521905115E-01 -0.88995336594E-02 -0.16135414805E-01  0.10204685627E+01  0.10201988279E+01 0.  0.
     999903    2    3    3    0    0  0.97244965239E-01  0.80696748103E-01  0.30086154528E-01  0.13085795587E+00  0.15813902139E-01 0.  0.
         14    1    1    2    0    0 -0.14521905115E-01  0.88995336594E-02  0.16135414805E-01  0.23461437263E-01  0.00000000000E+00 0.  1.
     999901    1    3    3    0    0 -0.82723060125E-01 -0.89596281763E-01 -0.46221569333E-01  0.88961060687E+00  0.88000000000E+00 0.  1.
        -11    1    4    4    0    0  0.73673802377E-01  0.55839831535E-01  0.16021318463E-01  0.93823556258E-01  0.51100000000E-03 0.  1.
         11    1    4    4    0    0  0.23571162862E-01  0.24856916568E-01  0.14064836065E-01  0.37034399610E-01  0.51100000000E-03 0. -1.
</event>
<event>
 8    1  0.1030163E+005  0.1043930E+01  0.7957747E-01            NaN
         13   -1    0    0    0    0  0.00000000000E+00  0.00000000000E+00  0.74505805969E-08  0.10566000000E+00  0.10566000000E+00 0.  1.
     999900   -1    0    0    0    0 -0.00000000000E+00 -0.00000000000E+00 -0.74505805969E-08  0.93827000000E+00  0.93827000000E+00 0.  1.
     999902    2    1    2    0    0  0.22134705412E-01  0.20622633646E-02  0.63907679218E-02  0.10207990677E+01  0.10205369648E+01 0.  0.
     999903    2    3    3    0    0  0.74518971209E-01  0.48420131278E-01  0.97331519740E-01  0.13335138838E+00  0.20287480465E-01 0.  0.
         14    1    1    2    0    0 -0.22134705412E-01 -0.20622633646E-02 -0.63907679218E-02  0.23130932287E-01  0.00000000000E+00 0. -1.
     999901    1    3    3    0    0 -0.52384265798E-01 -0.46357867913E-01 -0.90940751818E-01  0.88744767934E+00  0.88000000000E+00 0.  1.
        -11    1    4    4    0    0  0.74687678938E-01  0.43993822164E-01  0.93036155963E-01  0.12716010857E+00  0.51100000000E-03 0.  1.
         11    1    4    4    0    0 -0.16870772861E-03  0.44263091138E-02  0.42953637772E-02  0.61912798069E-02  0.51100000000E-03 0. -1.
</event>
<event>
 8    1  0.1030163E+005  0.1043930E+01  0.7957747E-01            NaN
         13   -1    0    0    0    0  0.00000000000E+00  0.00000000000E+00  0.74505805969E-08  0.10566000000E+00  0.10566000000E+00 0.  1.
     999900   -1    0    0    0    0 -0.00000000000E+00 -0.00000000000E+00 -0.74505805969E-08  0.93827000000E+00  0.93827000000E+00 0. -1.
     999902    2    1    2    0    0  0.14373811648E-01 -0.25033850791E-01  0.51770296964E-02  0.10146025081E+01  0.10141785580E+01 0.  0.
     999903    2    3    3    0    0 -0.10491375062E+00 -0.65531301791E-01 -0.81743393768E-02  0.12553118072E+00  0.19748694279E-01 0.  0.
         14    1    1    2    0    0 -0.14373811648E-01  0.25033850791E-01 -0.51770296964E-02  0.29327491935E-01  0.00000000000E+00 0.  1.
     999901    1    3    3    0    0  0.11928756227E+00  0.40497451000E-01  0.13351369073E-01  0.88907132734E+00  0.88000000000E+00 0.  1.
        -11    1    4    4    0    0 -0.49997475711E-01 -0.33007511083E-01  0.57999417684E-02  0.60192556109E-01  0.51100000000E-03 0.  1.
         11    1    4    4    0    0 -0.54916274907E-01 -0.32523790708E-01 -0.13974281145E-01  0.65338624612E-01  0.51100000000E-03 0. -1.
</event>
<event>
 8    1  0.1030163E+005  0.1043930E+01  0.7957747E-01            NaN
         13   -1    0    0    0    0  0.00000000000E+00  0.00000000000E+00  0.74505805969E-08  0.10566000000E+00  0.10566000000E+00 0. -1.
     999900   -1    0    0    0    0 -0.00000000000E+00 -0.00000000000E+00 -0.74505805969E-08  0.93827000000E+00  0.93827000000E+00 0. -1.
     999902    2    1    2    0    0  0.18478709222E-01 -0.15102432689E-01 -0.44384401069E-02  0.10196556119E+01  0.10193666273E+01 0.  0.
     999903    2    3    3    0    0 -0.49481784275E-01  0.19354672048E-01 -0.11618220596E+00  0.12932275843E+00  0.20075371996E-01 0.  0.
         14    1    1    2    0    0 -0.18478709222E-01  0.15102432689E-01  0.44384401069E-02  0.24274388112E-01  0.00000000000E+00 0.  1.
     999901    1    3    3    0    0  0.67960493497E-01 -0.34457104736E-01  0.11174376585E+00  0.89033285346E+00  0.88000000000E+00 0.  1.
        -11    1    4    4    0    0 -0.30843541203E-01  0.14459093601E-02 -0.66286085730E-01  0.73126745929E-01  0.51100000000E-03 0. -1.
         11    1    4    4    0    0 -0.18638243072E-01  0.17908762688E-01 -0.49896120230E-01  0.56196012499E-01  0.51100000000E-03 0.  1.
</event>
<event>
 8    1  0.1030163E+005  0.1043930E+01  0.7957747E-01            NaN
         13   -1    0    0    0    0  0.00000000000E+00  0.00000000000E+00  0.74505805969E-08  0.10566000000E+00  0.10566000000E+00 0. -1.
     999900   -1    0    0    0    0 -0.00000000000E+00 -0.00000000000E+00 -0.74505805969E-08  0.93827000000E+00  0.93827000000E+00 0. -1.
     999902    2    1    2    0    0  0.80241922860E-02 -0.21020282422E-01 -0.73951847277E-02  0.10202460668E+01  0.10199711310E+01 0.  0.
     999903    2    3    3    0    0 -0.32017711194E-01 -0.11719706134E+00  0.50791456072E-01  0.13219257065E+00  0.11611145932E-01 0.  0.
         14    1    1    2    0    0 -0.80241922860E-02  0.21020282422E-01  0.73951847277E-02  0.23683933206E-01  0.00000000000E+00 0. -1.
     999901    1    3    3    0    0  0.40041903480E-01  0.96176778916E-01 -0.58186640800E-01  0.88805349614E+00  0.88000000000E+00 0. -1.
        -11    1    4    4    0    0 -0.13377516455E-01 -0.38471585803E-01  0.22160766740E-01  0.46372206808E-01  0.51100000000E-03 0. -1.
         11    1    4    4    0    0 -0.18640194738E-01 -0.78725475536E-01  0.28630689332E-01  0.85820363847E-01  0.51100000000E-03 0.  1.
</event>
<event>
 8    1  0.1030163E+005  0.1043930E+01  0.7957747E-01            NaN
         13   -1    0    0    0    0  0.00000000000E+00  0.00000000000E+00  0.74505805969E-08  0.10566000000E+00  0.10566000000E+00 0. -1.
     999900   -1    0    0    0    0 -0.00000000000E+00 -0.00000000000E+00 -0.74505805969E-08  0.93827000000E+00  0.93827000000E+00 0. -1.
     999902    2    1    2    0    0  0.17155170375E-01  0.15098969529E-01  0.82387999786E-02  0.10196368615E+01  0.10193474250E+01 0.  0.
     999903    2    3    3    0    0 -0.12299249874E+00 -0.23614030512E-01 -0.13946347092E-01  0.12743046934E+00  0.18953805300E-01 0.  0.
         14    1    1    2    0    0 -0.17155170375E-01 -0.15098969529E-01 -0.82387999786E-02  0.24293138466E-01  0.00000000000E+00 0. -1.
     999901    1    3    3    0    0  0.14014766911E+00  0.38713000042E-01  0.22185147071E-01  0.89220639220E+00  0.88000000000E+00 0. -1.
        -11    1    4    4    0    0 -0.93667594066E-01 -0.18667512950E-01 -0.18657045311E-01  0.97316189191E-01  0.51100000000E-03 0.  1.
         11    1    4    4    0    0 -0.29324904671E-01 -0.49465175626E-02  0.47106982189E-02  0.30114280145E-01  0.51100000000E-03 0. -1.
</event>
<event>
 8    1  0.1030163E+005  0.1043930E+01  0.7957747E-01            NaN
         13   -1    0    0    0    0  0.00000000000E+00  0.00000000000E+00  0.74505805969E-08  0.10566000000E+00  0.10566000000E+00 0.  1.
     999900   -1    0    0    0    0 -0.00000000000E+00 -0.00000000000E+00 -0.74505805969E-08  0.93827000000E+00  0.93827000000E+00 0.  1.
     999902    2    1    2    0    0 -0.22745537370E-01  0.66605849435E-02  0.30104646328E-02  0.10200388770E+01  0.10197590523E+01 0.  0.
     999903    2    3    3    0    0  0.51984480055E-01 -0.86418107664E-01  0.77751036166E-01  0.12884059850E+00  0.19601038205E-01 0.  0.
         14    1    1    2    0    0  0.22745537370E-01 -0.66605849435E-02 -0.30104646328E-02  0.23891123024E-01  0.00000000000E+00 0. -1.
     999901    1    3    3    0    0 -0.74730017425E-01  0.93078692607E-01 -0.74740571534E-01  0.89119827847E+00  0.88000000000E+00 0. -1.
        -11    1    4    4    0    0  0.22545357891E-01 -0.31013552512E-01  0.40955447131E-01  0.56104753564E-01  0.51100000000E-03 0.  1.
         11    1    4    4    0    0  0.29439122165E-01 -0.55404555152E-01  0.36795589036E-01  0.72735844938E-01  0.51100000000E-03 0. -1.
</event>
<event>
 8    1  0.1030163E+005  0.1043930E+01  0.7957747E-01            NaN
         13   -1    0    0    0    0  0.00000000000E+00  0.00000000000E+00  0.74505805969E-08  0.10566000000E+00  0.10566000000E+00 0.  1.
     999900   -1    0    0    0    0 -0.00000000000E+00 -0.00000000000E+00 -0.74505805969E-08  0.93827000000E+00  0.93827000000E+00 0.  1.
     999902    2    1    2    0    0  0.32211192643E-02 -0.17878339272E-01 -0.10857171930E-01  0.10227666164E+01  0.10225476335E+01 0.  0.
     999903    2    3    3    0    0  0.53007735036E-01 -0.12093475765E+00 -0.23223203164E-01  0.13526886921E+00  0.17980940757E-01 0.  0.
         14    1    1    2    0    0 -0.32211192643E-02  0.17878339272E-01  0.10857171930E-01  0.21163383632E-01  0.00000000000E+00 0.  1.
     999901    1    3    3    0    0 -0.49786615771E-01  0.10305641838E+00  0.12366031234E-01  0.88749774716E+00  0.88000000000E+00 0. -1.
        -11    1    4    4    0    0  0.23685635908E-01 -0.65309608315E-01 -0.43263793687E-02  0.69608425970E-01  0.51100000000E-03 0. -1.
         11    1    4    4    0    0  0.29322099128E-01 -0.55625149338E-01 -0.18896823796E-01  0.65660443241E-01  0.51100000000E-03 0.  1.
</event>
<event>
 8    1  0.1030163E+005  0.1043930E+01  0.7957747E-01            NaN
         13   -1    0    0    0    0  0.00000000000E+00  0.00000000000E+00  0.74505805969E-08  0.10566000000E+00  0.10566000000E+00 0.  1.
     999900   -1    0    0    0    0 -0.00000000000E+00 -0.00000000000E+00 -0.74505805969E-08  0.93827000000E+00  0.93827000000E+00 0. -1.
     999902    2    1    2    0    0 -0.22493225888E-01 -0.70859906021E-02  0.28420100657E-02  0.10201764004E+01  0.10198998257E+01 0.  0.
     999903    2    3    3    0    0 -0.75908604310E-01 -0.10635957779E+00 -0.13153333996E-01  0.13284089518E+00  0.19980421404E-01 0.  0.
         14    1    1    2    0    0  0.22493225888E-01  0.70859906021E-02 -0.28420100657E-02  0.23753599620E-01  0.00000000000E+00 0.  1.
     999901    1    3    3    0    0  0.53415378422E-01  0.99273587189E-01  0.15995344062E-01  0.88733550520E+00  0.88000000000E+00 0.  1.
        -11    1    4    4    0    0 -0.56089776323E-01 -0.74515179614E-01 -0.55143854538E-03  0.93269181439E-01  0.51100000000E-03 0. -1.
         11    1    4    4    0    0 -0.19818827987E-01 -0.31844398178E-01 -0.12601895451E-01  0.39571713736E-01  0.51100000000E-03 0.  1.
</event>
<event>
 8    1  0.1030163E+005  0.1043930E+01  0.7957747E-01            NaN
         13   -1    0    0    0    0  0.00000000000E+00  0.00000000000E+00  0.74505805969E-08  0.10566000000E+00  0.10566000000E+00 0.  1.
     999900   -1    0    0    0    0 -0.00000000000E+00 -0.00000000000E+00 -0.74505805969E-08  0.93827000000E+00  0.93827000000E+00 0.  1.
     999902    2    1    2    0    0 -0.72601179393E-02  0.54187255604E-02 -0.21999560252E-01  0.10201381411E+01  0.10198606642E+01 0.  0.
     999903    2    3    3    0    0 -0.32253528126E-01 -0.12441449671E+00 -0.18291405505E-01  0.13025326844E+00  0.10586848217E-01 0.  0.
         14    1    1    2    0    0  0.72601179393E-02 -0.54187255604E-02  0.21999560252E-01  0.23791858912E-01  0.00000000000E+00 0. -1.
     999901    1    3    3    0    0  0.24993410186E-01  0.12983322227E+00 -0.37081547471E-02  0.88988487265E+00  0.88000000000E+00 0. -1.
        -11    1    4    4    0    0 -0.31794189868E-01 -0.10929092219E+00 -0.16022892181E-01  0.11494507549E+00  0.51100000000E-03 0.  1.
         11    1    4    4    0    0 -0.45933825765E-03 -0.15123574517E-01 -0.22685133238E-02  0.15308192954E-01  0.51100000000E-03 0. -1.
</event>
<event>
 8    1  0.1030163E+005  0.1043930E+01  0.7957747E-01            NaN
         13   -1    0    0    0    0  0.00000000000E+00  0.00000000000E+00  0.74505805969E-08  0.10566000000E+00  0.10566000000E+00 0. -1.
     999900   -1    0    0    0    0 -0.00000000000E+00 -0.00000000000E+00 -0.74505805969E-08  0.93827000000E+00  0.93827000000E+00 0.  1.
     999902    2    1    2    0    0  0.30270393130E-02  0.13820375286E-01  0.13666835335E-01  0.10242590029E+01  0.10240700937E+01 0.  0.
     999903    2    3    3    0    0  0.32428792512E-01 -0.11780829488E+00 -0.45718732521E-01  0.13200499443E+00  0.20117035717E-01 0.  0.
         14    1    1    2    0    0 -0.30270393130E-02 -0.13820375286E-01 -0.13666835335E-01  0.19670997131E-01  0.00000000000E+00 0.  1.
     999901    1    3    3    0    0 -0.29401753199E-01  0.13162867016E+00  0.59385567856E-01  0.89225400844E+00  0.88000000000E+00 0. -1.
        -11    1    4    4    0    0  0.69711792911E-02 -0.34699279347E-01 -0.41001831273E-02  0.35632989638E-01  0.51100000000E-03 0.  1.
         11    1    4    4    0    0  0.25457613221E-01 -0.83109015532E-01 -0.41618549394E-01  0.96372004795E-01  0.51100000000E-03 0. -1.
</event>
<event>
 8    1  0.1030163E+005  0.1043930E+01  0.7957747E-01            NaN
         13   -1    0    0    0    0  0.00000000000E+00  0.00000000000E+00  0.74505805969E-08  0.10566000000E+00  0.10566000000E+00 0. -1.
     999900   -1    0    0    0    0 -0.00000000000E+00 -0.00000000000E+00 -0.74505805969E-08  0.93827000000E+00  0.93827000000E+00 0.  1.
     999902    2    1    2    0    0  0.26158012398E-02 -0.63818681850E-02  0.20742184175E-01  0.10220711606E+01  0.10218373884E+01 0.  0.
     999903    2    3    3    0    0 -0.10726037021E+00  0.28697874018E-01  0.70580245708E-01  0.13314642035E+00  0.20446104195E-01 0.  0.
         14    1    1    2    0    0 -0.26158012398E-02  0.63818681850E-02 -0.20742184175E-01  0.21858839448E-01  0.00000000000E+00 0.  1.
     999901    1    3    3    0    0  0.10987617145E+00 -0.35079742203E-01 -0.49838061533E-01  0.88892474020E+00  0.88000000000E+00 0.  1.
        -11    1    4    4    0    0 -0.54045311851E-01  0.53340412998E-02  0.40164567424E-01  0.67548510916E-01  0.51100000000E-03 0. -1.
         11    1    4    4    0    0 -0.53215058361E-01  0.23363832718E-01  0.30415678285E-01  0.65597909434E-01  0.51100000000E-03 0.  1.
</event>
<event>
 8    1  0.1030163E+005  0.1043930E+01  0.7957747E-01            NaN
         13   -1    0    0    0    0  0.00000000000E+00  0.00000000000E+00  0.74505805969E-08  0.10566000000E+00  0.10566000000E+00 0. -1.
     999900   -1    0    0    0    0 -0.00000000000E+00 -0.00000000000E+00 -0.74505805969E-08  0.93827000000E+00  0.93827000000E+00 0.  1.
     999902    2    1    2    0    0 -0.23496890343E-01 -0.85147352793E-03  0.45414254349E-02  0.10199831128E+01  0.10197019648E+01 0.  0.
     999903    2    3    3    0    0  0.31944655294E-01 -0.63286754388E-01 -0.10685863751E+00  0.12903872433E+00  0.14371836467E-01 0.  0.
         14    1    1    2    0    0  0.23496890343E-01  0.85147352793E-03 -0.45414254349E-02  0.23946887229E-01  0.00000000000E+00 0.  1.
     999901    1    3    3    0    0 -0.55441545637E-01  0.62435280860E-01  0.11140006294E+00  0.89094438845E+00  0.88000000000E+00 0. -1.
        -11    1    4    4    0    0  0.29453807027E-01 -0.46055344990E-01 -0.85404537117E-01  0.10140422886E+00  0.51100000000E-03 0.  1.
         11    1    4    4    0    0  0.24908482672E-02 -0.17231409398E-01 -0.21454100388E-01  0.27634495462E-01  0.51100000000E-03 0. -1.
</event>
<event>
 8    1  0.1030163E+005  0.1043930E+01  0.7957747E-01            NaN
         13   -1    0    0    0    0  0.00000000000E+00  0.00000000000E+00  0.74505805969E-08  0.10566000000E+00  0.10566000000E+00 0.  1.
     999900   -1    0    0    0    0 -0.00000000000E+00 -0.00000000000E+00 -0.74505805969E-08  0.93827000000E+00  0.93827000000E+00 0.  1.
     999902    2    1    2    0    0  0.27081030964E-02 -0.20489844338E-01  0.12261825677E-01  0.10198983560E+01  0.10196151905E+01 0.  0.
     999903    2    3    3    0    0 -0.10522503754E+00  0.21101721652E-02 -0.72178381176E-01  0.12900528044E+00  0.18864843457E-01 0.  0.
         14    1    1    2    0    0 -0.27081030964E-02  0.20489844338E-01 -0.12261825677E-01  0.24031643978E-01  0.00000000000E+00 0. -1.
     999901    1    3    3    0    0  0.10793314064E+00 -0.22600016503E-01  0.84440206853E-01  0.89089307559E+00  0.88000000000E+00 0. -1.
        -11    1    4    4    0    0 -0.21059105685E-01  0.66457587730E-02 -0.20493355547E-01  0.30131226070E-01  0.51100000000E-03 0.  1.
         11    1    4    4    0    0 -0.84165931858E-01 -0.45355866078E-02 -0.51685025629E-01  0.98874054365E-01  0.51100000000E-03 0. -1.
</event>
<event>
 8    1  0.1030163E+005  0.1043930E+01  0.7957747E-01            NaN
         13   -1    0    0    0    0  0.00000000000E+00  0.00000000000E+00  0.74505805969E-08  0.10566000000E+00  0.10566000000E+00 0.  1.
     999900   -1    0    0    0    0 -0.00000000000E+00 -0.00000000000E+00 -0.74505805969E-08  0.93827000000E+00  0.93827000000E+00 0. -1.
     999902    2    1    2    0    0 -0.53559952736E-02  0.21441058329E-01 -0.95218412316E-02  0.10198661032E+01  0.10195821680E+01 0.  0.
     999903    2    3    3    0    0  0.62972019522E-01  0.53844521934E-01 -0.10063385945E+00  0.13193586839E+00  0.20376258655E-01 0.  0.
         14    1    1    2    0    0  0.53559952736E-02 -0.21441058329E-01  0.95218412316E-02  0.24063896777E-01  0.00000000000E+00 0.  1.
     999901    1    3    3    0    0 -0.68328014796E-01 -0.32403463605E-01  0.91112018215E-01  0.88793023483E+00  0.88000000000E+00 0.  1.
        -11    1    4    4    0    0  0.22333727617E-01  0.18463915353E-01 -0.21025296406E-01  0.35805527079E-01  0.51100000000E-03 0.  1.
         11    1    4    4    0    0  0.40638291905E-01  0.35380606582E-01 -0.79608563041E-01  0.96130341316E-01  0.51100000000E-03 0. -1.
</event>
<event>
 8    1  0.1030163E+005  0.1043930E+01  0.7957747E-01            NaN
         13   -1    0    0    0    0  0.00000000000E+00  0.00000000000E+00  0.74505805969E-08  0.10566000000E+00  0.10566000000E+00 0. -1.
     999900   -1    0    0    0    0 -0.00000000000E+00 -0.00000000000E+00 -0.74505805969E-08  0.93827000000E+00  0.93827000000E+00 0.  1.
     999902    2    1    2    0    0  0.47872839585E-02  0.19802713863E-01  0.10985396661E-01  0.10207838447E+01  0.10205213928E+01 0.  0.
     999903    2    3    3    0    0 -0.77853917830E-01 -0.67143910328E-01 -0.74851382206E-01  0.12850740982E+00  0.18490206710E-01 0.  0.
         14    1    1    2    0    0 -0.47872839585E-02 -0.19802713863E-01 -0.10985396661E-01  0.23146155271E-01  0.00000000000E+00 0.  1.
     999901    1    3    3    0    0  0.82641201789E-01  0.86946624191E-01  0.85836778867E-01  0.89227643491E+00  0.88000000000E+00 0. -1.
        -11    1    4    4    0    0 -0.57583910037E-01 -0.40114364643E-01 -0.44590874211E-01  0.83148518506E-01  0.51100000000E-03 0. -1.
         11    1    4    4    0    0 -0.20270007793E-01 -0.27029545685E-01 -0.30260507995E-01  0.45358891311E-01  0.51100000000E-03 0.  1.
</event>
<event>
 8    1  0.1030163E+005  0.1043930E+01  0.7957747E-01            NaN
         13   -1    0    0    0    0  0.00000000000E+00  0.00000000000E+00  0.74505805969E-08  0.10566000000E+00  0.10566000000E+00 0. -1.
     999900   -1    0    0    0    0 -0.00000000000E+00 -0.00000000000E+00 -0.74505805969E-08  0.93827000000E+00  0.93827000000E+00 0. -1.
     999902    2    1    2    0    0  0.23511309170E-01  0.36057560487E-02  0.31751160398E-02  0.10199328231E+01  0.10196504789E+01 0.  0.
     999903    2    3    3    0    0 -0.11129442876E+00  0.52289059364E-01  0.29531532336E-01  0.12794778308E+00  0.19440375258E-01 0.  0.
         14    1    1    2    0    0 -0.23511309170E-01 -0.36057560487E-02 -0.31751160398E-02  0.23997176864E-01  0.00000000000E+00 0.  1.
     999901    1    3    3    0    0  0.13480573793E+00 -0.48683303315E-01 -0.26356416296E-01  0.89198504005E+00  0.88000000000E+00 0.  1.
        -11    1    4    4    0    0 -0.10701715316E+00  0.46559438056E-01  0.24670864629E-01  0.11928690215E+00  0.51100000000E-03 0. -1.
         11    1    4    4    0    0 -0.42772756069E-02  0.57296213073E-02  0.48606677074E-02  0.86608809311E-02  0.51100000000E-03 0.  1.
</event>
<event>
 8    1  0.1030163E+005  0.1043930E+01  0.7957747E-01            NaN
         13   -1    0    0    0    0  0.00000000000E+00  0.00000000000E+00  0.74505805969E-08  0.10566000000E+00  0.10566000000E+00 0.  1.
     999900   -1    0    0    0    0 -0.00000000000E+00 -0.00000000000E+00 -0.74505805969E-08  0.93827000000E+00  0.93827000000E+00 0.  1.
     999902    2    1    2    0    0  0.20751742203E-01 -0.12839631148E-01  0.17779182745E-01  0.10137374468E+01  0.10132877285E+01 0.  0.
     999903    2    3    3    0    0  0.94822171170E-01 -0.78482285530E-01  0.29535917766E-01  0.12811133640E+00  0.19734000825E-01 0.  0.
         14    1    1    2    0    0 -0.20751742203E-01  0.12839631148E-01 -0.17779182745E-01  0.30192553247E-01  0.00000000000E+00 0.  1.
     999901    1    3    3    0    0 -0.74070428967E-01  0.65642654381E-01 -0.11756735021E-01  0.88562611035E+00  0.88000000000E+00 0. -1.
        -11    1    4    4    0    0  0.47037683706E-01 -0.29446333649E-01  0.65298208807E-02  0.55879602142E-01  0.51100000000E-03 0. -1.
         11    1    4    4    0    0  0.47784487464E-01 -0.49035951881E-01  0.23006096885E-01  0.72231734258E-01  0.51100000000E-03 0.  1.
</event>
<event>
 8    1  0.1030163E+005  0.1043930E+01  0.7957747E-01            NaN
         13   -1    0    0    0    0  0.00000000000E+00  0.00000000000E+00  0.74505805969E-08  0.10566000000E+00  0.10566000000E+00 0. -1.
     999900   -1    0    0    0    0 -0.00000000000E+00 -0.00000000000E+00 -0.74505805969E-08  0.93827000000E+00  0.93827000000E+00 0. -1.
     999902    2    1    2    0    0 -0.31454859895E-02 -0.13680535726E-01 -0.19102524984E-01  0.10202243551E+01  0.10199489091E+01 0.  0.
     999903    2    3    3    0    0  0.12238901834E+00 -0.40674655418E-01 -0.58856401736E-02  0.13080753474E+00  0.21034994182E-01 0.  0.
         14    1    1    2    0    0  0.31454859895E-02  0.13680535726E-01  0.19102524984E-01  0.23705644910E-01  0.00000000000E+00 0. -1.
     999901    1    3    3    0    0 -0.12553450433E+00  0.26994119693E-01 -0.13216884810E-01  0.88941682035E+00  0.88000000000E+00 0. -1.
        -11    1    4    4    0    0  0.10348432298E+00 -0.31294738326E-01  0.23719067732E-02  0.10813996862E+00  0.51100000000E-03 0. -1.
         11    1    4    4    0    0  0.18904695363E-01 -0.93799170922E-02 -0.82575469468E-02  0.22667566124E-01  0.51100000000E-03 0.  1.
</event>
<event>
 7    1  0.1084292E+005  0.1043930E+01  0.7957747E-01            NaN
         13   -1    0    0    0    0  0.00000000000E+00  0.00000000000E+00  0.74505805969E-08  0.10566000000E+00  0.10566000000E+00 0. -1.
     999900   -1    0    0    0    0 -0.00000000000E+00 -0.00000000000E+00 -0.74505805969E-08  0.93827000000E+00  0.93827000000E+00 0. -1.
     999903    2    1    2    0    0  0.89336392951E-02  0.86861348174E-01  0.78071135586E-01  0.11900504779E+00  0.21033199220E-01 0.  0.
         14    1    1    2    0    0 -0.33986715005E-02 -0.25548090934E-01 -0.32662284120E-01  0.41606258211E-01  0.00000000000E+00 0.  1.
     999901    1    1    2    0    0 -0.55349677946E-02 -0.61313257240E-01 -0.45408851466E-01  0.88331869400E+00  0.88000000000E+00 0. -1.
        -11    1    3    3    0    0  0.83241877387E-02  0.43501948353E-01  0.52387871124E-01  0.68603657147E-01  0.51100000000E-03 0. -1.
         11    1    3    3    0    0  0.60945155639E-03  0.43359399821E-01  0.25683264462E-01  0.50401390641E-01  0.51100000000E-03 0.  1.
</event>
<event>
 8    1  0.1030163E+005  0.1043930E+01  0.7957747E-01            NaN
         13   -1    0    0    0    0  0.00000000000E+00  0.00000000000E+00  0.74505805969E-08  0.10566000000E+00  0.10566000000E+00 0. -1.
     999900   -1    0    0    0    0 -0.00000000000E+00 -0.00000000000E+00 -0.74505805969E-08  0.93827000000E+00  0.93827000000E+00 0. -1.
     999902    2    1    2    0    0  0.34362822901E-02  0.55368201626E-02  0.23785972226E-01  0.10192675409E+01  0.10189691276E+01 0.  0.
     999903    2    3    3    0    0  0.10842468059E+00  0.68497433616E-01  0.15853873491E-01  0.13075782188E+00  0.19961285161E-01 0.  0.
         14    1    1    2    0    0 -0.34362822901E-02 -0.55368201626E-02 -0.23785972226E-01  0.24662459087E-01  0.00000000000E+00 0.  1.
     999901    1    3    3    0    0 -0.10498839830E+00 -0.62960613453E-01  0.79320987349E-02  0.88850971903E+00  0.88000000000E+00 0.  1.
        -11    1    4    4    0    0  0.45899497435E-01  0.37028524642E-01 -0.43129315880E-04  0.58975744871E-01  0.51100000000E-03 0.  1.
         11    1    4    4    0    0  0.62525183155E-01  0.31468908974E-01  0.15897002807E-01  0.71782077010E-01  0.51100000000E-03 0. -1.
</event>
<event>
 8    1  0.1030163E+005  0.1043930E+01  0.7957747E-01            NaN
         13   -1    0    0    0    0  0.00000000000E+00  0.00000000000E+00  0.74505805969E-08  0.10566000000E+00  0.10566000000E+00 0.  1.
     999900   -1    0    0    0    0 -0.00000000000E+00 -0.00000000000E+00 -0.74505805969E-08  0.93827000000E+00  0.93827000000E+00 0. -1.
     999902    2    1    2    0    0 -0.87247334114E-02 -0.98264853948E-02 -0.20485215942E-01  0.10195922750E+01  0.10193017621E+01 0.  0.
     999903    2    3    3    0    0 -0.10568295140E-01 -0.99198035849E-01 -0.84570655369E-01  0.13274526656E+00  0.22741391020E-01 0.  0.
         14    1    1    2    0    0  0.87247334114E-02  0.98264853948E-02  0.20485215942E-01  0.24337725048E-01  0.00000000000E+00 0.  1.
     999901    1    3    3    0    0  0.18435617287E-02  0.89371550455E-01  0.64085439428E-01  0.88684700839E+00  0.88000000000E+00 0. -1.
        -11    1    4    4    0    0  0.43990041441E-03 -0.37442816173E-01 -0.45137446269E-01  0.58649877852E-01  0.51100000000E-03 0.  1.
         11    1    4    4    0    0 -0.11008195554E-01 -0.61755219676E-01 -0.39433209100E-01  0.74095388706E-01  0.51100000000E-03 0. -1.
</event>
<event>
 8    1  0.1030163E+005  0.1043930E+01  0.7957747E-01            NaN
         13   -1    0    0    0    0  0.00000000000E+00  0.00000000000E+00  0.74505805969E-08  0.10566000000E+00  0.10566000000E+00 0. -1.
     999900   -1    0    0    0    0 -0.00000000000E+00 -0.00000000000E+00 -0.74505805969E-08  0.93827000000E+00  0.93827000000E+00 0.  1.
     999902    2    1    2    0    0  0.13113429066E-01  0.19489901855E-01 -0.31463210334E-02  0.10202294170E+01  0.10199540900E+01 0.  0.
     999903    2    3    3    0    0  0.21702026302E-01 -0.11962601089E+00  0.36689483284E-01  0.12836962286E+00  0.18742504199E-01 0.  0.
         14    1    1    2    0    0 -0.13113429066E-01 -0.19489901855E-01  0.31463210334E-02  0.23700582951E-01  0.00000000000E+00 0. -1.
     999901    1    3    3    0    0 -0.85885972355E-02  0.13911591274E+00 -0.39835804318E-01  0.89185979419E+00  0.88000000000E+00 0.  1.
        -11    1    4    4    0    0  0.81484757077E-02 -0.88035990754E-01  0.29854081507E-01  0.93318061639E-01  0.51100000000E-03 0. -1.
         11    1    4    4    0    0  0.13553550594E-01 -0.31590020133E-01  0.68354017775E-02  0.35051561223E-01  0.51100000000E-03 0.  1.
</event>
<event>
 8    1  0.1030163E+005  0.1043930E+01  0.7957747E-01            NaN
         13   -1    0    0    0    0  0.00000000000E+00  0.00000000000E+00  0.74505805969E-08  0.10566000000E+00  0.10566000000E+00 0.  1.
     999900   -1    0    0    0    0 -0.00000000000E+00 -0.00000000000E+00 -0.74505805969E-08  0.93827000000E+00  0.93827000000E+00 0.  1.
     999902    2    1    2    0    0 -0.15654412639E-01  0.17694397649E-01 -0.34609887878E-02  0.10200525884E+01  0.10197730886E+01 0.  0.
     999903    2    3    3    0    0 -0.11440359986E+00 -0.60828357066E-01  0.11766027483E-02  0.13104261528E+00  0.19557861363E-01 0.  0.
         14    1    1    2    0    0  0.15654412639E-01 -0.17694397649E-01  0.34609887878E-02  0.23877411640E-01  0.00000000000E+00 0. -1.
     999901    1    3    3    0    0  0.98749187218E-01  0.78522754716E-01 -0.46375915362E-02  0.88900997308E+00  0.88000000000E+00 0. -1.
        -11    1    4    4    0    0 -0.10644828871E+00 -0.60931599046E-01 -0.14049787633E-02  0.12266267981E+00  0.51100000000E-03 0. -1.
         11    1    4    4    0    0 -0.79553111471E-02  0.10324198001E-03  0.25815815117E-02  0.83799354685E-02  0.51100000000E-03 0.  1.
</event>
<event>
 8    1  0.1030163E+005  0.1043930E+01  0.7957747E-01            NaN
         13   -1    0    0    0    0  0.00000000000E+00  0.00000000000E+00  0.74505805969E-08  0.10566000000E+00  0.10566000000E+00 0.  1.
     999900   -1    0    0    0    0 -0.00000000000E+00 -0.00000000000E+00 -0.74505805969E-08  0.93827000000E+00  0.93827000000E+00 0.  1.
     999902    2    1    2    0    0 -0.73593032652E-02  0.19489358645E-01  0.10801745294E-01  0.10204635954E+01  0.10201937450E+01 0.  0.
     999903    2    3    3    0    0  0.45631410365E-01 -0.59642784714E-01  0.10435508302E+00  0.13039498069E+00  0.21757303483E-01 0.  0.
         14    1    1    2    0    0  0.73593032652E-02 -0.19489358645E-01 -0.10801745294E-01  0.23466404632E-01  0.00000000000E+00 0. -1.
     999901    1    3    3    0    0 -0.52990713630E-01  0.79132143358E-01 -0.93553337729E-01  0.89006861468E+00  0.88000000000E+00 0.  1.
        -11    1    4    4    0    0  0.13084845688E-01 -0.34120501194E-01  0.54422534940E-01  0.65555283683E-01  0.51100000000E-03 0.  1.
         11    1    4    4    0    0  0.32546564676E-01 -0.25522283519E-01  0.49932548083E-01  0.64839697002E-01  0.51100000000E-03 0. -1.
</event>
<event>
 8    1  0.1030163E+005  0.1043930E+01  0.7957747E-01            NaN
         13   -1    0    0    0    0  0.00000000000E+00  0.00000000000E+00  0.74505805969E-08  0.10566000000E+00  0.10566000000E+00 0. -1.
     999900   -1    0    0    0    0 -0.00000000000E+00 -0.00000000000E+00 -0.74505805969E-08  0.93827000000E+00  0.93827000000E+00 0.  1.
     999902    2    1    2    0    0  0.19881477826E-01 -0.11698304693E-01 -0.27466310965E-01  0.10080618842E+01  0.10074235657E+01 0.  0.
     999903    2    3    3    0    0  0.12007450529E+00  0.41559837413E-02  0.14146212908E-02  0.12176390413E+00  0.19730387099E-01 0.  0.
         14    1    1    2    0    0 -0.19881477826E-01  0.11698304693E-01  0.27466310965E-01  0.35868115803E-01  0.00000000000E+00 0. -1.
     999901    1    3    3    0    0 -0.10019302746E+00 -0.15854288435E-01 -0.28880932256E-01  0.88629798006E+00  0.88000000000E+00 0. -1.
        -11    1    4    4    0    0  0.46510679084E-01 -0.95074130620E-04 -0.88993241399E-02  0.47357273983E-01  0.51100000000E-03 0. -1.
         11    1    4    4    0    0  0.73563826207E-01  0.42510578720E-02  0.10313945431E-01  0.74406630152E-01  0.51100000000E-03 0.  1.
</event>
<event>
 8    1  0.1030163E+005  0.1043930E+01  0.7957747E-01            NaN
         13   -1    0    0    0    0  0.00000000000E+00  0.00000000000E+00  0.74505805969E-08  0.10566000000E+00  0.10566000000E+00 0. -1.
     999900   -1    0    0    0    0 -0.00000000000E+00 -0.00000000000E+00 -0.74505805969E-08  0.93827000000E+00  0.93827000000E+00 0. -1.
     999902    2    1    2    0    0 -0.97456536650E-03  0.11692635700E-01  0.52353928412E-02  0.10310817766E+01  0.10310017231E+01 0.  0.
     999903    2    3    3    0    0  0.25321747979E-01  0.57666135273E-01  0.12496875284E+00  0.14139580036E+00  0.20223973258E-01 0.  0.
         14    1    1    2    0    0  0.97456536650E-03 -0.11692635700E-01 -0.52353928412E-02  0.12848223437E-01  0.00000000000E+00 0.  1.
     999901    1    3    3    0    0 -0.26296313345E-01 -0.45973499572E-01 -0.11973336000E+00  0.88968597620E+00  0.88000000000E+00 0. -1.
        -11    1    4    4    0    0  0.17480752020E-02  0.27105354320E-01  0.59219212792E-01  0.65153144854E-01  0.51100000000E-03 0.  1.
         11    1    4    4    0    0  0.23573672777E-01  0.30560780953E-01  0.65749540049E-01  0.76242655504E-01  0.51100000000E-03 0. -1.
</event>
<event>
 8    1  0.1030163E+005  0.1043930E+01  0.7957747E-01            NaN
         13   -1    0    0    0    0  0.00000000000E+00  0.00000000000E+00  0.74505805969E-08  0.10566000000E+00  0.10566000000E+00 0.  1.
     999900   -1    0    0    0    0 -0.00000000000E+00 -0.00000000000E+00 -0.74505805969E-08  0.93827000000E+00  0.93827000000E+00 0.  1.
     999902    2    1    2    0    0  0.16425625067E-01 -0.81667103620E-02  0.14924056085E-01  0.10202820875E+01  0.10200079971E+01 0.  0.
     999903    2    3    3    0    0  0.10636604699E+00  0.66811150937E-01 -0.32564250015E-01  0.13125672316E+00  0.19759330795E-01 0.  0.
         14    1    1    2    0    0 -0.16425625067E-01  0.81667103620E-02 -0.14924056085E-01  0.23647912530E-01  0.00000000000E+00 0.  1.
     999901    1    3    3    0    0 -0.89940421918E-01 -0.74977861299E-01  0.47488306101E-01  0.88902536432E+00  0.88000000000E+00 0. -1.
        -11    1    4    4    0    0  0.55130189751E-01  0.43340028229E-01 -0.24707497606E-01  0.74353328290E-01  0.51100000000E-03 0.  1.
         11    1    4    4    0    0  0.51235857234E-01  0.23471122709E-01 -0.78567524091E-02  0.56903394865E-01  0.51100000000E-03 0. -1.
</event>
<event>
 7    1  0.1030163E+005  0.1043930E+01  0.7957747E-01            NaN
         13   -1    0    0    0    0  0.00000000000E+00  0.00000000000E+00  0.74505805969E-08  0.10566000000E+00  0.10566000000E+00 0. -1.
     999900   -1    0    0    0    0 -0.00000000000E+00 -0.00000000000E+00 -0.74505805969E-08  0.93827000000E+00  0.93827000000E+00 0. -1.
     999903    2    1    2    0    0  0.21137853542E-01  0.50847526995E-01 -0.45748469754E-01  0.74127312717E-01  0.19226444077E-01 0.  0.
         14    1    1    2    0    0  0.55827135604E-01 -0.39251055537E-02  0.63989290202E-01  0.85010027550E-01  0.00000000000E+00 0. -1.
     999901    1    1    2    0    0 -0.76964989147E-01 -0.46922421442E-01 -0.18240820448E-01  0.88479265973E+00  0.88000000000E+00 0.  1.
        -11    1    3    3    0    0  0.94105620232E-02  0.40247739048E-01 -0.39333597360E-01  0.57059899916E-01  0.51100000000E-03 0.  1.
         11    1    3    3    0    0  0.11727291519E-01  0.10599787947E-01 -0.64148723939E-02  0.17067412801E-01  0.51100000000E-03 0. -1.
</event>
<event>
 8    1  0.1030163E+005  0.1043930E+01  0.7957747E-01            NaN
         13   -1    0    0    0    0  0.00000000000E+00  0.00000000000E+00  0.74505805969E-08  0.10566000000E+00  0.10566000000E+00 0.  1.
     999900   -1    0    0    0    0 -0.00000000000E+00 -0.00000000000E+00 -0.74505805969E-08  0.93827000000E+00  0.93827000000E+00 0.  1.
     999902    2    1    2    0    0  0.20541983978E-01 -0.10352890865E-01  0.50461847454E-02  0.10203796404E+01  0.10201078331E+01 0.  0.
     999903    2    3    3    0    0  0.12911319664E+00 -0.17302507866E-01 -0.19766898813E-01  0.13333302694E+00  0.20429671109E-01 0.  0.
         14    1    1    2    0    0 -0.20541983978E-01  0.10352890865E-01 -0.50461847454E-02  0.23550359562E-01  0.00000000000E+00 0. -1.
     999901    1    3    3    0    0 -0.10857121266E+00  0.69496170008E-02  0.24813083558E-01  0.88704661349E+00  0.88000000000E+00 0. -1.
        -11    1    4    4    0    0  0.19035025263E-01 -0.63466521631E-02  0.32707249995E-02  0.20336443727E-01  0.51100000000E-03 0.  1.
         11    1    4    4    0    0  0.11007817137E+00 -0.10955855703E-01 -0.23037623812E-01  0.11299658322E+00  0.51100000000E-03 0. -1.
</event>
<event>
 8    1  0.1030163E+005  0.1043930E+01  0.7957747E-01            NaN
         13   -1    0    0    0    0  0.00000000000E+00  0.00000000000E+00  0.74505805969E-08  0.10566000000E+00  0.10566000000E+00 0. -1.
     999900   -1    0    0    0    0 -0.00000000000E+00 -0.00000000000E+00 -0.74505805969E-08  0.93827000000E+00  0.93827000000E+00 0.  1.
     999902    2    1    2    0    0 -0.69804800708E-02 -0.32009241028E-02  0.22254571880E-01  0.10203877192E+01  0.10201161005E+01 0.  0.
     999903    2    3    3    0    0  0.44325612124E-01  0.11957491740E+00  0.18082299538E-01  0.13037444387E+00  0.20189237164E-01 0.  0.
         14    1    1    2    0    0  0.69804800708E-02  0.32009241028E-02 -0.22254571880E-01  0.23542280830E-01  0.00000000000E+00 0. -1.
     999901    1    3    3    0    0 -0.51306092194E-01 -0.12277584150E+00  0.41722723413E-02  0.89001327530E+00  0.88000000000E+00 0. -1.
        -11    1    4    4    0    0  0.32320113231E-01  0.81792772424E-01  0.21629773495E-01  0.90569065152E-01  0.51100000000E-03 0.  1.
         11    1    4    4    0    0  0.12005498893E-01  0.37782144974E-01 -0.35474739568E-02  0.39805378719E-01  0.51100000000E-03 0. -1.
</event>
<event>
 8    1  0.1030163E+005  0.1043930E+01  0.7957747E-01            NaN
         13   -1    0    0    0    0  0.00000000000E+00  0.00000000000E+00  0.74505805969E-08  0.10566000000E+00  0.10566000000E+00 0. -1.
     999900   -1    0    0    0    0 -0.00000000000E+00 -0.00000000000E+00 -0.74505805969E-08  0.93827000000E+00  0.93827000000E+00 0. -1.
     999902    2    1    2    0    0 -0.67972229235E-02 -0.22208230197E-01 -0.13942718155E-02  0.10206630337E+01  0.10203978031E+01 0.  0.
     999903    2    3    3    0    0  0.70916988529E-01  0.10368570335E+00  0.15966037482E-01  0.12814403584E+00  0.19647779162E-01 0.  0.
         14    1    1    2    0    0  0.67972229235E-02  0.22208230197E-01  0.13942718155E-02  0.23266966322E-01  0.00000000000E+00 0.  1.
     999901    1    3    3    0    0 -0.77714211452E-01 -0.12589393355E+00 -0.17360309297E-01  0.89251899784E+00  0.88000000000E+00 0.  1.
        -11    1    4    4    0    0  0.21415520732E-01  0.46461260559E-01  0.20045951002E-02  0.51201101390E-01  0.51100000000E-03 0. -1.
         11    1    4    4    0    0  0.49501467796E-01  0.57224442795E-01  0.13961442382E-01  0.76942934448E-01  0.51100000000E-03 0.  1.
</event>
<event>
 8    1  0.1030163E+005  0.1043930E+01  0.7957747E-01            NaN
         13   -1    0    0    0    0  0.00000000000E+00  0.00000000000E+00  0.74505805969E-08  0.10566000000E+00  0.10566000000E+00 0. -1.
     999900   -1    0    0    0    0 -0.00000000000E+00 -0.00000000000E+00 -0.74505805969E-08  0.93827000000E+00  0.93827000000E+00 0. -1.
     999902    2    1    2    0    0  0.10876036788E-01 -0.13349106424E-01  0.16420296473E-01  0.10201368717E+01  0.10198593648E+01 0.  0.
     999903    2    3    3    0    0 -0.11462027403E-01  0.71414957437E-01 -0.10334536959E+00  0.12770886316E+00  0.19945277581E-01 0.  0.
         14    1    1    2    0    0 -0.10876036788E-01  0.13349106424E-01 -0.16420296473E-01  0.23793128310E-01  0.00000000000E+00 0.  1.
     999901    1    3    3    0    0  0.22338064191E-01 -0.84764063861E-01  0.11976566606E+00  0.89242800853E+00  0.88000000000E+00 0.  1.
        -11    1    4    4    0    0 -0.51754726284E-02  0.20598920302E-01 -0.46959662163E-01  0.51541944337E-01  0.51100000000E-03 0.  1.
         11    1    4    4    0    0 -0.62865547747E-02  0.50816037135E-01 -0.56385707424E-01  0.76166918828E-01  0.51100000000E-03 0. -1.
</event>
<event>
 8    1  0.1030163E+005  0.1043930E+01  0.7957747E-01            NaN
         13   -1    0    0    0    0  0.00000000000E+00  0.00000000000E+00  0.74505805969E-08  0.10566000000E+00  0.10566000000E+00 0.  1.
     999900   -1    0    0    0    0 -0.00000000000E+00 -0.00000000000E+00 -0.74505805969E-08  0.93827000000E+00  0.93827000000E+00 0.  1.
     999902    2    1    2    0    0 -0.23535169315E-01 -0.50783093877E-02  0.13802715276E-03  0.10198527810E+01  0.10195685276E+01 0.  0.
     999903    2    3    3    0    0  0.56374799200E-01 -0.49115821999E-01  0.10347477337E+00  0.12912084118E+00  0.19356677093E-01 0.  0.
         14    1    1    2    0    0  0.23535169315E-01  0.50783093877E-02 -0.13802715276E-03  0.24077218951E-01  0.00000000000E+00 0. -1.
     999901    1    3    3    0    0 -0.79909968515E-01  0.44037512611E-01 -0.10333674621E+00  0.89073193987E+00  0.88000000000E+00 0.  1.
        -11    1    4    4    0    0  0.38939320875E-01 -0.21278949813E-01  0.60316851904E-01  0.74882896311E-01  0.51100000000E-03 0.  1.
         11    1    4    4    0    0  0.17435478325E-01 -0.27836872186E-01  0.43157921463E-01  0.54237944868E-01  0.51100000000E-03 0. -1.
</event>
<event>
 8    1  0.1030163E+005  0.1043930E+01  0.7957747E-01            NaN
         13   -1    0    0    0    0  0.00000000000E+00  0.00000000000E+00  0.74505805969E-08  0.10566000000E+00  0.10566000000E+00 0. -1.
     999900   -1    0    0    0    0 -0.00000000000E+00 -0.00000000000E+00 -0.74505805969E-08  0.93827000000E+00  0.93827000000E+00 0.  1.
     999902    2    1    2    0    0 -0.69628301019E-02 -0.17950105137E-01  0.13864492726E-01  0.10202042453E+01  0.10199283263E+01 0.  0.
     999903    2    3    3    0    0  0.16742572665E-01  0.23092778221E-02 -0.12564996798E+00  0.12866811397E+00  0.21952735484E-01 0.  0.
         14    1    1    2    0    0  0.69628301019E-02  0.17950105137E-01 -0.13864492726E-01  0.23725754699E-01  0.00000000000E+00 0.  1.
     999901    1    3    3    0    0 -0.23705402767E-01 -0.20259382959E-01  0.13951446071E+00  0.89153613133E+00  0.88000000000E+00 0. -1.
        -11    1    4    4    0    0  0.13312076918E-01  0.11668194274E-01 -0.82361220641E-01  0.84243634394E-01  0.51100000000E-03 0. -1.
         11    1    4    4    0    0  0.34304957466E-02 -0.93589164518E-02 -0.43288747343E-01  0.44424479578E-01  0.51100000000E-03 0.  1.
</event>
<event>
 8    1  0.1030163E+005  0.1043930E+01  0.7957747E-01            NaN
         13   -1    0    0    0    0  0.00000000000E+00  0.00000000000E+00  0.74505805969E-08  0.10566000000E+00  0.10566000000E+00 0. -1.
     999900   -1    0    0    0    0 -0.00000000000E+00 -0.00000000000E+00 -0.74505805969E-08  0.93827000000E+00  0.93827000000E+00 0.  1.
     999902    2    1    2    0    0 -0.22425622703E-01 -0.44739081967E-02 -0.42002043676E-02  0.10206799220E+01  0.10204150808E+01 0.  0.
     999903    2    3    3    0    0  0.11500904054E+00  0.15119019191E-01  0.50695650427E-01  0.12810739035E+00  0.19641546312E-01 0.  0.
         14    1    1    2    0    0  0.22425622703E-01  0.44739081967E-02  0.42002043676E-02  0.23250077955E-01  0.00000000000E+00 0.  1.
     999901    1    3    3    0    0 -0.13743466325E+00 -0.19592927387E-01 -0.54895854794E-01  0.89257253170E+00  0.88000000000E+00 0.  1.
        -11    1    4    4    0    0  0.60274939443E-01 -0.19301266434E-02  0.26883527077E-01  0.66028621543E-01  0.51100000000E-03 0. -1.
         11    1    4    4    0    0  0.54734101102E-01  0.17049145834E-01  0.23812123349E-01  0.62078768806E-01  0.51100000000E-03 0.  1.
</event>
<event>
 8    1  0.1030163E+005  0.1043930E+01  0.7957747E-01            NaN
         13   -1    0    0    0    0  0.00000000000E+00  0.00000000000E+00  0.74505805969E-08  0.10566000000E+00  0.10566000000E+00 0.  1.
     999900   -1    0    0    0    0 -0.00000000000E+00 -0.00000000000E+00 -0.74505805969E-08  0.93827000000E+00  0.93827000000E+00 0. -1.
     999902    2    1    2    0    0  0.11905618786E-01  0.40299378882E-02 -0.19998916730E-01  0.10203092289E+01  0.10200357747E+01 0.  0.
     999903    2    3    3    0    0 -0.50632131814E-01 -0.25494223302E-01 -0.11725489869E+00  0.13225440378E+00  0.22998866502E-01 0.  0.
         14    1    1    2    0    0 -0.11905618786E-01 -0.40299378882E-02  0.19998916730E-01  0.23620771123E-01  0.00000000000E+00 0.  1.
     999901    1    3    3    0    0  0.62537750600E-01  0.29524161190E-01  0.97255981957E-01  0.88805482509E+00  0.88000000000E+00 0.  1.
        -11    1    4    4    0    0 -0.23735637402E-01 -0.25919896635E-03 -0.37514821780E-01  0.44396741335E-01  0.51100000000E-03 0. -1.
         11    1    4    4    0    0 -0.26896494412E-01 -0.25235024335E-01 -0.79740076907E-01  0.87857662449E-01  0.51100000000E-03 0.  1.
</event>
<event>
 8    1  0.1030163E+005  0.1043930E+01  0.7957747E-01            NaN
         13   -1    0    0    0    0  0.00000000000E+00  0.00000000000E+00  0.74505805969E-08  0.10566000000E+00  0.10566000000E+00 0.  1.
     999900   -1    0    0    0    0 -0.00000000000E+00 -0.00000000000E+00 -0.74505805969E-08  0.93827000000E+00  0.93827000000E+00 0. -1.
     999902    2    1    2    0    0 -0.38383340668E-02  0.20492760822E-01  0.11504671570E-01  0.10201173243E+01  0.10198393559E+01 0.  0.
     999903    2    3    3    0    0 -0.80626526251E-01  0.37808605995E-01  0.96222350910E-01  0.13255135487E+00  0.19519053284E-01 0.  0.
         14    1    1    2    0    0  0.38383340668E-02 -0.20492760822E-01 -0.11504671570E-01  0.23812675667E-01  0.00000000000E+00 0. -1.
     999901    1    3    3    0    0  0.76788192184E-01 -0.17315845173E-01 -0.84717679340E-01  0.88756596946E+00  0.88000000000E+00 0. -1.
        -11    1    4    4    0    0 -0.14128698613E-01 -0.75391076101E-03  0.17684883154E-01  0.22654022139E-01  0.51100000000E-03 0. -1.
         11    1    4    4    0    0 -0.66497827639E-01  0.38562516756E-01  0.78537467756E-01  0.10989733273E+00  0.51100000000E-03 0.  1.
</event>
<event>
 8    1  0.1030163E+005  0.1043930E+01  0.7957747E-01            NaN
         13   -1    0    0    0    0  0.00000000000E+00  0.00000000000E+00  0.74505805969E-08  0.10566000000E+00  0.10566000000E+00 0.  1.
     999900   -1    0    0    0    0 -0.00000000000E+00 -0.00000000000E+00 -0.74505805969E-08  0.93827000000E+00  0.93827000000E+00 0.  1.
     999902    2    1    2    0    0  0.23518091112E-01 -0.60849938795E-02  0.74380527534E-03  0.10196260701E+01  0.10193363733E+01 0.  0.
     999903    2    3    3    0    0  0.99020807053E-01  0.83534972247E-01 -0.12918753062E-01  0.13175273236E+00  0.20215748489E-01 0.  0.
         14    1    1    2    0    0 -0.23518091112E-01  0.60849938795E-02 -0.74380527534E-03  0.24303929854E-01  0.00000000000E+00 0. -1.
     999901    1    3    3    0    0 -0.75502715941E-01 -0.89619966127E-01  0.13662558338E-01  0.88787333778E+00  0.88000000000E+00 0. -1.
        -11    1    4    4    0    0  0.54389177074E-01  0.58219362532E-01 -0.10717613133E-01  0.80391573618E-01  0.51100000000E-03 0.  1.
         11    1    4    4    0    0  0.44631629978E-01  0.25315609715E-01 -0.22011399296E-02  0.51361158746E-01  0.51100000000E-03 0. -1.
</event>
<event>
 8    1  0.1030163E+005  0.1043930E+01  0.7957747E-01            NaN
         13   -1    0    0    0    0  0.00000000000E+00  0.00000000000E+00  0.74505805969E-08  0.10566000000E+00  0.10566000000E+00 0.  1.
     999900   -1    0    0    0    0 -0.00000000000E+00 -0.00000000000E+00 -0.74505805969E-08  0.93827000000E+00  0.93827000000E+00 0.  1.
     999902    2    1    2    0    0  0.11598547238E-01 -0.29068364793E-02 -0.20353913297E-01  0.10203236919E+01  0.10200505764E+01 0.  0.
     999903    2    3    3    0    0  0.14847401989E-01  0.11016919527E+00  0.62578706677E-01  0.12921507703E+00  0.20560755583E-01 0.  0.
         14    1    1    2    0    0 -0.11598547238E-01  0.29068364793E-02  0.20353913297E-01  0.23606308115E-01  0.00000000000E+00 0.  1.
     999901    1    3    3    0    0 -0.32488547509E-02 -0.11307603175E+00 -0.82932619973E-01  0.89110861486E+00  0.88000000000E+00 0.  1.
        -11    1    4    4    0    0  0.13854844724E-01  0.37377871695E-01  0.17112678571E-01  0.43383947535E-01  0.51100000000E-03 0. -1.
         11    1    4    4    0    0  0.99255726448E-03  0.72791323575E-01  0.45466028105E-01  0.85831129495E-01  0.51100000000E-03 0.  1.
</event>
<event>
 8    1  0.1030163E+005  0.1043930E+01  0.7957747E-01            NaN
         13   -1    0    0    0    0  0.00000000000E+00  0.00000000000E+00  0.74505805969E-08  0.10566000000E+00  0.10566000000E+00 0. -1.
     999900   -1    0    0    0    0 -0.00000000000E+00 -0.00000000000E+00 -0.74505805969E-08  0.93827000000E+00  0.93827000000E+00 0. -1.
     999902    2    1    2    0    0  0.16808580042E-01 -0.24367287717E-02  0.18888592768E-01  0.10185283279E+01  0.10182115250E+01 0.  0.
     999903    2    3    3    0    0  0.10092742620E+00 -0.77326944618E-01 -0.20915307869E-01  0.13045801803E+00  0.20397123394E-01 0.  0.
         14    1    1    2    0    0 -0.16808580042E-01  0.24367287717E-02 -0.18888592768E-01  0.25401672128E-01  0.00000000000E+00 0. -1.
     999901    1    3    3    0    0 -0.84118846158E-01  0.74890215847E-01  0.39803900637E-01  0.88807030984E+00  0.88000000000E+00 0.  1.
        -11    1    4    4    0    0  0.68370110414E-01 -0.62075694139E-01 -0.20008166085E-01  0.94490484346E-01  0.51100000000E-03 0. -1.
         11    1    4    4    0    0  0.32557315787E-01 -0.15251250479E-01 -0.90714178361E-03  0.35967533689E-01  0.51100000000E-03 0.  1.
</event>
<event>
 8    1  0.1030163E+005  0.1043930E+01  0.7957747E-01            NaN
         13   -1    0    0    0    0  0.00000000000E+00  0.00000000000E+00  0.74505805969E-08  0.10566000000E+00  0.10566000000E+00 0.  1.
     999900   -1    0    0    0    0 -0.00000000000E+00 -0.00000000000E+00 -0.74505805969E-08  0.93827000000E+00  0.93827000000E+00 0. -1.
     999902    2    1    2    0    0  0.17243344886E-01  0.16376257953E-01 -0.33189859231E-02  0.10199189518E+01  0.10196362772E+01 0.  0.
     999903    2    3    3    0    0 -0.10963357795E+00 -0.60326848366E-01  0.12845664241E-01  0.12737068086E+00  0.19985725049E-01 0.  0.
         14    1    1    2    0    0 -0.17243344886E-01 -0.16376257953E-01  0.33189859231E-02  0.24011048185E-01  0.00000000000E+00 0.  1.
     999901    1    3    3    0    0  0.12687692283E+00  0.76703106319E-01 -0.16164650165E-01  0.89254827095E+00  0.88000000000E+00 0. -1.
        -11    1    4    4    0    0 -0.68386364880E-01 -0.47094001147E-01  0.38405073192E-02  0.83123705782E-01  0.51100000000E-03 0.  1.
         11    1    4    4    0    0 -0.41247213069E-01 -0.13232847219E-01  0.90051569223E-02  0.44246975079E-01  0.51100000000E-03 0. -1.
</event>
<event>
 8    1  0.1030163E+005  0.1043930E+01  0.7957747E-01            NaN
         13   -1    0    0    0    0  0.00000000000E+00  0.00000000000E+00  0.74505805969E-08  0.10566000000E+00  0.10566000000E+00 0.  1.
     999900   -1    0    0    0    0 -0.00000000000E+00 -0.00000000000E+00 -0.74505805969E-08  0.93827000000E+00  0.93827000000E+00 0. -1.
     999902    2    1    2    0    0  0.14646372949E-01  0.18204315609E-01  0.27972546276E-02  0.10203983621E+01  0.10201269918E+01 0.  0.
     999903    2    3    3    0    0  0.18975743984E-01  0.31475933751E-01 -0.12439270587E+00  0.13114464954E+00  0.19353567232E-01 0.  0.
         14    1    1    2    0    0 -0.14646372949E-01 -0.18204315609E-01 -0.27972546276E-02  0.23531637869E-01  0.00000000000E+00 0. -1.
     999901    1    3    3    0    0 -0.43293710341E-02 -0.13271618142E-01  0.12718996050E+00  0.88925371259E+00  0.88000000000E+00 0.  1.
        -11    1    4    4    0    0  0.39580190110E-02  0.24302187098E-01 -0.66891758334E-01  0.71281348656E-01  0.51100000000E-03 0. -1.
         11    1    4    4    0    0  0.15017724973E-01  0.71737466527E-02 -0.57500947536E-01  0.59863300886E-01  0.51100000000E-03 0.  1.
</event>
<event>
 8    1  0.1030163E+005  0.1043930E+01  0.7957747E-01            NaN
         13   -1    0    0    0    0  0.00000000000E+00  0.00000000000E+00  0.74505805969E-08  0.10566000000E+00  0.10566000000E+00 0. -1.
     999900   -1    0    0    0    0 -0.00000000000E+00 -0.00000000000E+00 -0.74505805969E-08  0.93827000000E+00  0.93827000000E+00 0.  1.
     999902    2    1    2    0    0  0.18175659784E-01  0.12773146492E-01 -0.65180969403E-02  0.10207784673E+01  0.10205158920E+01 0.  0.
     999903    2    3    3    0    0 -0.44215437954E-01 -0.11700635961E+00  0.22078464148E-01  0.12861641216E+00  0.20229427947E-01 0.  0.
         14    1    1    2    0    0 -0.18175659784E-01 -0.12773146492E-01  0.65180969403E-02  0.23151532727E-01  0.00000000000E+00 0. -1.
     999901    1    3    3    0    0  0.62391097738E-01  0.12977950610E+00 -0.28596561088E-01  0.89216205511E+00  0.88000000000E+00 0. -1.
        -11    1    4    4    0    0 -0.76927756415E-02 -0.29506279257E-01  0.13688501192E-01  0.33428064535E-01  0.51100000000E-03 0.  1.
         11    1    4    4    0    0 -0.36522662313E-01 -0.87500080350E-01  0.83899629562E-02  0.95188347623E-01  0.51100000000E-03 0. -1.
</event>
<event>
 8    1  0.1030163E+005  0.1043930E+01  0.7957747E-01            NaN
         13   -1    0    0    0    0  0.00000000000E+00  0.00000000000E+00  0.74505805969E-08  0.10566000000E+00  0.10566000000E+00 0. -1.
     999900   -1    0    0    0    0 -0.00000000000E+00 -0.00000000000E+00 -0.74505805969E-08  0.93827000000E+00  0.93827000000E+00 0.  1.
     999902    2    1    2    0    0  0.75402713151E-02  0.22032308181E-01  0.61715710365E-03  0.10206349538E+01  0.10203690752E+01 0.  0.
     999903    2    3    3    0    0 -0.11584415559E+00  0.11723932610E-01 -0.54060928039E-01  0.13028689128E+00  0.22243451151E-01 0.  0.
         14    1    1    2    0    0 -0.75402713151E-02 -0.22032308181E-01 -0.61715710365E-03  0.23295046216E-01  0.00000000000E+00 0. -1.
     999901    1    3    3    0    0  0.12338442690E+00  0.10308375571E-01  0.54678085143E-01  0.89034806250E+00  0.88000000000E+00 0. -1.
        -11    1    4    4    0    0 -0.61498332765E-01  0.96667147954E-02 -0.40383389552E-01  0.74206263756E-01  0.51100000000E-03 0.  1.
         11    1    4    4    0    0 -0.54345822824E-01  0.20572178151E-02 -0.13677538487E-01  0.56080627525E-01  0.51100000000E-03 0. -1.
</event>
<event>
 8    1  0.1030163E+005  0.1043930E+01  0.7957747E-01            NaN
         13   -1    0    0    0    0  0.00000000000E+00  0.00000000000E+00  0.74505805969E-08  0.10566000000E+00  0.10566000000E+00 0.  1.
     999900   -1    0    0    0    0 -0.00000000000E+00 -0.00000000000E+00 -0.74505805969E-08  0.93827000000E+00  0.93827000000E+00 0.  1.
     999902    2    1    2    0    0  0.61703052847E-02  0.23353838124E-01 -0.46531970673E-02  0.10193306775E+01  0.10190338088E+01 0.  0.
     999903    2    3    3    0    0 -0.41725116431E-01  0.12371257614E+00 -0.77777939033E-02  0.13232695104E+00  0.20103259915E-01 0.  0.
         14    1    1    2    0    0 -0.61703052847E-02 -0.23353838124E-01  0.46531970673E-02  0.24599322458E-01  0.00000000000E+00 0. -1.
     999901    1    3    3    0    0  0.47895421716E-01 -0.10035873801E+00  0.31245968361E-02  0.88700372650E+00  0.88000000000E+00 0. -1.
        -11    1    4    4    0    0 -0.29417956338E-01  0.10382482073E+00 -0.11920292083E-01  0.10856962761E+00  0.51100000000E-03 0. -1.
         11    1    4    4    0    0 -0.12307160093E-01  0.19887755406E-01  0.41424981796E-02  0.23757323435E-01  0.51100000000E-03 0.  1.
</event>
<event>
 8    1  0.1030163E+005  0.1043930E+01  0.7957747E-01            NaN
         13   -1    0    0    0    0  0.00000000000E+00  0.00000000000E+00  0.74505805969E-08  0.10566000000E+00  0.10566000000E+00 0. -1.
     999900   -1    0    0    0    0 -0.00000000000E+00 -0.00000000000E+00 -0.74505805969E-08  0.93827000000E+00  0.93827000000E+00 0.  1.
     999902    2    1    2    0    0  0.79198470297E-02  0.19581901259E-01 -0.10296288085E-01  0.10204313111E+01  0.10201607090E+01 0.  0.
     999903    2    3    3    0    0  0.10501439085E+00  0.64002818757E-02  0.74543636250E-01  0.13093768078E+00  0.22780181055E-01 0.  0.
         14    1    1    2    0    0 -0.79198470297E-02 -0.19581901259E-01  0.10296288085E-01  0.23498688947E-01  0.00000000000E+00 0. -1.
     999901    1    3    3    0    0 -0.97094543824E-01  0.13181619383E-01 -0.84839924335E-01  0.88949363027E+00  0.88000000000E+00 0. -1.
        -11    1    4    4    0    0  0.90161284823E-01 -0.21569536848E-02  0.58845264331E-01  0.10768814227E+00  0.51100000000E-03 0. -1.
         11    1    4    4    0    0  0.14853106031E-01  0.85572355605E-02  0.15698371920E-01  0.23249538515E-01  0.51100000000E-03 0.  1.
</event>
<event>
 8    1  0.1030163E+005  0.1043930E+01  0.7957747E-01            NaN
         13   -1    0    0    0    0  0.00000000000E+00  0.00000000000E+00  0.74505805969E-08  0.10566000000E+00  0.10566000000E+00 0. -1.
     999900   -1    0    0    0    0 -0.00000000000E+00 -0.00000000000E+00 -0.74505805969E-08  0.93827000000E+00  0.93827000000E+00 0.  1.
     999902    2    1    2    0    0  0.42955340669E-02 -0.91025493776E-02 -0.21850811372E-01  0.10198724445E+01  0.10195886607E+01 0.  0.
     999903    2    3    3    0    0 -0.32041986806E-01 -0.11753669486E+00 -0.47179197629E-01  0.13211126803E+00  0.19645531167E-01 0.  0.
         14    1    1    2    0    0 -0.42955340669E-02  0.91025493776E-02  0.21850811372E-01  0.24057555481E-01  0.00000000000E+00 0. -1.
     999901    1    3    3    0    0  0.36337520873E-01  0.10843414548E+00  0.25328386256E-01  0.88776117649E+00  0.88000000000E+00 0. -1.
        -11    1    4    4    0    0 -0.12440165984E-01 -0.76360231762E-01 -0.24352189783E-01  0.81110621947E-01  0.51100000000E-03 0. -1.
         11    1    4    4    0    0 -0.19601820821E-01 -0.41176463098E-01 -0.22827007845E-01  0.51000646083E-01  0.51100000000E-03 0.  1.
</event>
<event>
 8    1  0.1030163E+005  0.1043930E+01  0.7957747E-01            NaN
         13   -1    0    0    0    0  0.00000000000E+00  0.00000000000E+00  0.74505805969E-08  0.10566000000E+00  0.10566000000E+00 0. -1.
     999900   -1    0    0    0    0 -0.00000000000E+00 -0.00000000000E+00 -0.74505805969E-08  0.93827000000E+00  0.93827000000E+00 0.  1.
     999902    2    1    2    0    0  0.13921881840E-01  0.94804097676E-02 -0.16796798111E-01  0.10201428314E+01  0.10198654652E+01 0.  0.
     999903    2    3    3    0    0  0.47580051302E-01  0.87429644459E-01  0.82010481538E-01  0.13055200744E+00  0.20255951026E-01 0.  0.
         14    1    1    2    0    0 -0.13921881840E-01 -0.94804097676E-02  0.16796798111E-01  0.23787168602E-01  0.00000000000E+00 0. -1.
     999901    1    3    3    0    0 -0.33658169462E-01 -0.77949234691E-01 -0.98807279649E-01  0.88959082396E+00  0.88000000000E+00 0.  1.
        -11    1    4    4    0    0  0.92798080039E-02  0.35361226316E-01  0.24318600119E-01  0.43911121552E-01  0.51100000000E-03 0. -1.
         11    1    4    4    0    0  0.38300243298E-01  0.52068418143E-01  0.57691881419E-01  0.86640885887E-01  0.51100000000E-03 0.  1.
</event>
<event>
 8    1  0.1030163E+005  0.1043930E+01  0.7957747E-01            NaN
         13   -1    0    0    0    0  0.00000000000E+00  0.00000000000E+00  0.74505805969E-08  0.10566000000E+00  0.10566000000E+00 0. -1.
     999900   -1    0    0    0    0 -0.00000000000E+00 -0.00000000000E+00 -0.74505805969E-08  0.93827000000E+00  0.93827000000E+00 0. -1.
     999902    2    1    2    0    0 -0.21508873310E-02 -0.33863534568E-02  0.23241477851E-01  0.10203448352E+01  0.10200722145E+01 0.  0.
     999903    2    3    3    0    0 -0.52073007049E-01 -0.45627440550E-01  0.11240428439E+00  0.13342514687E+00  0.19341284164E-01 0.  0.
         14    1    1    2    0    0  0.21508873310E-02  0.33863534568E-02 -0.23241477851E-01  0.23585164802E-01  0.00000000000E+00 0.  1.
     999901    1    3    3    0    0  0.49922119718E-01  0.42241087094E-01 -0.89162806540E-01  0.88691968833E+00  0.88000000000E+00 0. -1.
        -11    1    4    4    0    0 -0.12092375803E-01 -0.21215835373E-01  0.47084007800E-01  0.53042455964E-01  0.51100000000E-03 0.  1.
         11    1    4    4    0    0 -0.39980631246E-01 -0.24411605178E-01  0.65320276591E-01  0.80382690905E-01  0.51100000000E-03 0. -1.
</event>
<event>
 8    1  0.1030163E+005  0.1043930E+01  0.7957747E-01            NaN
         13   -1    0    0    0    0  0.00000000000E+00  0.00000000000E+00  0.74505805969E-08  0.10566000000E+00  0.10566000000E+00 0. -1.
     999900   -1    0    0    0    0 -0.00000000000E+00 -0.00000000000E+00 -0.74505805969E-08  0.93827000000E+00  0.93827000000E+00 0.  1.
     999902    2    1    2    0    0  0.22588716558E-01  0.22325915862E-02  0.42163621901E-02  0.10208429410E+01  0.10205818429E+01 0.  0.
     999903    2    3    3    0    0 -0.95583973337E-01  0.78575080377E-01  0.31357761924E-01  0.12925468641E+00  0.20325489186E-01 0.  0.
         14    1    1    2    0    0 -0.22588716558E-01 -0.22325915862E-02 -0.42163621901E-02  0.23087058951E-01  0.00000000000E+00 0.  1.
     999901    1    3    3    0    0  0.11817268989E+00 -0.76342488790E-01 -0.27141399734E-01  0.89158825464E+00  0.88000000000E+00 0. -1.
        -11    1    4    4    0    0 -0.31818779755E-01  0.20412324128E-01  0.18162637442E-01  0.41943297930E-01  0.51100000000E-03 0.  1.
         11    1    4    4    0    0 -0.63765193582E-01  0.58162756248E-01  0.13195124482E-01  0.87311388479E-01  0.51100000000E-03 0. -1.
</event>
<event>
 8    1  0.1030163E+005  0.1043930E+01  0.7957747E-01            NaN
         13   -1    0    0    0    0  0.00000000000E+00  0.00000000000E+00  0.74505805969E-08  0.10566000000E+00  0.10566000000E+00 0. -1.
     999900   -1    0    0    0    0 -0.00000000000E+00 -0.00000000000E+00 -0.74505805969E-08  0.93827000000E+00  0.93827000000E+00 0. -1.
     999902    2    1    2    0    0 -0.19789626660E-01  0.82487076634E-03 -0.14112138828E-01  0.10196100042E+01  0.10193199196E+01 0.  0.
     999903    2    3    3    0    0 -0.10732939412E+00  0.17611524364E-01  0.70312769009E-01  0.13108731583E+00  0.20254240382E-01 0.  0.
         14    1    1    2    0    0  0.19789626660E-01 -0.82487076634E-03  0.14112138828E-01  0.24319995835E-01  0.00000000000E+00 0. -1.
     999901    1    3    3    0    0  0.87539767457E-01 -0.16786653598E-01 -0.84424907837E-01  0.88852268834E+00  0.88000000000E+00 0. -1.
        -11    1    4    4    0    0 -0.59190576154E-01  0.16739474882E-01  0.47966925416E-01  0.78005265076E-01  0.51100000000E-03 0. -1.
         11    1    4    4    0    0 -0.48138817962E-01  0.87204948252E-03  0.22345843593E-01  0.53082050752E-01  0.51100000000E-03 0.  1.
</event>
<event>
 8    1  0.1030163E+005  0.1043930E+01  0.7957747E-01            NaN
         13   -1    0    0    0    0  0.00000000000E+00  0.00000000000E+00  0.74505805969E-08  0.10566000000E+00  0.10566000000E+00 0.  1.
     999900   -1    0    0    0    0 -0.00000000000E+00 -0.00000000000E+00 -0.74505805969E-08  0.93827000000E+00  0.93827000000E+00 0.  1.
     999902    2    1    2    0    0 -0.48925050526E-02  0.10805500539E-01 -0.20710517070E-01  0.10200632666E+01  0.10197840197E+01 0.  0.
     999903    2    3    3    0    0  0.98909320196E-01  0.82270206959E-01 -0.14032467131E-01  0.13106010597E+00  0.20697842145E-01 0.  0.
         14    1    1    2    0    0  0.48925050526E-02 -0.10805500539E-01  0.20710517070E-01  0.23866733435E-01  0.00000000000E+00 0.  1.
     999901    1    3    3    0    0 -0.10380182525E+00 -0.71464706421E-01 -0.66780499387E-02  0.88900316059E+00  0.88000000000E+00 0.  1.
        -11    1    4    4    0    0  0.71462618212E-01  0.48246215352E-01 -0.46742013249E-02  0.86352257507E-01  0.51100000000E-03 0. -1.
         11    1    4    4    0    0  0.27446701984E-01  0.34023991608E-01 -0.93582658060E-02  0.44707848468E-01  0.51100000000E-03 0.  1.
</event>
<event>
 8    1  0.1030163E+005  0.1043930E+01  0.7957747E-01            NaN
         13   -1    0    0    0    0  0.00000000000E+00  0.00000000000E+00  0.74505805969E-08  0.10566000000E+00  0.10566000000E+00 0.  1.
     999900   -1    0    0    0    0 -0.00000000000E+00 -0.00000000000E+00 -0.74505805969E-08  0.93827000000E+00  0.93827000000E+00 0. -1.
     999902    2    1    2    0    0  0.52302940377E-02  0.88244087376E-02 -0.21902599255E-01  0.10197442600E+01  0.10194574075E+01 0.  0.
     999903    2    3    3    0    0 -0.83783793596E-01 -0.27245332340E-01 -0.95307145736E-01  0.13148035695E+00  0.21014281602E-01 0.  0.
         14    1    1    2    0    0 -0.52302940377E-02 -0.88244087376E-02  0.21902599255E-01  0.24185740001E-01  0.00000000000E+00 0.  1.
     999901    1    3    3    0    0  0.89014087633E-01  0.36069741077E-01  0.73404546482E-01  0.88826390305E+00  0.88000000000E+00 0.  1.
        -11    1    4    4    0    0 -0.78814448585E-01 -0.27588604993E-01 -0.81056323377E-01  0.11637541455E+00  0.51100000000E-03 0. -1.
         11    1    4    4    0    0 -0.49693450111E-02  0.34327265327E-03 -0.14250822360E-01  0.15104942399E-01  0.51100000000E-03 0.  1.
</event>
<event>
 8    1  0.1030163E+005  0.1043930E+01  0.7957747E-01            NaN
         13   -1    0    0    0    0  0.00000000000E+00  0.00000000000E+00  0.74505805969E-08  0.10566000000E+00  0.10566000000E+00 0. -1.
     999900   -1    0    0    0    0 -0.00000000000E+00 -0.00000000000E+00 -0.74505805969E-08  0.93827000000E+00  0.93827000000E+00 0. -1.
     999902    2    1    2    0    0 -0.20167476947E-01 -0.10631758782E-01 -0.67076935957E-02  0.10201654345E+01  0.10198886013E+01 0.  0.
     999903    2    3    3    0    0  0.11361460840E+00 -0.56273085595E-01  0.11565178426E-01  0.12869772618E+00  0.18825832480E-01 0.  0.
         14    1    1    2    0    0  0.20167476947E-01  0.10631758782E-01  0.67076935957E-02  0.23764565525E-01  0.00000000000E+00 0.  1.
     999901    1    3    3    0    0 -0.13378208535E+00  0.45641326813E-01 -0.18272872021E-01  0.89146770829E+00  0.88000000000E+00 0.  1.
        -11    1    4    4    0    0  0.55868788231E-01 -0.32592425176E-01  0.14216567091E-01  0.66226577581E-01  0.51100000000E-03 0.  1.
         11    1    4    4    0    0  0.57745820170E-01 -0.23680660419E-01 -0.26513886649E-02  0.62471148603E-01  0.51100000000E-03 0. -1.
</event>
<event>
 8    1  0.1030163E+005  0.1043930E+01  0.7957747E-01            NaN
         13   -1    0    0    0    0  0.00000000000E+00  0.00000000000E+00  0.74505805969E-08  0.10566000000E+00  0.10566000000E+00 0.  1.
     999900   -1    0    0    0    0 -0.00000000000E+00 -0.00000000000E+00 -0.74505805969E-08  0.93827000000E+00  0.93827000000E+00 0.  1.
     999902    2    1    2    0    0  0.13072837583E-01  0.16486581533E-01  0.10380521450E-01  0.10204680802E+01  0.10201983342E+01 0.  0.
     999903    2    3    3    0    0 -0.29445216794E-01 -0.12041597252E+00  0.28983552867E-01  0.12867428848E+00  0.18708258809E-01 0.  0.
         14    1    1    2    0    0 -0.13072837583E-01 -0.16486581533E-01 -0.10380521450E-01  0.23461919757E-01  0.00000000000E+00 0. -1.
     999901    1    3    3    0    0  0.42518054376E-01  0.13690255406E+00 -0.18603031417E-01  0.89179379177E+00  0.88000000000E+00 0.  1.
        -11    1    4    4    0    0 -0.24702705846E-01 -0.11552939667E+00  0.24964933561E-01  0.12075087660E+00  0.51100000000E-03 0. -1.
         11    1    4    4    0    0 -0.47425109478E-02 -0.48865758555E-02  0.40186193066E-02  0.79234118795E-02  0.51100000000E-03 0.  1.
</event>
<event>
 8    1  0.1030163E+005  0.1043930E+01  0.7957747E-01            NaN
         13   -1    0    0    0    0  0.00000000000E+00  0.00000000000E+00  0.74505805969E-08  0.10566000000E+00  0.10566000000E+00 0.  1.
     999900   -1    0    0    0    0 -0.00000000000E+00 -0.00000000000E+00 -0.74505805969E-08  0.93827000000E+00  0.93827000000E+00 0.  1.
     999902    2    1    2    0    0 -0.19959090563E-01  0.58933139258E-02  0.90088797218E-02  0.10212527789E+01  0.10210009706E+01 0.  0.
     999903    2    3    3    0    0 -0.63475067513E-01 -0.41963921023E-01 -0.10543341998E+00  0.13148820598E+00  0.19567508770E-01 0.  0.
         14    1    1    2    0    0  0.19959090563E-01 -0.58933139258E-02 -0.90088797218E-02  0.22677221147E-01  0.00000000000E+00 0. -1.
     999901    1    3    3    0    0  0.43515976951E-01  0.47857234949E-01  0.11444229970E+00  0.88976457288E+00  0.88000000000E+00 0. -1.
        -11    1    4    4    0    0 -0.21823749655E-01 -0.23595542203E-01 -0.34071485543E-01  0.46841785928E-01  0.51100000000E-03 0.  1.
         11    1    4    4    0    0 -0.41651317859E-01 -0.18368378820E-01 -0.71361934433E-01  0.84646420048E-01  0.51100000000E-03 0. -1.
</event>
<event>
 8    1  0.1030163E+005  0.1043930E+01  0.7957747E-01            NaN
         13   -1    0    0    0    0  0.00000000000E+00  0.00000000000E+00  0.74505805969E-08  0.10566000000E+00  0.10566000000E+00 0. -1.
     999900   -1    0    0    0    0 -0.00000000000E+00 -0.00000000000E+00 -0.74505805969E-08  0.93827000000E+00  0.93827000000E+00 0. -1.
     999902    2    1    2    0    0 -0.20755219152E-01 -0.12993349493E-01 -0.63574405197E-02  0.10186313182E+01  0.10183171112E+01 0.  0.
     999903    2    3    3    0    0  0.58201361815E-01  0.15811822132E-01 -0.11154952662E+00  0.12839019657E+00  0.20083163303E-01 0.  0.
         14    1    1    2    0    0  0.20755219152E-01  0.12993349493E-01  0.63574405197E-02  0.25298681844E-01  0.00000000000E+00 0. -1.
     999901    1    3    3    0    0 -0.78956580967E-01 -0.28805171625E-01  0.10519208610E+00  0.89024112159E+00  0.88000000000E+00 0.  1.
        -11    1    4    4    0    0  0.10481738975E-01 -0.57340059566E-03 -0.36293846520E-01  0.37784918373E-01  0.51100000000E-03 0. -1.
         11    1    4    4    0    0  0.47719622840E-01  0.16385222728E-01 -0.75255680102E-01  0.90605278194E-01  0.51100000000E-03 0.  1.
</event>
<event>
 8    1  0.1030163E+005  0.1043930E+01  0.7957747E-01            NaN
         13   -1    0    0    0    0  0.00000000000E+00  0.00000000000E+00  0.74505805969E-08  0.10566000000E+00  0.10566000000E+00 0. -1.
     999900   -1    0    0    0    0 -0.00000000000E+00 -0.00000000000E+00 -0.74505805969E-08  0.93827000000E+00  0.93827000000E+00 0.  1.
     999902    2    1    2    0    0  0.16265876313E-01 -0.14956865195E-01  0.11805994318E-01  0.10188766958E+01  0.10185686296E+01 0.  0.
     999903    2    3    3    0    0 -0.11484980241E+00 -0.18152075049E-01 -0.47234835482E-01  0.12719998862E+00  0.20705856173E-01 0.  0.
         14    1    1    2    0    0 -0.16265876313E-01  0.14956865195E-01 -0.11805994318E-01  0.25053304183E-01  0.00000000000E+00 0. -1.
     999901    1    3    3    0    0  0.13111567872E+00  0.31952098547E-02  0.59040829800E-01  0.89167670720E+00  0.88000000000E+00 0. -1.
        -11    1    4    4    0    0 -0.31972680917E-01 -0.15426172614E-02 -0.40150781051E-02  0.32264748042E-01  0.51100000000E-03 0. -1.
         11    1    4    4    0    0 -0.82877121493E-01 -0.16609457788E-01 -0.43219757376E-01  0.94935240578E-01  0.51100000000E-03 0.  1.
</event>
<event>
 8    1  0.1030163E+005  0.1043930E+01  0.7957747E-01            NaN
         13   -1    0    0    0    0  0.00000000000E+00  0.00000000000E+00  0.74505805969E-08  0.10566000000E+00  0.10566000000E+00 0. -1.
     999900   -1    0    0    0    0 -0.00000000000E+00 -0.00000000000E+00 -0.74505805969E-08  0.93827000000E+00  0.93827000000E+00 0. -1.
     999902    2    1    2    0    0 -0.15018725415E-01  0.16896977583E-01 -0.78142199017E-02  0.10200107191E+01  0.10197302267E+01 0.  0.
     999903    2    3    3    0    0 -0.30127818612E-01 -0.76124999517E-01  0.97235818752E-01  0.12876614914E+00  0.20572207225E-01 0.  0.
         14    1    1    2    0    0  0.15018725415E-01 -0.16896977583E-01  0.78142199017E-02  0.23919280867E-01  0.00000000000E+00 0. -1.
     999901    1    3    3    0    0  0.15109093198E-01  0.93021977100E-01 -0.10505003865E+00  0.89124456999E+00  0.88000000000E+00 0. -1.
        -11    1    4    4    0    0 -0.11403413529E-01 -0.31748953751E-01  0.25203458239E-01  0.42113054183E-01  0.51100000000E-03 0.  1.
         11    1    4    4    0    0 -0.18724405084E-01 -0.44376045766E-01  0.72032360513E-01  0.86653094957E-01  0.51100000000E-03 0. -1.
</event>
<event>
 8    1  0.1030163E+005  0.1043930E+01  0.7957747E-01            NaN
         13   -1    0    0    0    0  0.00000000000E+00  0.00000000000E+00  0.74505805969E-08  0.10566000000E+00  0.10566000000E+00 0. -1.
     999900   -1    0    0    0    0 -0.00000000000E+00 -0.00000000000E+00 -0.74505805969E-08  0.93827000000E+00  0.93827000000E+00 0. -1.
     999902    2    1    2    0    0 -0.11452571334E-01  0.12319346157E-01  0.16604444527E-01  0.10202945339E+01  0.10200207354E+01 0.  0.
     999903    2    3    3    0    0  0.10830860128E+00 -0.13105952411E-01 -0.60834421498E-01  0.12845039827E+00  0.29935912824E-01 0.  0.
         14    1    1    2    0    0  0.11452571334E-01 -0.12319346157E-01 -0.16604444527E-01  0.23635466104E-01  0.00000000000E+00 0.  1.
     999901    1    3    3    0    0 -0.11976117262E+00  0.25425298568E-01  0.77438866026E-01  0.89184413562E+00  0.88000000000E+00 0. -1.
        -11    1    4    4    0    0  0.78508405542E-01  0.28431535274E-02 -0.35516934031E-01  0.86216976209E-01  0.51100000000E-03 0.  1.
         11    1    4    4    0    0  0.29800195743E-01 -0.15949105939E-01 -0.25317487468E-01  0.42233422064E-01  0.51100000000E-03 0. -1.
</event>
<event>
 8    1  0.1030163E+005  0.1043930E+01  0.7957747E-01            NaN
         13   -1    0    0    0    0  0.00000000000E+00  0.00000000000E+00  0.74505805969E-08  0.10566000000E+00  0.10566000000E+00 0. -1.
     999900   -1    0    0    0    0 -0.00000000000E+00 -0.00000000000E+00 -0.74505805969E-08  0.93827000000E+00  0.93827000000E+00 0.  1.
     999902    2    1    2    0    0 -0.39740019706E-02 -0.11123319025E-01 -0.19641420982E-01  0.10210104377E+01  0.10207531570E+01 0.  0.
     999903    2    3    3    0    0 -0.30669265900E-01  0.10988081928E+00  0.56845345314E-01  0.12904358629E+00  0.20160743079E-01 0.  0.
         14    1    1    2    0    0  0.39740019706E-02  0.11123319025E-01  0.19641420982E-01  0.22919562300E-01  0.00000000000E+00 0. -1.
     999901    1    3    3    0    0  0.26695263929E-01 -0.12100413830E+00 -0.76486766297E-01  0.89196685141E+00  0.88000000000E+00 0. -1.
        -11    1    4    4    0    0 -0.25070182848E-01  0.59361415045E-01  0.25358883072E-01  0.69250456574E-01  0.51100000000E-03 0.  1.
         11    1    4    4    0    0 -0.55990830524E-02  0.50519404234E-01  0.31486462242E-01  0.59793129712E-01  0.51100000000E-03 0. -1.
</event>
<event>
 8    1  0.1030163E+005  0.1043930E+01  0.7957747E-01            NaN
         13   -1    0    0    0    0  0.00000000000E+00  0.00000000000E+00  0.74505805969E-08  0.10566000000E+00  0.10566000000E+00 0.  1.
     999900   -1    0    0    0    0 -0.00000000000E+00 -0.00000000000E+00 -0.74505805969E-08  0.93827000000E+00  0.93827000000E+00 0.  1.
     999902    2    1    2    0    0  0.21380638440E-01 -0.56345295519E-02  0.72247686671E-02  0.10206689401E+01  0.10204038458E+01 0.  0.
     999903    2    3    3    0    0 -0.11866402679E+00 -0.43900376540E-01  0.11948448691E-01  0.12876137965E+00  0.20696211012E-01 0.  0.
         14    1    1    2    0    0 -0.21380638440E-01  0.56345295519E-02 -0.72247686671E-02  0.23261059857E-01  0.00000000000E+00 0.  1.
     999901    1    3    3    0    0  0.14004466523E+00  0.38265846988E-01 -0.47236800237E-02  0.89190756049E+00  0.88000000000E+00 0. -1.
        -11    1    4    4    0    0 -0.98329163777E-01 -0.43791040166E-01  0.72527907689E-02  0.10788486336E+00  0.51100000000E-03 0. -1.
         11    1    4    4    0    0 -0.20334863011E-01 -0.10933637448E-03  0.46956579220E-02  0.20876516291E-01  0.51100000000E-03 0.  1.
</event>
<event>
 8    1  0.1030163E+005  0.1043930E+01  0.7957747E-01            NaN
         13   -1    0    0    0    0  0.00000000000E+00  0.00000000000E+00  0.74505805969E-08  0.10566000000E+00  0.10566000000E+00 0.  1.
     999900   -1    0    0    0    0 -0.00000000000E+00 -0.00000000000E+00 -0.74505805969E-08  0.93827000000E+00  0.93827000000E+00 0. -1.
     999902    2    1    2    0    0 -0.17192318778E-01 -0.12875260895E-01 -0.31672260703E-02  0.10222187244E+01  0.10219881315E+01 0.  0.
     999903    2    3    3    0    0 -0.11141387669E+00 -0.49113431394E-01 -0.54565176373E-01  0.13495740083E+00  0.20272160761E-01 0.  0.
         14    1    1    2    0    0  0.17192318778E-01  0.12875260895E-01  0.31672260703E-02  0.21711275620E-01  0.00000000000E+00 0.  1.
     999901    1    3    3    0    0  0.94221557917E-01  0.36238170499E-01  0.51397950302E-01  0.88726132355E+00  0.88000000000E+00 0.  1.
        -11    1    4    4    0    0 -0.10184159836E+00 -0.39429471936E-01 -0.52509581608E-01  0.12117719132E+00  0.51100000000E-03 0. -1.
         11    1    4    4    0    0 -0.95722783332E-02 -0.96839594585E-02 -0.20555947641E-02  0.13780209509E-01  0.51100000000E-03 0.  1.
</event>
<event>
 8    1  0.1224499E+005  0.1043930E+01  0.7957747E-01            NaN
         13   -1    0    0    0    0  0.00000000000E+00  0.00000000000E+00  0.74505805969E-08  0.10566000000E+00  0.10566000000E+00 0. -1.
     999900   -1    0    0    0    0 -0.00000000000E+00 -0.00000000000E+00 -0.74505805969E-08  0.93827000000E+00  0.93827000000E+00 0.  1.
     999902    2    1    2    0    0 -0.35230310903E-02 -0.66796717626E-02 -0.21887334832E-01  0.10207764865E+01  0.10205138657E+01 0.  0.
     999903    2    3    3    0    0 -0.37253308356E-01 -0.14955384194E-03  0.12136046024E+00  0.12853195449E+00  0.20106483199E-01 0.  0.
         14    1    1    2    0    0  0.35230310903E-02  0.66796717626E-02  0.21887334832E-01  0.23153513534E-01  0.00000000000E+00 0.  1.
     999901    1    3    3    0    0  0.33730277266E-01 -0.65301179207E-02 -0.14324779507E+00  0.89224453197E+00  0.88000000000E+00 0.  1.
        -11    1    4    4    0    0 -0.13203671099E-01 -0.97621992215E-02  0.47037158507E-01  0.49823617548E-01  0.51100000000E-03 0. -1.
         11    1    4    4    0    0 -0.24049637257E-01  0.96126453795E-02  0.74323301731E-01  0.78708336945E-01  0.51100000000E-03 0.  1.
</event>
<event>
 8    1  0.1030163E+005  0.1043930E+01  0.7957747E-01            NaN
         13   -1    0    0    0    0  0.00000000000E+00  0.00000000000E+00  0.74505805969E-08  0.10566000000E+00  0.10566000000E+00 0.  1.
     999900   -1    0    0    0    0 -0.00000000000E+00 -0.00000000000E+00 -0.74505805969E-08  0.93827000000E+00  0.93827000000E+00 0.  1.
     999902    2    1    2    0    0  0.12941351023E-01  0.19284527823E-01 -0.65137673940E-02  0.10198094539E+01  0.10195241642E+01 0.  0.
     999903    2    3    3    0    0  0.64223129389E-01 -0.99174574804E-01 -0.48469139827E-01  0.12940357279E+00  0.20876314339E-01 0.  0.
         14    1    1    2    0    0 -0.12941351023E-01 -0.19284527823E-01  0.65137673940E-02  0.24120546124E-01  0.00000000000E+00 0.  1.
     999901    1    3    3    0    0 -0.51281778366E-01  0.11845910263E+00  0.41955372433E-01  0.89040588108E+00  0.88000000000E+00 0.  1.
        -11    1    4    4    0    0  0.24967266789E-01 -0.49644870751E-01 -0.13563128498E-01  0.57203122104E-01  0.51100000000E-03 0. -1.
         11    1    4    4    0    0  0.39255862600E-01 -0.49529704054E-01 -0.34906011329E-01  0.72200450691E-01  0.51100000000E-03 0.  1.
</event>
<event>
 8    1  0.1030163E+005  0.1043930E+01  0.7957747E-01            NaN
         13   -1    0    0    0    0  0.00000000000E+00  0.00000000000E+00  0.74505805969E-08  0.10566000000E+00  0.10566000000E+00 0.  1.
     999900   -1    0    0    0    0 -0.00000000000E+00 -0.00000000000E+00 -0.74505805969E-08  0.93827000000E+00  0.93827000000E+00 0. -1.
     999902    2    1    2    0    0 -0.80041717072E-03  0.32394601852E-02 -0.22905710752E-01  0.10207825087E+01  0.10205200261E+01 0.  0.
     999903    2    3    3    0    0 -0.46185612426E-01 -0.90628753816E-01  0.77425380406E-01  0.12896560739E+00  0.17051584836E-01 0.  0.
         14    1    1    2    0    0  0.80041717072E-03 -0.32394601852E-02  0.22905710752E-01  0.23147491333E-01  0.00000000000E+00 0.  1.
     999901    1    3    3    0    0  0.45385195256E-01  0.93868214001E-01 -0.10033109116E+00  0.89181690128E+00  0.88000000000E+00 0. -1.
        -11    1    4    4    0    0 -0.33640626361E-01 -0.63931666086E-01  0.64147692118E-01  0.96613338601E-01  0.51100000000E-03 0. -1.
         11    1    4    4    0    0 -0.12544986065E-01 -0.26697087730E-01  0.13277688288E-01  0.32352268791E-01  0.51100000000E-03 0.  1.
</event>
<event>
 8    1  0.1030163E+005  0.1043930E+01  0.7957747E-01            NaN
         13   -1    0    0    0    0  0.00000000000E+00  0.00000000000E+00  0.74505805969E-08  0.10566000000E+00  0.10566000000E+00 0.  1.
     999900   -1    0    0    0    0 -0.00000000000E+00 -0.00000000000E+00 -0.74505805969E-08  0.93827000000E+00  0.93827000000E+00 0.  1.
     999902    2    1    2    0    0  0.46166024472E-02  0.19138272435E-01 -0.10891227562E-01  0.10214309927E+01  0.10211831704E+01 0.  0.
     999903    2    3    3    0    0  0.26279543643E-01  0.78836220539E-03 -0.12886209514E+00  0.13310496710E+00  0.20500165252E-01 0.  0.
         14    1    1    2    0    0 -0.46166024472E-02 -0.19138272435E-01  0.10891227562E-01  0.22499007262E-01  0.00000000000E+00 0. -1.
     999901    1    3    3    0    0 -0.21662941196E-01  0.18349910230E-01  0.11797086757E+00  0.88832602564E+00  0.88000000000E+00 0. -1.
        -11    1    4    4    0    0  0.51262624196E-03 -0.13691743831E-02 -0.51718448399E-01  0.51741631691E-01  0.51100000000E-03 0.  1.
         11    1    4    4    0    0  0.25766917401E-01  0.21575365885E-02 -0.77143646736E-01  0.81363335411E-01  0.51100000000E-03 0. -1.
</event>
<event>
 8    1  0.1030163E+005  0.1043930E+01  0.7957747E-01            NaN
         13   -1    0    0    0    0  0.00000000000E+00  0.00000000000E+00  0.74505805969E-08  0.10566000000E+00  0.10566000000E+00 0.  1.
     999900   -1    0    0    0    0 -0.00000000000E+00 -0.00000000000E+00 -0.74505805969E-08  0.93827000000E+00  0.93827000000E+00 0.  1.
     999902    2    1    2    0    0 -0.16149614135E-01 -0.11551846159E-01 -0.11552345703E-01  0.10209580197E+01  0.10206995475E+01 0.  0.
     999903    2    3    3    0    0 -0.10058784702E+00  0.33430535531E-01  0.75388969453E-01  0.13151323667E+00  0.19409251118E-01 0.  0.
         14    1    1    2    0    0  0.16149614135E-01  0.11551846159E-01  0.11552345703E-01  0.22971980272E-01  0.00000000000E+00 0.  1.
     999901    1    3    3    0    0  0.84438232886E-01 -0.44982381691E-01 -0.86941315156E-01  0.88944478306E+00  0.88000000000E+00 0.  1.
        -11    1    4    4    0    0 -0.39675511022E-01  0.21250061820E-01  0.24740484382E-01  0.51362087094E-01  0.51100000000E-03 0.  1.
         11    1    4    4    0    0 -0.60912335998E-01  0.12180473711E-01  0.50648485071E-01  0.80151149571E-01  0.51100000000E-03 0. -1.
</event>
<event>
 8    1  0.1030163E+005  0.1043930E+01  0.7957747E-01            NaN
         13   -1    0    0    0    0  0.00000000000E+00  0.00000000000E+00  0.74505805969E-08  0.10566000000E+00  0.10566000000E+00 0. -1.
     999900   -1    0    0    0    0 -0.00000000000E+00 -0.00000000000E+00 -0.74505805969E-08  0.93827000000E+00  0.93827000000E+00 0.  1.
     999902    2    1    2    0    0 -0.15366131273E-03  0.20756418633E-01  0.13659853502E-01  0.10190815770E+01  0.10187785905E+01 0.  0.
     999903    2    3    3    0    0  0.39300691178E-01  0.11632032874E+00  0.45560086307E-01  0.13245497485E+00  0.19840254389E-01 0.  0.
         14    1    1    2    0    0  0.15366131273E-03 -0.20756418633E-01 -0.13659853502E-01  0.24848422967E-01  0.00000000000E+00 0.  1.
     999901    1    3    3    0    0 -0.39454352491E-01 -0.95563910103E-01 -0.31900232805E-01  0.88662660218E+00  0.88000000000E+00 0.  1.
        -11    1    4    4    0    0  0.12465464530E-01  0.54204180796E-01  0.11907132611E-01  0.56881648620E-01  0.51100000000E-03 0.  1.
         11    1    4    4    0    0  0.26835226648E-01  0.62116147939E-01  0.33652953696E-01  0.75573326230E-01  0.51100000000E-03 0. -1.
</event>
<event>
 8    1  0.1030163E+005  0.1043930E+01  0.7957747E-01            NaN
         13   -1    0    0    0    0  0.00000000000E+00  0.00000000000E+00  0.74505805969E-08  0.10566000000E+00  0.10566000000E+00 0. -1.
     999900   -1    0    0    0    0 -0.00000000000E+00 -0.00000000000E+00 -0.74505805969E-08  0.93827000000E+00  0.93827000000E+00 0. -1.
     999902    2    1    2    0    0 -0.19117676257E-01 -0.17699648279E-01 -0.31229361777E-02  0.10176904149E+01  0.10173520850E+01 0.  0.
     999903    2    3    3    0    0 -0.10941723306E-01  0.11689872943E+00  0.44230045691E-01  0.12616034006E+00  0.13232543671E-01 0.  0.
         14    1    1    2    0    0  0.19117676257E-01  0.17699648279E-01  0.31229361777E-02  0.26239585078E-01  0.00000000000E+00 0. -1.
     999901    1    3    3    0    0 -0.81759529513E-02 -0.13459837771E+00 -0.47352981869E-01  0.89153007486E+00  0.88000000000E+00 0. -1.
        -11    1    4    4    0    0 -0.13076193905E-01  0.10628462917E+00  0.37827837490E-01  0.11357207252E+00  0.51100000000E-03 0.  1.
         11    1    4    4    0    0  0.21344705984E-02  0.10614100255E-01  0.64022082013E-02  0.12588267546E-01  0.51100000000E-03 0. -1.
</event>
<event>
 8    1  0.1030163E+005  0.1043930E+01  0.7957747E-01            NaN
         13   -1    0    0    0    0  0.00000000000E+00  0.00000000000E+00  0.74505805969E-08  0.10566000000E+00  0.10566000000E+00 0. -1.
     999900   -1    0    0    0    0 -0.00000000000E+00 -0.00000000000E+00 -0.74505805969E-08  0.93827000000E+00  0.93827000000E+00 0.  1.
     999902    2    1    2    0    0  0.18141337797E-01  0.12909378576E-01 -0.33179668921E-02  0.10214184675E+01  0.10211703661E+01 0.  0.
     999903    2    3    3    0    0 -0.55329799204E-01  0.10932011479E+00 -0.42283462625E-01  0.13225518220E+00  0.26291972698E-01 0.  0.
         14    1    1    2    0    0 -0.18141337797E-01 -0.12909378576E-01  0.33179668921E-02  0.22511532524E-01  0.00000000000E+00 0. -1.
     999901    1    3    3    0    0  0.73471137001E-01 -0.96410736216E-01  0.38965495733E-01  0.88916328528E+00  0.88000000000E+00 0. -1.
        -11    1    4    4    0    0 -0.29696799895E-01  0.79883463576E-01 -0.20923663273E-01  0.87757213280E-01  0.51100000000E-03 0. -1.
         11    1    4    4    0    0 -0.25632999309E-01  0.29436651216E-01 -0.21359799352E-01  0.44497968917E-01  0.51100000000E-03 0.  1.
</event>
<event>
 8    1  0.1030163E+005  0.1043930E+01  0.7957747E-01            NaN
         13   -1    0    0    0    0  0.00000000000E+00  0.00000000000E+00  0.74505805969E-08  0.10566000000E+00  0.10566000000E+00 0. -1.
     999900   -1    0    0    0    0 -0.00000000000E+00 -0.00000000000E+00 -0.74505805969E-08  0.93827000000E+00  0.93827000000E+00 0.  1.
     999902    2    1    2    0    0  0.18525778910E-01 -0.13358047886E-01 -0.24031163293E-02  0.10209644411E+01  0.10207061149E+01 0.  0.
     999903    2    3    3    0    0 -0.11107831542E+00 -0.60751402263E-01  0.20619781750E-01  0.12991258787E+00  0.20566478909E-01 0.  0.
         14    1    1    2    0    0 -0.18525778910E-01  0.13358047886E-01  0.24031163293E-02  0.22965558901E-01  0.00000000000E+00 0.  1.
     999901    1    3    3    0    0  0.12960409433E+00  0.47393354377E-01 -0.23022898079E-01  0.89105185323E+00  0.88000000000E+00 0. -1.
        -11    1    4    4    0    0 -0.16437952129E-01 -0.84952991114E-02  0.10621335403E-01  0.21341280747E-01  0.51100000000E-03 0. -1.
         11    1    4    4    0    0 -0.94640363289E-01 -0.52256103152E-01  0.99984463469E-02  0.10857130712E+00  0.51100000000E-03 0.  1.
</event>
<event>
 8    1  0.1030163E+005  0.1043930E+01  0.7957747E-01            NaN
         13   -1    0    0    0    0  0.00000000000E+00  0.00000000000E+00  0.74505805969E-08  0.10566000000E+00  0.10566000000E+00 0. -1.
     999900   -1    0    0    0    0 -0.00000000000E+00 -0.00000000000E+00 -0.74505805969E-08  0.93827000000E+00  0.93827000000E+00 0.  1.
     999902    2    1    2    0    0 -0.14056751101E-01 -0.26623437154E-02  0.20391489079E-01  0.10190203000E+01  0.10187157988E+01 0.  0.
     999903    2    3    3    0    0  0.27159443675E-01 -0.12417941928E+00 -0.11538503673E-01  0.12914126398E+00  0.19651092668E-01 0.  0.
         14    1    1    2    0    0  0.14056751101E-01  0.26623437154E-02 -0.20391489079E-01  0.24909699967E-01  0.00000000000E+00 0.  1.
     999901    1    3    3    0    0 -0.41216194776E-01  0.12151707556E+00  0.31929992752E-01  0.88987903605E+00  0.88000000000E+00 0. -1.
        -11    1    4    4    0    0  0.13673988495E-01 -0.34862818207E-01  0.33124703302E-02  0.37598239791E-01  0.51100000000E-03 0.  1.
         11    1    4    4    0    0  0.13485455180E-01 -0.89316601071E-01 -0.14850974003E-01  0.91543024192E-01  0.51100000000E-03 0. -1.
</event>
<event>
 8    1  0.1030163E+005  0.1043930E+01  0.7957747E-01            NaN
         13   -1    0    0    0    0  0.00000000000E+00  0.00000000000E+00  0.74505805969E-08  0.10566000000E+00  0.10566000000E+00 0.  1.
     999900   -1    0    0    0    0 -0.00000000000E+00 -0.00000000000E+00 -0.74505805969E-08  0.93827000000E+00  0.93827000000E+00 0. -1.
     999902    2    1    2    0    0 -0.14876562410E-01 -0.12049885186E-01 -0.13915691517E-01  0.10202623361E+01  0.10199877824E+01 0.  0.
     999903    2    3    3    0    0 -0.61923668125E-01 -0.11368592580E+00  0.19675052487E-01  0.13252833714E+00  0.20435803224E-01 0.  0.
         14    1    1    2    0    0  0.14876562410E-01  0.12049885186E-01  0.13915691517E-01  0.23667663858E-01  0.00000000000E+00 0.  1.
     999901    1    3    3    0    0  0.47047105715E-01  0.10163604062E+00 -0.33590744003E-01  0.88773399901E+00  0.88000000000E+00 0.  1.
        -11    1    4    4    0    0 -0.15616184840E-01 -0.43847729973E-01  0.43473700857E-03  0.46550389579E-01  0.51100000000E-03 0.  1.
         11    1    4    4    0    0 -0.46307483285E-01 -0.69838195832E-01  0.19240315478E-01  0.85977947556E-01  0.51100000000E-03 0. -1.
</event>
<event>
 8    1  0.1030163E+005  0.1043930E+01  0.7957747E-01            NaN
         13   -1    0    0    0    0  0.00000000000E+00  0.00000000000E+00  0.74505805969E-08  0.10566000000E+00  0.10566000000E+00 0. -1.
     999900   -1    0    0    0    0 -0.00000000000E+00 -0.00000000000E+00 -0.74505805969E-08  0.93827000000E+00  0.93827000000E+00 0.  1.
     999902    2    1    2    0    0  0.19111765421E-01 -0.11535022077E-02  0.14518971979E-01  0.10199010447E+01  0.10196179433E+01 0.  0.
     999903    2    3    3    0    0  0.41571498467E-01  0.91578890471E-01  0.83301310802E-01  0.13207519107E+00  0.19745000650E-01 0.  0.
         14    1    1    2    0    0 -0.19111765421E-01  0.11535022077E-02 -0.14518971979E-01  0.24028955287E-01  0.00000000000E+00 0.  1.
     999901    1    3    3    0    0 -0.22459733046E-01 -0.92732392678E-01 -0.68782338823E-01  0.88782585364E+00  0.88000000000E+00 0.  1.
        -11    1    4    4    0    0  0.39051906334E-01  0.66561177200E-01  0.59480994325E-01  0.97435576180E-01  0.51100000000E-03 0. -1.
         11    1    4    4    0    0  0.25195921331E-02  0.25017713271E-01  0.23820316477E-01  0.34639614892E-01  0.51100000000E-03 0.  1.
</event>
<event>
 8    1  0.1030163E+005  0.1043930E+01  0.7957747E-01            NaN
         13   -1    0    0    0    0  0.00000000000E+00  0.00000000000E+00  0.74505805969E-08  0.10566000000E+00  0.10566000000E+00 0. -1.
     999900   -1    0    0    0    0 -0.00000000000E+00 -0.00000000000E+00 -0.74505805969E-08  0.93827000000E+00  0.93827000000E+00 0. -1.
     999902    2    1    2    0    0  0.51523354066E-03  0.31066163295E-03 -0.23619790190E-01  0.10203025485E+01  0.10200289378E+01 0.  0.
     999903    2    3    3    0    0  0.71855966053E-01  0.84356567103E-01 -0.68374839432E-01  0.13229566295E+00  0.23403279596E-01 0.  0.
         14    1    1    2    0    0 -0.51523354066E-03 -0.31066163295E-03  0.23619790190E-01  0.23627451511E-01  0.00000000000E+00 0. -1.
     999901    1    3    3    0    0 -0.71340732512E-01 -0.84045905471E-01  0.44755049242E-01  0.88800688554E+00  0.88000000000E+00 0.  1.
        -11    1    4    4    0    0  0.57909120029E-01  0.73246514175E-01 -0.65897916604E-01  0.11428610832E+00  0.51100000000E-03 0. -1.
         11    1    4    4    0    0  0.13946846023E-01  0.11110052929E-01 -0.24769228285E-02  0.18009554625E-01  0.51100000000E-03 0.  1.
</event>
<event>
 8    1  0.1030163E+005  0.1043930E+01  0.7957747E-01            NaN
         13   -1    0    0    0    0  0.00000000000E+00  0.00000000000E+00  0.74505805969E-08  0.10566000000E+00  0.10566000000E+00 0. -1.
     999900   -1    0    0    0    0 -0.00000000000E+00 -0.00000000000E+00 -0.74505805969E-08  0.93827000000E+00  0.93827000000E+00 0. -1.
     999902    2    1    2    0    0  0.20129677754E-01  0.29974552831E-02 -0.11926991016E-01  0.10203409818E+01  0.10200682709E+01 0.  0.
     999903    2    3    3    0    0  0.11740562868E+00 -0.19564402048E-01  0.53948714721E-01  0.13224681076E+00  0.20295508483E-01 0.  0.
         14    1    1    2    0    0 -0.20129677754E-01 -0.29974552831E-02  0.11926991016E-01  0.23589018194E-01  0.00000000000E+00 0. -1.
     999901    1    3    3    0    0 -0.97275950922E-01  0.22561857331E-01 -0.65875705737E-01  0.88809417104E+00  0.88000000000E+00 0. -1.
        -11    1    4    4    0    0  0.29893393961E-01 -0.23854630805E-02  0.23173894332E-01  0.37902452904E-01  0.51100000000E-03 0. -1.
         11    1    4    4    0    0  0.87512234715E-01 -0.17178938968E-01  0.30774820389E-01  0.94344357859E-01  0.51100000000E-03 0.  1.
</event>
<event>
 8    1  0.1030163E+005  0.1043930E+01  0.7957747E-01            NaN
         13   -1    0    0    0    0  0.00000000000E+00  0.00000000000E+00  0.74505805969E-08  0.10566000000E+00  0.10566000000E+00 0.  1.
     999900   -1    0    0    0    0 -0.00000000000E+00 -0.00000000000E+00 -0.74505805969E-08  0.93827000000E+00  0.93827000000E+00 0.  1.
     999902    2    1    2    0    0  0.48959844918E-02 -0.13650416953E-01  0.13480296618E-01  0.10241304307E+01  0.10239390197E+01 0.  0.
     999903    2    3    3    0    0  0.10989124378E+00 -0.22002033763E-01 -0.70359842703E-01  0.13389286526E+00  0.20411196772E-01 0.  0.
         14    1    1    2    0    0 -0.48959844918E-02  0.13650416953E-01 -0.13480296618E-01  0.19799569289E-01  0.00000000000E+00 0. -1.
     999901    1    3    3    0    0 -0.10499525929E+00  0.83516168095E-02  0.83840139321E-01  0.89023756545E+00  0.88000000000E+00 0. -1.
        -11    1    4    4    0    0  0.82652639643E-01 -0.24698275315E-01 -0.57293399868E-01  0.10355799550E+00  0.51100000000E-03 0. -1.
         11    1    4    4    0    0  0.27238604136E-01  0.26962415526E-02 -0.13066442835E-01  0.30334869756E-01  0.51100000000E-03 0.  1.
</event>
<event>
 8    1  0.1030163E+005  0.1043930E+01  0.7957747E-01            NaN
         13   -1    0    0    0    0  0.00000000000E+00  0.00000000000E+00  0.74505805969E-08  0.10566000000E+00  0.10566000000E+00 0. -1.
     999900   -1    0    0    0    0 -0.00000000000E+00 -0.00000000000E+00 -0.74505805969E-08  0.93827000000E+00  0.93827000000E+00 0.  1.
     999902    2    1    2    0    0  0.19295457175E-01  0.14314046427E-01  0.60810711439E-03  0.10198971810E+01  0.10196139875E+01 0.  0.
     999903    2    3    3    0    0  0.86096252203E-01  0.54425650417E-01  0.82346522125E-01  0.13268105434E+00  0.21180094626E-01 0.  0.
         14    1    1    2    0    0 -0.19295457175E-01 -0.14314046427E-01 -0.60810711439E-03  0.24032818956E-01  0.00000000000E+00 0.  1.
     999901    1    3    3    0    0 -0.66800795029E-01 -0.40111603990E-01 -0.81738415011E-01  0.88721612670E+00  0.88000000000E+00 0.  1.
        -11    1    4    4    0    0  0.15432866018E-01  0.15848420679E-01  0.27351646450E-01  0.35181237558E-01  0.51100000000E-03 0.  1.
         11    1    4    4    0    0  0.70663386186E-01  0.38577229738E-01  0.54994875675E-01  0.97499816785E-01  0.51100000000E-03 0. -1.
</event>
<event>
 8    1  0.1030163E+005  0.1043930E+01  0.7957747E-01            NaN
         13   -1    0    0    0    0  0.00000000000E+00  0.00000000000E+00  0.74505805969E-08  0.10566000000E+00  0.10566000000E+00 0.  1.
     999900   -1    0    0    0    0 -0.00000000000E+00 -0.00000000000E+00 -0.74505805969E-08  0.93827000000E+00  0.93827000000E+00 0.  1.
     999902    2    1    2    0    0 -0.20987948660E-01  0.67828296187E-02  0.88743915270E-02  0.10201548956E+01  0.10198778139E+01 0.  0.
     999903    2    3    3    0    0 -0.10879572565E+00 -0.27892875027E-01  0.69418953713E-01  0.13303694725E+00  0.16288517503E-01 0.  0.
         14    1    1    2    0    0  0.20987948660E-01 -0.67828296187E-02 -0.88743915270E-02  0.23775104449E-01  0.00000000000E+00 0. -1.
     999901    1    3    3    0    0  0.87807776985E-01  0.34675704646E-01 -0.60544562186E-01  0.88711794830E+00  0.88000000000E+00 0.  1.
        -11    1    4    4    0    0 -0.58298525588E-01 -0.22166147571E-01  0.33476375303E-01  0.70788311241E-01  0.51100000000E-03 0. -1.
         11    1    4    4    0    0 -0.50497200057E-01 -0.57267274559E-02  0.35942578410E-01  0.62248636007E-01  0.51100000000E-03 0.  1.
</event>
<event>
 8    1  0.1205980E+005  0.1043930E+01  0.7957747E-01            NaN
         13   -1    0    0    0    0  0.00000000000E+00  0.00000000000E+00  0.74505805969E-08  0.10566000000E+00  0.10566000000E+00 0. -1.
     999900   -1    0    0    0    0 -0.00000000000E+00 -0.00000000000E+00 -0.74505805969E-08  0.93827000000E+00  0.93827000000E+00 0.  1.
     999902    2    1    2    0    0 -0.10996318595E-01 -0.20651980510E-01 -0.10255218055E-01  0.10183841037E+01  0.10180636472E+01 0.  0.
     999903    2    3    3    0    0  0.26501988399E-02  0.80984599804E-01  0.94306199165E-01  0.12628023536E+00  0.22079621421E-01 0.  0.
         14    1    1    2    0    0  0.10996318595E-01  0.20651980510E-01  0.10255218055E-01  0.25545896324E-01  0.00000000000E+00 0. -1.
     999901    1    3    3    0    0 -0.13646517435E-01 -0.10163658031E+00 -0.10456141722E+00  0.89210386832E+00  0.88000000000E+00 0.  1.
        -11    1    4    4    0    0  0.11267123651E-01  0.44006328256E-01  0.43924069173E-01  0.63190901051E-01  0.51100000000E-03 0. -1.
         11    1    4    4    0    0 -0.86169248114E-02  0.36978271548E-01  0.50382129992E-01  0.63089334307E-01  0.51100000000E-03 0.  1.
</event>
<event>
 8    1  0.1030163E+005  0.1043930E+01  0.7957747E-01            NaN
         13   -1    0    0    0    0  0.00000000000E+00  0.00000000000E+00  0.74505805969E-08  0.10566000000E+00  0.10566000000E+00 0.  1.
     999900   -1    0    0    0    0 -0.00000000000E+00 -0.00000000000E+00 -0.74505805969E-08  0.93827000000E+00  0.93827000000E+00 0.  1.
     999902    2    1    2    0    0 -0.26274715181E-01  0.88967137551E-03  0.31469029391E-02  0.10174525535E+01  0.10171079803E+01 0.  0.
     999903    2    3    3    0    0  0.17807786340E-02  0.83421334537E-01 -0.94870811797E-01  0.12773009200E+00  0.18767398434E-01 0.  0.
         14    1    1    2    0    0  0.26274715181E-01 -0.88967137551E-03 -0.31469029391E-02  0.26477446461E-01  0.00000000000E+00 0. -1.
     999901    1    3    3    0    0 -0.28055493815E-01 -0.82531663162E-01  0.98017714736E-01  0.88972246153E+00  0.88000000000E+00 0. -1.
        -11    1    4    4    0    0  0.40237534233E-02  0.52844169397E-01 -0.46761222091E-01  0.70679345239E-01  0.51100000000E-03 0. -1.
         11    1    4    4    0    0 -0.22429747893E-02  0.30577165140E-01 -0.48109589705E-01  0.57050746766E-01  0.51100000000E-03 0.  1.
</event>
<event>
 8    1  0.1030163E+005  0.1043930E+01  0.7957747E-01            NaN
         13   -1    0    0    0    0  0.00000000000E+00  0.00000000000E+00  0.74505805969E-08  0.10566000000E+00  0.10566000000E+00 0.  1.
     999900   -1    0    0    0    0 -0.00000000000E+00 -0.00000000000E+00 -0.74505805969E-08  0.93827000000E+00  0.93827000000E+00 0.  1.
     999902    2    1    2    0    0  0.12149499806E-01 -0.18314949554E-01  0.98881176416E-02  0.10198297387E+01  0.10195449345E+01 0.  0.
     999903    2    3    3    0    0  0.20103247203E-01  0.66398124150E-01  0.10835659048E+00  0.13025927660E+00  0.20334133891E-01 0.  0.
         14    1    1    2    0    0 -0.12149499806E-01  0.18314949554E-01 -0.98881176416E-02  0.24100261268E-01  0.00000000000E+00 0. -1.
     999901    1    3    3    0    0 -0.79537473971E-02 -0.84713073704E-01 -0.98468472839E-01  0.88957046213E+00  0.88000000000E+00 0.  1.
        -11    1    4    4    0    0  0.14059033017E-02  0.29328317422E-01  0.57844797095E-01  0.64872247062E-01  0.51100000000E-03 0. -1.
         11    1    4    4    0    0  0.18697343901E-01  0.37069806729E-01  0.50511793385E-01  0.65387029538E-01  0.51100000000E-03 0.  1.
</event>
<event>
 8    1  0.1030163E+005  0.1043930E+01  0.7957747E-01            NaN
         13   -1    0    0    0    0  0.00000000000E+00  0.00000000000E+00  0.74505805969E-08  0.10566000000E+00  0.10566000000E+00 0.  1.
     999900   -1    0    0    0    0 -0.00000000000E+00 -0.00000000000E+00 -0.74505805969E-08  0.93827000000E+00  0.93827000000E+00 0. -1.
     999902    2    1    2    0    0 -0.18253802678E-01 -0.13991571321E-01  0.70686315282E-02  0.10198690164E+01  0.10195851508E+01 0.  0.
     999903    2    3    3    0    0  0.34541202727E-01 -0.99020612348E-01  0.76766374062E-01  0.13145749817E+00  0.19743892264E-01 0.  0.
         14    1    1    2    0    0  0.18253802678E-01  0.13991571321E-01 -0.70686315282E-02  0.24060983602E-01  0.00000000000E+00 0. -1.
     999901    1    3    3    0    0 -0.52795005405E-01  0.85029041027E-01 -0.69697742534E-01  0.88841151823E+00  0.88000000000E+00 0. -1.
        -11    1    4    4    0    0  0.22494699141E-01 -0.38171483912E-01  0.37444100968E-01  0.58012028854E-01  0.51100000000E-03 0. -1.
         11    1    4    4    0    0  0.12046503585E-01 -0.60849128436E-01  0.39322273094E-01  0.73445469311E-01  0.51100000000E-03 0.  1.
</event>
<event>
 8    1  0.1030163E+005  0.1043930E+01  0.7957747E-01            NaN
         13   -1    0    0    0    0  0.00000000000E+00  0.00000000000E+00  0.74505805969E-08  0.10566000000E+00  0.10566000000E+00 0.  1.
     999900   -1    0    0    0    0 -0.00000000000E+00 -0.00000000000E+00 -0.74505805969E-08  0.93827000000E+00  0.93827000000E+00 0.  1.
     999902    2    1    2    0    0 -0.21349025635E-02  0.14717119972E-01 -0.88260883906E-02  0.10266369012E+01  0.10264912448E+01 0.  0.
     999903    2    3    3    0    0 -0.34271941319E-01  0.76444252792E-02  0.12900926353E+00  0.13530004205E+00  0.20729401902E-01 0.  0.
         14    1    1    2    0    0  0.21349025635E-02 -0.14717119972E-01  0.88260883906E-02  0.17293098783E-01  0.00000000000E+00 0.  1.
     999901    1    3    3    0    0  0.32137038756E-01  0.70726946930E-02 -0.13783535192E+00  0.89133685917E+00  0.88000000000E+00 0.  1.
        -11    1    4    4    0    0 -0.17205492275E-01 -0.33289486397E-02  0.35250901611E-01  0.39370014590E-01  0.51100000000E-03 0. -1.
         11    1    4    4    0    0 -0.17066449045E-01  0.10973373919E-01  0.93758361917E-01  0.95930027460E-01  0.51100000000E-03 0.  1.
</event>
<event>
 8    1  0.1030163E+005  0.1043930E+01  0.7957747E-01            NaN
         13   -1    0    0    0    0  0.00000000000E+00  0.00000000000E+00  0.74505805969E-08  0.10566000000E+00  0.10566000000E+00 0. -1.
     999900   -1    0    0    0    0 -0.00000000000E+00 -0.00000000000E+00 -0.74505805969E-08  0.93827000000E+00  0.93827000000E+00 0.  1.
     999902    2    1    2    0    0 -0.20379805425E-01 -0.85088980770E-02 -0.82173688342E-02  0.10203659815E+01  0.10200938551E+01 0.  0.
     999903    2    3    3    0    0  0.32229335380E-01  0.54949826961E-01  0.11006602396E+00  0.12863413143E+00  0.19338991628E-01 0.  0.
         14    1    1    2    0    0  0.20379805425E-01  0.85088980770E-02  0.82173688342E-02  0.23564018464E-01  0.00000000000E+00 0. -1.
     999901    1    3    3    0    0 -0.52609140805E-01 -0.63458725038E-01 -0.11828339279E+00  0.89173185010E+00  0.88000000000E+00 0.  1.
        -11    1    4    4    0    0  0.64264150770E-02  0.29535620842E-01  0.53986576010E-01  0.61874576520E-01  0.51100000000E-03 0. -1.
         11    1    4    4    0    0  0.25802920303E-01  0.25414206119E-01  0.56079447948E-01  0.66759554911E-01  0.51100000000E-03 0.  1.
</event>
<event>
 8    1  0.1030163E+005  0.1043930E+01  0.7957747E-01            NaN
         13   -1    0    0    0    0  0.00000000000E+00  0.00000000000E+00  0.74505805969E-08  0.10566000000E+00  0.10566000000E+00 0.  1.
     999900   -1    0    0    0    0 -0.00000000000E+00 -0.00000000000E+00 -0.74505805969E-08  0.93827000000E+00  0.93827000000E+00 0. -1.
     999902    2    1    2    0    0  0.40922510672E-02 -0.19259771389E-01 -0.13611607884E-01  0.10199933924E+01  0.10197124886E+01 0.  0.
     999903    2    3    3    0    0  0.15407834944E-01 -0.12287464027E+00 -0.45158516795E-01  0.13328076088E+00  0.19720319016E-01 0.  0.
         14    1    1    2    0    0 -0.40922510672E-02  0.19259771389E-01  0.13611607884E-01  0.23936607569E-01  0.00000000000E+00 0.  1.
     999901    1    3    3    0    0 -0.11315583877E-01  0.10361486888E+00  0.31546908911E-01  0.88671263155E+00  0.88000000000E+00 0.  1.
        -11    1    4    4    0    0  0.76318631199E-02 -0.58614562404E-01 -0.11128780650E-01  0.60150005322E-01  0.51100000000E-03 0. -1.
         11    1    4    4    0    0  0.77759718240E-02 -0.64260077866E-01 -0.34029736145E-01  0.73130755557E-01  0.51100000000E-03 0.  1.
</event>
<event>
 8    1  0.1030163E+005  0.1043930E+01  0.7957747E-01            NaN
         13   -1    0    0    0    0  0.00000000000E+00  0.00000000000E+00  0.74505805969E-08  0.10566000000E+00  0.10566000000E+00 0.  1.
     999900   -1    0    0    0    0 -0.00000000000E+00 -0.00000000000E+00 -0.74505805969E-08  0.93827000000E+00  0.93827000000E+00 0. -1.
     999902    2    1    2    0    0 -0.49332379225E-02 -0.91414177951E-02 -0.19611561315E-01  0.10217373054E+01  0.10214962582E+01 0.  0.
     999903    2    3    3    0    0  0.42729353024E-01 -0.12262589248E+00 -0.21820523550E-01  0.13316804639E+00  0.19866711249E-01 0.  0.
         14    1    1    2    0    0  0.49332379225E-02  0.91414177951E-02  0.19611561315E-01  0.22192694584E-01  0.00000000000E+00 0.  1.
     999901    1    3    3    0    0 -0.47662590946E-01  0.11348447468E+00  0.22089622351E-02  0.88856925902E+00  0.88000000000E+00 0. -1.
        -11    1    4    4    0    0  0.12144934133E-01 -0.63479987335E-01 -0.75969606230E-02  0.65078284772E-01  0.51100000000E-03 0. -1.
         11    1    4    4    0    0  0.30584418891E-01 -0.59145905143E-01 -0.14223562927E-01  0.68089761620E-01  0.51100000000E-03 0.  1.
</event>
<event>
 8    1  0.1030163E+005  0.1043930E+01  0.7957747E-01            NaN
         13   -1    0    0    0    0  0.00000000000E+00  0.00000000000E+00  0.74505805969E-08  0.10566000000E+00  0.10566000000E+00 0. -1.
     999900   -1    0    0    0    0 -0.00000000000E+00 -0.00000000000E+00 -0.74505805969E-08  0.93827000000E+00  0.93827000000E+00 0.  1.
     999902    2    1    2    0    0 -0.43291205411E-02 -0.19824345380E-01 -0.87665565415E-02  0.10218257364E+01  0.10215866273E+01 0.  0.
     999903    2    3    3    0    0 -0.10269823914E+00 -0.70094634613E-01  0.43037164892E-01  0.13340736031E+00  0.22025896078E-01 0.  0.
         14    1    1    2    0    0  0.43291205411E-02  0.19824345380E-01  0.87665565415E-02  0.22104263571E-01  0.00000000000E+00 0. -1.
     999901    1    3    3    0    0  0.98369118602E-01  0.50270289233E-01 -0.51803721434E-01  0.88841837612E+00  0.88000000000E+00 0. -1.
        -11    1    4    4    0    0 -0.85011502459E-01 -0.46977473232E-01  0.34408887853E-01  0.10304402567E+00  0.51100000000E-03 0.  1.
         11    1    4    4    0    0 -0.17686736684E-01 -0.23117161382E-01  0.86282770396E-02  0.30363334641E-01  0.51100000000E-03 0. -1.
</event>
<event>
 8    1  0.1030163E+005  0.1043930E+01  0.7957747E-01            NaN
         13   -1    0    0    0    0  0.00000000000E+00  0.00000000000E+00  0.74505805969E-08  0.10566000000E+00  0.10566000000E+00 0. -1.
     999900   -1    0    0    0    0 -0.00000000000E+00 -0.00000000000E+00 -0.74505805969E-08  0.93827000000E+00  0.93827000000E+00 0. -1.
     999902    2    1    2    0    0  0.77109481801E-02  0.20904673124E-01 -0.18561892612E-02  0.10215713435E+01  0.10213266375E+01 0.  0.
     999903    2    3    3    0    0 -0.12009015894E+00  0.49156820635E-01  0.11712199234E-01  0.13178743270E+00  0.19816975489E-01 0.  0.
         14    1    1    2    0    0 -0.77109481801E-02 -0.20904673124E-01  0.18561892612E-02  0.22358656463E-01  0.00000000000E+00 0. -1.
     999901    1    3    3    0    0  0.12780110712E+00 -0.28252147511E-01 -0.13568388495E-01  0.88978391084E+00  0.88000000000E+00 0. -1.
        -11    1    4    4    0    0 -0.51689896145E-01  0.31501457457E-01  0.78012384546E-02  0.61035298212E-01  0.51100000000E-03 0. -1.
         11    1    4    4    0    0 -0.68400262795E-01  0.17655363178E-01  0.39109607793E-02  0.70752134487E-01  0.51100000000E-03 0.  1.
</event>
<event>
 8    1  0.1030163E+005  0.1043930E+01  0.7957747E-01            NaN
         13   -1    0    0    0    0  0.00000000000E+00  0.00000000000E+00  0.74505805969E-08  0.10566000000E+00  0.10566000000E+00 0. -1.
     999900   -1    0    0    0    0 -0.00000000000E+00 -0.00000000000E+00 -0.74505805969E-08  0.93827000000E+00  0.93827000000E+00 0. -1.
     999902    2    1    2    0    0  0.13319947661E-01 -0.62274545673E-02 -0.19338794618E-01  0.10196361495E+01  0.10193466958E+01 0.  0.
     999903    2    3    3    0    0 -0.11278783762E+00  0.47696953243E-01  0.30078995681E-01  0.12764224071E+00  0.19791411518E-01 0.  0.
         14    1    1    2    0    0 -0.13319947661E-01  0.62274545673E-02  0.19338794618E-01  0.24293850526E-01  0.00000000000E+00 0. -1.
     999901    1    3    3    0    0  0.12610778528E+00 -0.53924407810E-01 -0.49417790299E-01  0.89199390876E+00  0.88000000000E+00 0.  1.
        -11    1    4    4    0    0 -0.51876845733E-01  0.24474216327E-01  0.23961800272E-01  0.62166095111E-01  0.51100000000E-03 0. -1.
         11    1    4    4    0    0 -0.60910991887E-01  0.23222736916E-01  0.61171954090E-02  0.65476145604E-01  0.51100000000E-03 0.  1.
</event>
<event>
 8    1  0.1030163E+005  0.1043930E+01  0.7957747E-01            NaN
         13   -1    0    0    0    0  0.00000000000E+00  0.00000000000E+00  0.74505805969E-08  0.10566000000E+00  0.10566000000E+00 0. -1.
     999900   -1    0    0    0    0 -0.00000000000E+00 -0.00000000000E+00 -0.74505805969E-08  0.93827000000E+00  0.93827000000E+00 0.  1.
     999902    2    1    2    0    0 -0.60770362052E-02 -0.21443741421E-01 -0.58675324071E-02  0.10208823895E+01  0.10206221930E+01 0.  0.
     999903    2    3    3    0    0 -0.23642148586E-01  0.37470227276E-01 -0.12171639083E+00  0.13116313774E+00  0.20637824084E-01 0.  0.
         14    1    1    2    0    0  0.60770362052E-02  0.21443741421E-01  0.58675324071E-02  0.23047610542E-01  0.00000000000E+00 0. -1.
     999901    1    3    3    0    0  0.17565112381E-01 -0.58913968697E-01  0.11584885842E+00  0.88971925172E+00  0.88000000000E+00 0. -1.
        -11    1    4    4    0    0 -0.66878343996E-02  0.15307952166E-01 -0.22080431616E-01  0.27692365551E-01  0.51100000000E-03 0. -1.
         11    1    4    4    0    0 -0.16954314187E-01  0.22162275110E-01 -0.99635959215E-01  0.10347077219E+00  0.51100000000E-03 0.  1.
</event>
<event>
 8    1  0.1030163E+005  0.1043930E+01  0.7957747E-01            NaN
         13   -1    0    0    0    0  0.00000000000E+00  0.00000000000E+00  0.74505805969E-08  0.10566000000E+00  0.10566000000E+00 0. -1.
     999900   -1    0    0    0    0 -0.00000000000E+00 -0.00000000000E+00 -0.74505805969E-08  0.93827000000E+00  0.93827000000E+00 0. -1.
     999902    2    1    2    0    0  0.15123901021E-01 -0.47311914840E-02  0.15844868363E-01  0.10215207071E+01  0.10212748791E+01 0.  0.
     999903    2    3    3    0    0  0.12925576356E+00  0.11365563840E-01 -0.21676650423E-01  0.13321161002E+00  0.20957753146E-01 0.  0.
         14    1    1    2    0    0 -0.15123901021E-01  0.47311914840E-02 -0.15844868363E-01  0.22409292902E-01  0.00000000000E+00 0. -1.
     999901    1    3    3    0    0 -0.11413186253E+00 -0.16096755324E-01  0.37521518786E-01  0.88830909708E+00  0.88000000000E+00 0.  1.
        -11    1    4    4    0    0  0.61391037350E-01 -0.31288332492E-02 -0.40237703576E-02  0.61604390374E-01  0.51100000000E-03 0. -1.
         11    1    4    4    0    0  0.67864726205E-01  0.14494397090E-01 -0.17652880066E-01  0.71607219647E-01  0.51100000000E-03 0.  1.
</event>
<event>
 8    1  0.1030163E+005  0.1043930E+01  0.7957747E-01            NaN
         13   -1    0    0    0    0  0.00000000000E+00  0.00000000000E+00  0.74505805969E-08  0.10566000000E+00  0.10566000000E+00 0.  1.
     999900   -1    0    0    0    0 -0.00000000000E+00 -0.00000000000E+00 -0.74505805969E-08  0.93827000000E+00  0.93827000000E+00 0.  1.
     999902    2    1    2    0    0  0.11661690368E-01  0.24513692421E-01 -0.19997671355E-01  0.10102131941E+01  0.10096503725E+01 0.  0.
     999903    2    3    3    0    0 -0.40618914961E-01 -0.84753637754E-01 -0.72463185886E-01  0.12036756631E+00  0.20108762906E-01 0.  0.
         14    1    1    2    0    0 -0.11661690368E-01 -0.24513692421E-01  0.19997671355E-01  0.33716805868E-01  0.00000000000E+00 0.  1.
     999901    1    3    3    0    0  0.52280605328E-01  0.10926733018E+00  0.52465514531E-01  0.88984562782E+00  0.88000000000E+00 0. -1.
        -11    1    4    4    0    0 -0.19161218416E-01 -0.61489735716E-01 -0.50409744155E-01  0.81789628415E-01  0.51100000000E-03 0. -1.
         11    1    4    4    0    0 -0.21457696545E-01 -0.23263902039E-01 -0.22053441731E-01  0.38577937895E-01  0.51100000000E-03 0.  1.
</event>
<event>
 8    1  0.1030163E+005  0.1043930E+01  0.7957747E-01            NaN
         13   -1    0    0    0    0  0.00000000000E+00  0.00000000000E+00  0.74505805969E-08  0.10566000000E+00  0.10566000000E+00 0.  1.
     999900   -1    0    0    0    0 -0.00000000000E+00 -0.00000000000E+00 -0.74505805969E-08  0.93827000000E+00  0.93827000000E+00 0. -1.
     999902    2    1    2    0    0 -0.22025079739E-01  0.43813543546E-02  0.67192575153E-02  0.10204896752E+01  0.10202204313E+01 0.  0.
     999903    2    3    3    0    0 -0.99017653697E-01 -0.69165004043E-01  0.51396354572E-01  0.13294645585E+00  0.21092210215E-01 0.  0.
         14    1    1    2    0    0  0.22025079739E-01 -0.43813543546E-02 -0.67192575153E-02  0.23440324764E-01  0.00000000000E+00 0.  1.
     999901    1    3    3    0    0  0.76992573958E-01  0.73546358397E-01 -0.44677097056E-01  0.88754321939E+00  0.88000000000E+00 0.  1.
        -11    1    4    4    0    0 -0.52790004882E-01 -0.43866454016E-01  0.19538761988E-01  0.71365781327E-01  0.51100000000E-03 0. -1.
         11    1    4    4    0    0 -0.46227648815E-01 -0.25298550026E-01  0.31857592583E-01  0.61580674522E-01  0.51100000000E-03 0.  1.
</event>
<event>
 8    1  0.1030163E+005  0.1043930E+01  0.7957747E-01            NaN
         13   -1    0    0    0    0  0.00000000000E+00  0.00000000000E+00  0.74505805969E-08  0.10566000000E+00  0.10566000000E+00 0. -1.
     999900   -1    0    0    0    0 -0.00000000000E+00 -0.00000000000E+00 -0.74505805969E-08  0.93827000000E+00  0.93827000000E+00 0.  1.
     999902    2    1    2    0    0 -0.58749104270E-02  0.18205588779E-01  0.12686709312E-01  0.10209754661E+01  0.10207173907E+01 0.  0.
     999903    2    3    3    0    0  0.98607678295E-01  0.86411935154E-01 -0.17072979474E-02  0.13205707583E+00  0.15673533613E-01 0.  0.
         14    1    1    2    0    0  0.58749104270E-02 -0.18205588779E-01 -0.12686709312E-01  0.22954533942E-01  0.00000000000E+00 0.  1.
     999901    1    3    3    0    0 -0.10448258872E+00 -0.68206346375E-01  0.14394007260E-01  0.88891839022E+00  0.88000000000E+00 0.  1.
        -11    1    4    4    0    0  0.60308754225E-01  0.59880554262E-01  0.41875573563E-02  0.85091852563E-01  0.51100000000E-03 0.  1.
         11    1    4    4    0    0  0.38298924070E-01  0.26531380892E-01 -0.58948553037E-02  0.46965223272E-01  0.51100000000E-03 0. -1.
</event>
<event>
 8    1  0.1030163E+005  0.1043930E+01  0.7957747E-01            NaN
         13   -1    0    0    0    0  0.00000000000E+00  0.00000000000E+00  0.74505805969E-08  0.10566000000E+00  0.10566000000E+00 0. -1.
     999900   -1    0    0    0    0 -0.00000000000E+00 -0.00000000000E+00 -0.74505805969E-08  0.93827000000E+00  0.93827000000E+00 0. -1.
     999902    2    1    2    0    0  0.10241779965E-01 -0.93943196535E-03 -0.21431074209E-01  0.10201588509E+01  0.10198818625E+01 0.  0.
     999903    2    3    3    0    0 -0.55100283138E-01 -0.11548359260E+00  0.65484655574E-02  0.12989326994E+00  0.21374700269E-01 0.  0.
         14    1    1    2    0    0 -0.10241779965E-01  0.93943196535E-03  0.21431074209E-01  0.23771149131E-01  0.00000000000E+00 0. -1.
     999901    1    3    3    0    0  0.65342063103E-01  0.11454416064E+00 -0.27979539766E-01  0.89026558093E+00  0.88000000000E+00 0. -1.
        -11    1    4    4    0    0 -0.19605677283E-01 -0.62771641054E-01 -0.18498287781E-02  0.65790154962E-01  0.51100000000E-03 0. -1.
         11    1    4    4    0    0 -0.35494605855E-01 -0.52711951548E-01  0.83982943355E-02  0.64103114975E-01  0.51100000000E-03 0.  1.
</event>
<event>
 8    1  0.1030163E+005  0.1043930E+01  0.7957747E-01            NaN
         13   -1    0    0    0    0  0.00000000000E+00  0.00000000000E+00  0.74505805969E-08  0.10566000000E+00  0.10566000000E+00 0. -1.
     999900   -1    0    0    0    0 -0.00000000000E+00 -0.00000000000E+00 -0.74505805969E-08  0.93827000000E+00  0.93827000000E+00 0. -1.
     999902    2    1    2    0    0 -0.16623773694E-02  0.21864755258E-01 -0.68723818993E-02  0.10209504296E+01  0.10206917846E+01 0.  0.
     999903    2    3    3    0    0 -0.58780011086E-01 -0.53470862152E-01  0.10040114663E+00  0.12940935417E+00  0.18766137040E-01 0.  0.
         14    1    1    2    0    0  0.16623773694E-02 -0.21864755258E-01  0.68723818993E-02  0.22979570361E-01  0.00000000000E+00 0. -1.
     999901    1    3    3    0    0  0.57117633716E-01  0.75335617410E-01 -0.10727352853E+00  0.89154107547E+00  0.88000000000E+00 0. -1.
        -11    1    4    4    0    0 -0.25164593400E-01 -0.17473941251E-01  0.26018926636E-01  0.40197525398E-01  0.51100000000E-03 0. -1.
         11    1    4    4    0    0 -0.33615417686E-01 -0.35996920901E-01  0.74382219991E-01  0.89211828769E-01  0.51100000000E-03 0.  1.
</event>
<event>
 8    1  0.1030163E+005  0.1043930E+01  0.7957747E-01            NaN
         13   -1    0    0    0    0  0.00000000000E+00  0.00000000000E+00  0.74505805969E-08  0.10566000000E+00  0.10566000000E+00 0. -1.
     999900   -1    0    0    0    0 -0.00000000000E+00 -0.00000000000E+00 -0.74505805969E-08  0.93827000000E+00  0.93827000000E+00 0.  1.
     999902    2    1    2    0    0  0.14463477822E-01 -0.14759828585E-01 -0.90198085542E-02  0.10213822357E+01  0.10211333261E+01 0.  0.
     999903    2    3    3    0    0  0.61009390168E-01  0.15770896127E-01  0.11334134709E+00  0.13117388953E+00  0.19734778467E-01 0.  0.
         14    1    1    2    0    0 -0.14463477822E-01  0.14759828585E-01  0.90198085542E-02  0.22547764344E-01  0.00000000000E+00 0.  1.
     999901    1    3    3    0    0 -0.46545912346E-01 -0.30530724712E-01 -0.12236115564E+00  0.89020834613E+00  0.88000000000E+00 0.  1.
        -11    1    4    4    0    0  0.52502058563E-01  0.67113223662E-02  0.83752650832E-01  0.99077119678E-01  0.51100000000E-03 0.  1.
         11    1    4    4    0    0  0.85073316051E-02  0.90595737612E-02  0.29588696253E-01  0.32096769849E-01  0.51100000000E-03 0. -1.
</event>
<event>
 8    1  0.1030163E+005  0.1043930E+01  0.7957747E-01            NaN
         13   -1    0    0    0    0  0.00000000000E+00  0.00000000000E+00  0.74505805969E-08  0.10566000000E+00  0.10566000000E+00 0. -1.
     999900   -1    0    0    0    0 -0.00000000000E+00 -0.00000000000E+00 -0.74505805969E-08  0.93827000000E+00  0.93827000000E+00 0. -1.
     999902    2    1    2    0    0 -0.18540497559E-01 -0.54703853141E-02 -0.14058417971E-01  0.10200278185E+01  0.10197477317E+01 0.  0.
     999903    2    3    3    0    0  0.92183082445E-01 -0.82152631099E-01 -0.34389873280E-01  0.12954859579E+00  0.18798930831E-01 0.  0.
         14    1    1    2    0    0  0.18540497559E-01  0.54703853141E-02  0.14058417971E-01  0.23902181513E-01  0.00000000000E+00 0.  1.
     999901    1    3    3    0    0 -0.11072358000E+00  0.76682245785E-01  0.20331455309E-01  0.89047922270E+00  0.88000000000E+00 0.  1.
        -11    1    4    4    0    0  0.81425192616E-01 -0.63100001899E-01 -0.28495344481E-01  0.10688273018E+00  0.51100000000E-03 0. -1.
         11    1    4    4    0    0  0.10757889829E-01 -0.19052629200E-01 -0.58945287991E-02  0.22665865608E-01  0.51100000000E-03 0.  1.
</event>
<event>
 8    1  0.1030163E+005  0.1043930E+01  0.7957747E-01            NaN
         13   -1    0    0    0    0  0.00000000000E+00  0.00000000000E+00  0.74505805969E-08  0.10566000000E+00  0.10566000000E+00 0.  1.
     999900   -1    0    0    0    0 -0.00000000000E+00 -0.00000000000E+00 -0.74505805969E-08  0.93827000000E+00  0.93827000000E+00 0.  1.
     999902    2    1    2    0    0 -0.19809980921E-01  0.12100188534E-01 -0.83404263015E-02  0.10192639785E+01  0.10189654779E+01 0.  0.
     999903    2    3    3    0    0  0.76085194376E-01  0.86356763258E-01 -0.56110283039E-01  0.12966188611E+00  0.20430210078E-01 0.  0.
         14    1    1    2    0    0  0.19809980921E-01 -0.12100188534E-01  0.83404263015E-02  0.24666021518E-01  0.00000000000E+00 0.  1.
     999901    1    3    3    0    0 -0.95895175297E-01 -0.74256574724E-01  0.47769856738E-01  0.88960209237E+00  0.88000000000E+00 0. -1.
        -11    1    4    4    0    0  0.15326470614E-01  0.74020759363E-02 -0.53539899214E-02  0.17849867191E-01  0.51100000000E-03 0. -1.
         11    1    4    4    0    0  0.60758723762E-01  0.78954687322E-01 -0.50756293118E-01  0.11181201892E+00  0.51100000000E-03 0.  1.
</event>
<event>
 8    1  0.1030163E+005  0.1043930E+01  0.7957747E-01            NaN
         13   -1    0    0    0    0  0.00000000000E+00  0.00000000000E+00  0.74505805969E-08  0.10566000000E+00  0.10566000000E+00 0. -1.
     999900   -1    0    0    0    0 -0.00000000000E+00 -0.00000000000E+00 -0.74505805969E-08  0.93827000000E+00  0.93827000000E+00 0. -1.
     999902    2    1    2    0    0  0.16580375317E-01 -0.15832936343E-01 -0.58194203630E-02  0.10202771699E+01  0.10200029642E+01 0.  0.
     999903    2    3    3    0    0  0.41598047001E-01  0.37222554150E-01 -0.11710071545E+00  0.13133156098E+00  0.20481340222E-01 0.  0.
         14    1    1    2    0    0 -0.16580375317E-01  0.15832936343E-01  0.58194203630E-02  0.23652830111E-01  0.00000000000E+00 0.  1.
     999901    1    3    3    0    0 -0.25017671684E-01 -0.53055490494E-01  0.11128129509E+00  0.88894560891E+00  0.88000000000E+00 0. -1.
        -11    1    4    4    0    0  0.33001761557E-01  0.28040406225E-01 -0.10615619723E+00  0.11465068677E+00  0.51100000000E-03 0.  1.
         11    1    4    4    0    0  0.85962854441E-02  0.91821479253E-02 -0.10944518225E-01  0.16680874202E-01  0.51100000000E-03 0. -1.
</event>
<event>
 8    1  0.1030163E+005  0.1043930E+01  0.7957747E-01            NaN
         13   -1    0    0    0    0  0.00000000000E+00  0.00000000000E+00  0.74505805969E-08  0.10566000000E+00  0.10566000000E+00 0. -1.
     999900   -1    0    0    0    0 -0.00000000000E+00 -0.00000000000E+00 -0.74505805969E-08  0.93827000000E+00  0.93827000000E+00 0. -1.
     999902    2    1    2    0    0 -0.17779668227E-01 -0.15339268921E-01  0.10610166375E-01  0.10181620858E+01  0.10178359630E+01 0.  0.
     999903    2    3    3    0    0 -0.11321953192E+00  0.36523136608E-01 -0.47333145806E-01  0.12959250261E+00  0.20029681093E-01 0.  0.
         14    1    1    2    0    0  0.17779668227E-01  0.15339268921E-01 -0.10610166375E-01  0.25767914231E-01  0.00000000000E+00 0.  1.
     999901    1    3    3    0    0  0.95439863695E-01 -0.51862405529E-01  0.57943312182E-01  0.88856958316E+00  0.88000000000E+00 0. -1.
        -11    1    4    4    0    0 -0.49629539751E-01  0.57486309490E-02 -0.18235356573E-01  0.53187661389E-01  0.51100000000E-03 0. -1.
         11    1    4    4    0    0 -0.63589992170E-01  0.30774505659E-01 -0.29097789233E-01  0.76404841221E-01  0.51100000000E-03 0.  1.
</event>
<event>
 8    1  0.1030163E+005  0.1043930E+01  0.7957747E-01            NaN
         13   -1    0    0    0    0  0.00000000000E+00  0.00000000000E+00  0.74505805969E-08  0.10566000000E+00  0.10566000000E+00 0.  1.
     999900   -1    0    0    0    0 -0.00000000000E+00 -0.00000000000E+00 -0.74505805969E-08  0.93827000000E+00  0.93827000000E+00 0. -1.
     999902    2    1    2    0    0  0.19326690497E-01  0.61881124264E-02 -0.13281471061E-01  0.10196769347E+01  0.10193884638E+01 0.  0.
     999903    2    3    3    0    0 -0.74868806815E-01  0.13049010065E-01  0.10009343939E+00  0.12739125518E+00  0.20837955526E-01 0.  0.
         14    1    1    2    0    0 -0.19326690497E-01 -0.61881124264E-02  0.13281471061E-01  0.24253065260E-01  0.00000000000E+00 0.  1.
     999901    1    3    3    0    0  0.94195497312E-01 -0.68608976384E-02 -0.11337491045E+00  0.89228567956E+00  0.88000000000E+00 0.  1.
        -11    1    4    4    0    0 -0.17248602839E-01 -0.24506258855E-02  0.12682305365E-01  0.21555088901E-01  0.51100000000E-03 0.  1.
         11    1    4    4    0    0 -0.57620203976E-01  0.15499635950E-01  0.87411134020E-01  0.10583616628E+00  0.51100000000E-03 0. -1.
</event>
<event>
 8    1  0.1030163E+005  0.1043930E+01  0.7957747E-01            NaN
         13   -1    0    0    0    0  0.00000000000E+00  0.00000000000E+00  0.74505805969E-08  0.10566000000E+00  0.10566000000E+00 0. -1.
     999900   -1    0    0    0    0 -0.00000000000E+00 -0.00000000000E+00 -0.74505805969E-08  0.93827000000E+00  0.93827000000E+00 0. -1.
     999902    2    1    2    0    0 -0.57371018603E-03 -0.20306049897E-01  0.11743787976E-01  0.10204655298E+01  0.10201957244E+01 0.  0.
     999903    2    3    3    0    0  0.52539942257E-01 -0.97822915113E-01 -0.68392370832E-01  0.13184202774E+00  0.19365836825E-01 0.  0.
         14    1    1    2    0    0  0.57371018603E-03  0.20306049897E-01 -0.11743787976E-01  0.23464470202E-01  0.00000000000E+00 0.  1.
     999901    1    3    3    0    0 -0.53113652443E-01  0.77516865216E-01  0.80136158809E-01  0.88862350206E+00  0.88000000000E+00 0.  1.
        -11    1    4    4    0    0  0.72835580270E-02 -0.29129150859E-01 -0.13358217533E-01  0.32867320304E-01  0.51100000000E-03 0.  1.
         11    1    4    4    0    0  0.45256384230E-01 -0.68693764255E-01 -0.55034153299E-01  0.98974707433E-01  0.51100000000E-03 0. -1.
</event>
<event>
 8    1  0.1030163E+005  0.1043930E+01  0.7957747E-01            NaN
         13   -1    0    0    0    0  0.00000000000E+00  0.00000000000E+00  0.74505805969E-08  0.10566000000E+00  0.10566000000E+00 0. -1.
     999900   -1    0    0    0    0 -0.00000000000E+00 -0.00000000000E+00 -0.74505805969E-08  0.93827000000E+00  0.93827000000E+00 0.  1.
     999902    2    1    2    0    0  0.12019660712E-01  0.14420411256E-01 -0.14234378045E-01  0.10203707550E+01  0.10200987402E+01 0.  0.
     999903    2    3    3    0    0 -0.82656178729E-01 -0.93646168305E-01  0.20952961297E-01  0.12802550289E+00  0.18704386750E-01 0.  0.
         14    1    1    2    0    0 -0.12019660712E-01 -0.14420411256E-01  0.14234378045E-01  0.23559244953E-01  0.00000000000E+00 0. -1.
     999901    1    3    3    0    0  0.94675839441E-01  0.10806657956E+00 -0.35187339342E-01  0.89234525215E+00  0.88000000000E+00 0.  1.
        -11    1    4    4    0    0 -0.28788681383E-01 -0.46599999569E-01  0.91403515026E-02  0.55535171578E-01  0.51100000000E-03 0. -1.
         11    1    4    4    0    0 -0.53867497346E-01 -0.47046168736E-01  0.11812609795E-01  0.72490331316E-01  0.51100000000E-03 0.  1.
</event>
<event>
 8    1  0.1030163E+005  0.1043930E+01  0.7957747E-01            NaN
         13   -1    0    0    0    0  0.00000000000E+00  0.00000000000E+00  0.74505805969E-08  0.10566000000E+00  0.10566000000E+00 0.  1.
     999900   -1    0    0    0    0 -0.00000000000E+00 -0.00000000000E+00 -0.74505805969E-08  0.93827000000E+00  0.93827000000E+00 0.  1.
     999902    2    1    2    0    0  0.34712987783E-02  0.10303378748E-01 -0.20532993388E-01  0.10206961164E+01  0.10204316482E+01 0.  0.
     999903    2    3    3    0    0  0.46387780759E-01  0.10632281889E+00 -0.62650240141E-01  0.13343323554E+00  0.20567151851E-01 0.  0.
         14    1    1    2    0    0 -0.34712987783E-02 -0.10303378748E-01  0.20532993388E-01  0.23233883582E-01  0.00000000000E+00 0.  1.
     999901    1    3    3    0    0 -0.42916481981E-01 -0.96019440146E-01  0.42117246754E-01  0.88726288088E+00  0.88000000000E+00 0. -1.
        -11    1    4    4    0    0  0.72867785853E-02  0.41120757103E-01 -0.21133856098E-01  0.46807208862E-01  0.51100000000E-03 0.  1.
         11    1    4    4    0    0  0.39101002174E-01  0.65202061792E-01 -0.41516384043E-01  0.86626026677E-01  0.51100000000E-03 0. -1.
</event>
<event>
 8    1  0.1030163E+005  0.1043930E+01  0.7957747E-01            NaN
         13   -1    0    0    0    0  0.00000000000E+00  0.00000000000E+00  0.74505805969E-08  0.10566000000E+00  0.10566000000E+00 0. -1.
     999900   -1    0    0    0    0 -0.00000000000E+00 -0.00000000000E+00 -0.74505805969E-08  0.93827000000E+00  0.93827000000E+00 0. -1.
     999902    2    1    2    0    0 -0.47798067663E-02 -0.56326066285E-02  0.21792900410E-01  0.10209190609E+01  0.10206597012E+01 0.  0.
     999903    2    3    3    0    0 -0.41093139011E-01  0.12224322503E+00  0.97058063313E-02  0.13085334183E+00  0.19908346251E-01 0.  0.
         14    1    1    2    0    0  0.47798067663E-02  0.56326066285E-02 -0.21792900410E-01  0.23010939103E-01  0.00000000000E+00 0.  1.
     999901    1    3    3    0    0  0.36313332245E-01 -0.12787583166E+00  0.12087094078E-01  0.89006571907E+00  0.88000000000E+00 0.  1.
        -11    1    4    4    0    0 -0.38777567300E-01  0.10581440760E+00  0.14374532511E-01  0.11361019711E+00  0.51100000000E-03 0. -1.
         11    1    4    4    0    0 -0.23155717115E-02  0.16428817430E-01 -0.46687261792E-02  0.17243144714E-01  0.51100000000E-03 0.  1.
</event>
<event>
 8    1  0.1030163E+005  0.1043930E+01  0.7957747E-01            NaN
         13   -1    0    0    0    0  0.00000000000E+00  0.00000000000E+00  0.74505805969E-08  0.10566000000E+00  0.10566000000E+00 0.  1.
     999900   -1    0    0    0    0 -0.00000000000E+00 -0.00000000000E+00 -0.74505805969E-08  0.93827000000E+00  0.93827000000E+00 0.  1.
     999902    2    1    2    0    0  0.17654850552E-01  0.15812124525E-01 -0.19787160489E-02  0.10201469735E+01  0.10198697051E+01 0.  0.
     999903    2    3    3    0    0  0.23816310418E-01  0.42191123933E-01  0.12016357329E+00  0.13129796835E+00  0.21273564966E-01 0.  0.
         14    1    1    2    0    0 -0.17654850552E-01 -0.15812124525E-01  0.19787160489E-02  0.23783026452E-01  0.00000000000E+00 0.  1.
     999901    1    3    3    0    0 -0.61614598659E-02 -0.26378999408E-01 -0.12214228934E+00  0.88884900520E+00  0.88000000000E+00 0.  1.
        -11    1    4    4    0    0  0.75342288199E-02  0.31635800198E-01  0.62522956623E-01  0.70476731508E-01  0.51100000000E-03 0.  1.
         11    1    4    4    0    0  0.16282081598E-01  0.10555323735E-01  0.57640616666E-01  0.60821236842E-01  0.51100000000E-03 0. -1.
</event>
<event>
 8    1  0.1030163E+005  0.1043930E+01  0.7957747E-01            NaN
         13   -1    0    0    0    0  0.00000000000E+00  0.00000000000E+00  0.74505805969E-08  0.10566000000E+00  0.10566000000E+00 0.  1.
     999900   -1    0    0    0    0 -0.00000000000E+00 -0.00000000000E+00 -0.74505805969E-08  0.93827000000E+00  0.93827000000E+00 0. -1.
     999902    2    1    2    0    0 -0.72092162178E-02  0.63931568583E-02 -0.21299100705E-01  0.10205527259E+01  0.10202849452E+01 0.  0.
     999903    2    3    3    0    0  0.12501976551E+00 -0.74308856234E-03  0.26292117213E-01  0.12937353314E+00  0.20389744990E-01 0.  0.
         14    1    1    2    0    0  0.72092162178E-02 -0.63931568583E-02  0.21299100705E-01  0.23377274091E-01  0.00000000000E+00 0. -1.
     999901    1    3    3    0    0 -0.13222898172E+00  0.71362454206E-02 -0.47591217918E-01  0.89117919277E+00  0.88000000000E+00 0.  1.
        -11    1    4    4    0    0  0.48632941169E-01  0.81692213126E-02  0.15610558806E-01  0.51728616943E-01  0.51100000000E-03 0. -1.
         11    1    4    4    0    0  0.76386824338E-01 -0.89123098750E-02  0.10681558407E-01  0.77644916194E-01  0.51100000000E-03 0.  1.
</event>
<event>
 8    1  0.1030163E+005  0.1043930E+01  0.7957747E-01            NaN
         13   -1    0    0    0    0  0.00000000000E+00  0.00000000000E+00  0.74505805969E-08  0.10566000000E+00  0.10566000000E+00 0. -1.
     999900   -1    0    0    0    0 -0.00000000000E+00 -0.00000000000E+00 -0.74505805969E-08  0.93827000000E+00  0.93827000000E+00 0. -1.
     999902    2    1    2    0    0  0.11704839408E-01 -0.15735369127E-01 -0.13149624004E-01  0.10203181869E+01  0.10200449425E+01 0.  0.
     999903    2    3    3    0    0 -0.72404249406E-01 -0.10783679202E+00 -0.64962463419E-02  0.13149802602E+00  0.19452007272E-01 0.  0.
         14    1    1    2    0    0 -0.11704839408E-01  0.15735369127E-01  0.13149624004E-01  0.23611813115E-01  0.00000000000E+00 0. -1.
     999901    1    3    3    0    0  0.84109088814E-01  0.92101422890E-01 -0.66533776617E-02  0.88882016086E+00  0.88000000000E+00 0. -1.
        -11    1    4    4    0    0 -0.46443796565E-01 -0.62870301923E-01  0.49632984767E-02  0.78323665363E-01  0.51100000000E-03 0. -1.
         11    1    4    4    0    0 -0.25960452842E-01 -0.44966490095E-01 -0.11459544819E-01  0.53174360661E-01  0.51100000000E-03 0.  1.
</event>
<event>
 8    1  0.1030163E+005  0.1043930E+01  0.7957747E-01            NaN
         13   -1    0    0    0    0  0.00000000000E+00  0.00000000000E+00  0.74505805969E-08  0.10566000000E+00  0.10566000000E+00 0. -1.
     999900   -1    0    0    0    0 -0.00000000000E+00 -0.00000000000E+00 -0.74505805969E-08  0.93827000000E+00  0.93827000000E+00 0.  1.
     999902    2    1    2    0    0  0.81470166231E-02  0.20437028937E-01  0.72352027000E-02  0.10207698146E+01  0.10205070407E+01 0.  0.
     999903    2    3    3    0    0  0.12296964248E+00  0.13926447789E-01  0.43132417386E-01  0.13256081151E+00  0.19911915992E-01 0.  0.
         14    1    1    2    0    0 -0.81470166231E-02 -0.20437028937E-01 -0.72352027000E-02  0.23160185443E-01  0.00000000000E+00 0.  1.
     999901    1    3    3    0    0 -0.11482262586E+00  0.65105811479E-02 -0.35897214686E-01  0.88820900305E+00  0.88000000000E+00 0.  1.
        -11    1    4    4    0    0  0.96141359463E-01  0.41016653635E-02  0.38339029067E-01  0.10358632598E+00  0.51100000000E-03 0.  1.
         11    1    4    4    0    0  0.26828283016E-01  0.98247824256E-02  0.47933883189E-02  0.28974485533E-01  0.51100000000E-03 0. -1.
</event>
<event>
 8    1  0.1030163E+005  0.1043930E+01  0.7957747E-01            NaN
         13   -1    0    0    0    0  0.00000000000E+00  0.00000000000E+00  0.74505805969E-08  0.10566000000E+00  0.10566000000E+00 0. -1.
     999900   -1    0    0    0    0 -0.00000000000E+00 -0.00000000000E+00 -0.74505805969E-08  0.93827000000E+00  0.93827000000E+00 0.  1.
     999902    2    1    2    0    0 -0.14991048262E-01  0.25933447235E-02  0.17205255728E-01  0.10209631154E+01  0.10207047591E+01 0.  0.
     999903    2    3    3    0    0 -0.10783749644E+00 -0.26107387135E-01 -0.67635843013E-01  0.13155757964E+00  0.20549165427E-01 0.  0.
         14    1    1    2    0    0  0.14991048262E-01 -0.25933447235E-02 -0.17205255728E-01  0.22966884628E-01  0.00000000000E+00 0.  1.
     999901    1    3    3    0    0  0.92846448180E-01  0.28700731859E-01  0.84841098742E-01  0.88940553573E+00  0.88000000000E+00 0.  1.
        -11    1    4    4    0    0 -0.41430371724E-01 -0.19578381141E-01 -0.32153101158E-01  0.55980994492E-01  0.51100000000E-03 0.  1.
         11    1    4    4    0    0 -0.66407124718E-01 -0.65290059945E-02 -0.35482741855E-01  0.75576585151E-01  0.51100000000E-03 0. -1.
</event>
<event>
 8    1  0.1030163E+005  0.1043930E+01  0.7957747E-01            NaN
         13   -1    0    0    0    0  0.00000000000E+00  0.00000000000E+00  0.74505805969E-08  0.10566000000E+00  0.10566000000E+00 0.  1.
     999900   -1    0    0    0    0 -0.00000000000E+00 -0.00000000000E+00 -0.74505805969E-08  0.93827000000E+00  0.93827000000E+00 0.  1.
     999902    2    1    2    0    0 -0.15850426260E-02  0.21339201516E-01 -0.18863998650E-01  0.10154041463E+01  0.10150033774E+01 0.  0.
     999903    2    3    3    0    0  0.93540113152E-01  0.84062713915E-01 -0.14168250326E-01  0.12804565942E+00  0.19459160830E-01 0.  0.
         14    1    1    2    0    0  0.15850426260E-02 -0.21339201516E-01  0.18863998650E-01  0.28525853651E-01  0.00000000000E+00 0.  1.
     999901    1    3    3    0    0 -0.95125155778E-01 -0.62723512399E-01 -0.46957483245E-02  0.88735848693E+00  0.88000000000E+00 0.  1.
        -11    1    4    4    0    0  0.74469703115E-01  0.76358599152E-01 -0.10960710287E-01  0.10722299491E+00  0.51100000000E-03 0.  1.
         11    1    4    4    0    0  0.19070410037E-01  0.77041147628E-02 -0.32075400387E-02  0.20822664511E-01  0.51100000000E-03 0. -1.
</event>
<event>
 8    1  0.1030163E+005  0.1043930E+01  0.7957747E-01            NaN
         13   -1    0    0    0    0  0.00000000000E+00  0.00000000000E+00  0.74505805969E-08  0.10566000000E+00  0.10566000000E+00 0.  1.
     999900   -1    0    0    0    0 -0.00000000000E+00 -0.00000000000E+00 -0.74505805969E-08  0.93827000000E+00  0.93827000000E+00 0.  1.
     999902    2    1    2    0    0  0.10892825378E-01  0.20937164667E-01  0.71447017282E-02  0.10192710205E+01  0.10189726924E+01 0.  0.
     999903    2    3    3    0    0 -0.92297227450E-01 -0.55842908142E-01  0.66093553891E-01  0.12796953738E+00  0.19251910176E-01 0.  0.
         14    1    1    2    0    0 -0.10892825378E-01 -0.20937164667E-01 -0.71447017282E-02  0.24658979537E-01  0.00000000000E+00 0. -1.
     999901    1    3    3    0    0  0.10319005283E+00  0.76780072809E-01 -0.58948852163E-01  0.89130148309E+00  0.88000000000E+00 0.  1.
        -11    1    4    4    0    0 -0.15363104699E-01 -0.22644577738E-02  0.62681719500E-02  0.16754219039E-01  0.51100000000E-03 0.  1.
         11    1    4    4    0    0 -0.76934122750E-01 -0.53578450368E-01  0.59825381941E-01  0.11121531834E+00  0.51100000000E-03 0. -1.
</event>
<event>
 8    1  0.1030163E+005  0.1043930E+01  0.7957747E-01            NaN
         13   -1    0    0    0    0  0.00000000000E+00  0.00000000000E+00  0.74505805969E-08  0.10566000000E+00  0.10566000000E+00 0. -1.
     999900   -1    0    0    0    0 -0.00000000000E+00 -0.00000000000E+00 -0.74505805969E-08  0.93827000000E+00  0.93827000000E+00 0.  1.
     999902    2    1    2    0    0  0.13425616365E-01 -0.64109246144E-02 -0.19424396833E-01  0.10194625865E+01  0.10191689315E+01 0.  0.
     999903    2    3    3    0    0  0.16858907835E-01 -0.61386270454E-01 -0.11460556441E+00  0.13261788153E+00  0.20014248249E-01 0.  0.
         14    1    1    2    0    0 -0.13425616365E-01  0.64109246144E-02  0.19424396833E-01  0.24467413462E-01  0.00000000000E+00 0. -1.
     999901    1    3    3    0    0 -0.34332914697E-02  0.54975345840E-01  0.95181167581E-01  0.88684470501E+00  0.88000000000E+00 0. -1.
        -11    1    4    4    0    0  0.38428562936E-02 -0.22367386742E-01 -0.60725399369E-01  0.64829798578E-01  0.51100000000E-03 0. -1.
         11    1    4    4    0    0  0.13016051542E-01 -0.39018883713E-01 -0.53880165044E-01  0.67788082951E-01  0.51100000000E-03 0.  1.
</event>
<event>
 8    1  0.1091624E+005  0.1043930E+01  0.7957747E-01            NaN
         13   -1    0    0    0    0  0.00000000000E+00  0.00000000000E+00  0.74505805969E-08  0.10566000000E+00  0.10566000000E+00 0.  1.
     999900   -1    0    0    0    0 -0.00000000000E+00 -0.00000000000E+00 -0.74505805969E-08  0.93827000000E+00  0.93827000000E+00 0. -1.
     999902    2    1    2    0    0  0.19864190769E-01  0.10350713801E-01  0.83014318883E-02  0.10200419879E+01  0.10197622370E+01 0.  0.
     999903    2    3    3    0    0 -0.96579609258E-01 -0.79037546126E-01 -0.17025980713E-01  0.12752257779E+00  0.19939137522E-01 0.  0.
         14    1    1    2    0    0 -0.19864190769E-01 -0.10350713801E-01 -0.83014318883E-02  0.23888012109E-01  0.00000000000E+00 0.  1.
     999901    1    3    3    0    0  0.11644380003E+00  0.89388259926E-01  0.25327412602E-01  0.89251941010E+00  0.88000000000E+00 0. -1.
        -11    1    4    4    0    0 -0.32820618207E-01 -0.32454927569E-01  0.23340683567E-02  0.46219306563E-01  0.51100000000E-03 0. -1.
         11    1    4    4    0    0 -0.63758991051E-01 -0.46582618556E-01 -0.19360049070E-01  0.81303271228E-01  0.51100000000E-03 0.  1.
</event>
<event>
 8    1  0.1277140E+005  0.1043930E+01  0.7957747E-01            NaN
         13   -1    0    0    0    0  0.00000000000E+00  0.00000000000E+00  0.74505805969E-08  0.10566000000E+00  0.10566000000E+00 0. -1.
     999900   -1    0    0    0    0 -0.00000000000E+00 -0.00000000000E+00 -0.74505805969E-08  0.93827000000E+00  0.93827000000E+00 0.  1.
     999902    2    1    2    0    0 -0.72768186839E-02 -0.22021835284E-01 -0.21781588928E-02  0.10206349856E+01  0.10203691078E+01 0.  0.
     999903    2    3    3    0    0  0.59543012471E-01  0.99712304669E-01  0.50464173332E-01  0.12819153877E+00  0.19963060504E-01 0.  0.
         14    1    1    2    0    0  0.72768186839E-02  0.22021835284E-01  0.21781588928E-02  0.23295014394E-01  0.00000000000E+00 0. -1.
     999901    1    3    3    0    0 -0.66819831155E-01 -0.12173413995E+00 -0.52642332225E-01  0.89244344684E+00  0.88000000000E+00 0.  1.
        -11    1    4    4    0    0  0.46425688036E-01  0.65553948114E-01  0.41933215261E-01  0.90616335646E-01  0.51100000000E-03 0.  1.
         11    1    4    4    0    0  0.13117324436E-01  0.34158356555E-01  0.85309580714E-02  0.37575203120E-01  0.51100000000E-03 0. -1.
</event>
<event>
 8    1  0.1030163E+005  0.1043930E+01  0.7957747E-01            NaN
         13   -1    0    0    0    0  0.00000000000E+00  0.00000000000E+00  0.74505805969E-08  0.10566000000E+00  0.10566000000E+00 0.  1.
     999900   -1    0    0    0    0 -0.00000000000E+00 -0.00000000000E+00 -0.74505805969E-08  0.93827000000E+00  0.93827000000E+00 0. -1.
     999902    2    1    2    0    0  0.20307391788E-01 -0.41712467403E-02 -0.39176214927E-02  0.10228317247E+01  0.10226141012E+01 0.  0.
     999903    2    3    3    0    0  0.45920397311E-01 -0.84492580405E-01  0.89948637403E-01  0.13383317736E+00  0.23934973543E-01 0.  0.
         14    1    1    2    0    0 -0.20307391788E-01  0.41712467403E-02  0.39176214927E-02  0.21098275256E-01  0.00000000000E+00 0. -1.
     999901    1    3    3    0    0 -0.25613005523E-01  0.80321333665E-01 -0.93866258896E-01  0.88899854739E+00  0.88000000000E+00 0. -1.
        -11    1    4    4    0    0  0.30224715829E-01 -0.74424143743E-01  0.70405918358E-01  0.10681638956E+00  0.51100000000E-03 0.  1.
         11    1    4    4    0    0  0.15695681483E-01 -0.10068436662E-01  0.19542719046E-01  0.27016787794E-01  0.51100000000E-03 0. -1.
</event>
<event>
 8    1  0.1030163E+005  0.1043930E+01  0.7957747E-01            NaN
         13   -1    0    0    0    0  0.00000000000E+00  0.00000000000E+00  0.74505805969E-08  0.10566000000E+00  0.10566000000E+00 0.  1.
     999900   -1    0    0    0    0 -0.00000000000E+00 -0.00000000000E+00 -0.74505805969E-08  0.93827000000E+00  0.93827000000E+00 0. -1.
     999902    2    1    2    0    0 -0.11183395702E-01  0.11751766213E-01  0.15610049445E-01  0.10214167596E+01  0.10211686202E+01 0.  0.
     999903    2    3    3    0    0 -0.15414448572E-01  0.28370279148E-01  0.12853817489E+00  0.13403474589E+00  0.20019309173E-01 0.  0.
         14    1    1    2    0    0  0.11183395702E-01 -0.11751766213E-01 -0.15610049445E-01  0.22513240375E-01  0.00000000000E+00 0. -1.
     999901    1    3    3    0    0  0.42310528700E-02 -0.16618512935E-01 -0.11292812544E+00  0.88738201373E+00  0.88000000000E+00 0. -1.
        -11    1    4    4    0    0 -0.98584367077E-02  0.28335313909E-01  0.85003295730E-01  0.90143775129E-01  0.51100000000E-03 0.  1.
         11    1    4    4    0    0 -0.55560118638E-02  0.34965238725E-04  0.43534879155E-01  0.43890970763E-01  0.51100000000E-03 0. -1.
</event>
<event>
 8    1  0.1030163E+005  0.1043930E+01  0.7957747E-01            NaN
         13   -1    0    0    0    0  0.00000000000E+00  0.00000000000E+00  0.74505805969E-08  0.10566000000E+00  0.10566000000E+00 0. -1.
     999900   -1    0    0    0    0 -0.00000000000E+00 -0.00000000000E+00 -0.74505805969E-08  0.93827000000E+00  0.93827000000E+00 0.  1.
     999902    2    1    2    0    0  0.21282578287E-01 -0.83942613762E-02  0.56694721087E-02  0.10203597926E+01  0.10200875216E+01 0.  0.
     999903    2    3    3    0    0 -0.22357196363E-01 -0.11413904598E+00 -0.49821360922E-01  0.13122222060E+00  0.34778400321E-01 0.  0.
         14    1    1    2    0    0 -0.21282578287E-01  0.83942613762E-02 -0.56694721087E-02  0.23570207394E-01  0.00000000000E+00 0. -1.
     999901    1    3    3    0    0  0.43639774650E-01  0.10574478460E+00  0.55490833030E-01  0.88913757201E+00  0.88000000000E+00 0.  1.
        -11    1    4    4    0    0 -0.67000676101E-02 -0.26400519579E-01 -0.28815075117E-01  0.39654104643E-01  0.51100000000E-03 0.  1.
         11    1    4    4    0    0 -0.15657128753E-01 -0.87738526401E-01 -0.21006285805E-01  0.91568115958E-01  0.51100000000E-03 0. -1.
</event>
<event>
 8    1  0.1030163E+005  0.1043930E+01  0.7957747E-01            NaN
         13   -1    0    0    0    0  0.00000000000E+00  0.00000000000E+00  0.74505805969E-08  0.10566000000E+00  0.10566000000E+00 0. -1.
     999900   -1    0    0    0    0 -0.00000000000E+00 -0.00000000000E+00 -0.74505805969E-08  0.93827000000E+00  0.93827000000E+00 0. -1.
     999902    2    1    2    0    0 -0.16623949031E-01  0.33717612419E-02  0.14553549797E-01  0.10215798262E+01  0.10213353079E+01 0.  0.
     999903    2    3    3    0    0  0.81295177671E-02 -0.12903843678E+00  0.82812127883E-02  0.13130765614E+00  0.21356845505E-01 0.  0.
         14    1    1    2    0    0  0.16623949031E-01 -0.33717612419E-02 -0.14553549797E-01  0.22350173757E-01  0.00000000000E+00 0. -1.
     999901    1    3    3    0    0 -0.24753466798E-01  0.13241019802E+00  0.62723370090E-02  0.89027217011E+00  0.88000000000E+00 0.  1.
        -11    1    4    4    0    0  0.10001295470E-01 -0.98613346502E-01  0.14550548856E-01  0.10018282095E+00  0.51100000000E-03 0. -1.
         11    1    4    4    0    0 -0.18717777025E-02 -0.30425090273E-01 -0.62693360679E-02  0.31124835190E-01  0.51100000000E-03 0.  1.
</event>
<event>
 8    1  0.1030163E+005  0.1043930E+01  0.7957747E-01            NaN
         13   -1    0    0    0    0  0.00000000000E+00  0.00000000000E+00  0.74505805969E-08  0.10566000000E+00  0.10566000000E+00 0. -1.
     999900   -1    0    0    0    0 -0.00000000000E+00 -0.00000000000E+00 -0.74505805969E-08  0.93827000000E+00  0.93827000000E+00 0.  1.
     999902    2    1    2    0    0  0.70894002895E-02  0.15582621914E-01  0.15774475712E-01  0.10206510012E+01  0.10203854930E+01 0.  0.
     999903    2    3    3    0    0  0.11953962434E+00  0.39817503518E-01  0.37168571877E-01  0.13290661808E+00  0.20186902193E-01 0.  0.
         14    1    1    2    0    0 -0.70894002895E-02 -0.15582621914E-01 -0.15774475712E-01  0.23278998823E-01  0.00000000000E+00 0.  1.
     999901    1    3    3    0    0 -0.11245022405E+00 -0.24234881603E-01 -0.21394096165E-01  0.88774438310E+00  0.88000000000E+00 0. -1.
        -11    1    4    4    0    0  0.38135883601E-01  0.62049488082E-02  0.18662795515E-01  0.42911630884E-01  0.51100000000E-03 0. -1.
         11    1    4    4    0    0  0.81403740737E-01  0.33612554710E-01  0.18505776362E-01  0.89994987193E-01  0.51100000000E-03 0.  1.
</event>
<event>
 8    1  0.1184932E+005  0.1043930E+01  0.7957747E-01            NaN
         13   -1    0    0    0    0  0.00000000000E+00  0.00000000000E+00  0.74505805969E-08  0.10566000000E+00  0.10566000000E+00 0.  1.
     999900   -1    0    0    0    0 -0.00000000000E+00 -0.00000000000E+00 -0.74505805969E-08  0.93827000000E+00  0.93827000000E+00 0.  1.
     999902    2    1    2    0    0  0.19547055507E-01 -0.38632826233E-03  0.12443046858E-01  0.10207553146E+01  0.10204922078E+01 0.  0.
     999903    2    3    3    0    0  0.67564393886E-01  0.10334696760E+00 -0.41386891321E-01  0.13173117336E+00  0.19866661208E-01 0.  0.
         14    1    1    2    0    0 -0.19547055507E-01  0.38632826233E-03 -0.12443046858E-01  0.23174685405E-01  0.00000000000E+00 0. -1.
     999901    1    3    3    0    0 -0.48017338379E-01 -0.10373329586E+00  0.53829938179E-01  0.88902414124E+00  0.88000000000E+00 0. -1.
        -11    1    4    4    0    0  0.49869648046E-01  0.58665274786E-01 -0.25195753373E-01  0.81016562325E-01  0.51100000000E-03 0.  1.
         11    1    4    4    0    0  0.17694745840E-01  0.44681692816E-01 -0.16191137948E-01  0.50714611034E-01  0.51100000000E-03 0. -1.
</event>
<event>
 7    1  0.1082152E+005  0.1043930E+01  0.7957747E-01            NaN
         13   -1    0    0    0    0  0.00000000000E+00  0.00000000000E+00  0.74505805969E-08  0.10566000000E+00  0.10566000000E+00 0. -1.
     999900   -1    0    0    0    0 -0.00000000000E+00 -0.00000000000E+00 -0.74505805969E-08  0.93827000000E+00  0.93827000000E+00 0.  1.
     999903    2    1    2    0    0  0.70596983262E-01  0.34274950126E-01 -0.49414087944E-01  0.94894150257E-01  0.20110728828E-01 0.  0.
         14    1    1    2    0    0  0.77167951092E-02  0.48509619791E-01 -0.30948463610E-01  0.58056347963E-01  0.00000000000E+00 0.  1.
     999901    1    1    2    0    0 -0.78313778371E-01 -0.82784569917E-01  0.80362551554E-01  0.89097950178E+00  0.88000000000E+00 0. -1.
        -11    1    3    3    0    0  0.60766175077E-01  0.23606247659E-01 -0.33296837541E-01  0.73203302338E-01  0.51100000000E-03 0. -1.
         11    1    3    3    0    0  0.98308081843E-02  0.10668702467E-01 -0.16117250403E-01  0.21690847919E-01  0.51100000000E-03 0.  1.
</event>
<event>
 8    1  0.1030163E+005  0.1043930E+01  0.7957747E-01            NaN
         13   -1    0    0    0    0  0.00000000000E+00  0.00000000000E+00  0.74505805969E-08  0.10566000000E+00  0.10566000000E+00 0.  1.
     999900   -1    0    0    0    0 -0.00000000000E+00 -0.00000000000E+00 -0.74505805969E-08  0.93827000000E+00  0.93827000000E+00 0. -1.
     999902    2    1    2    0    0  0.31476426535E-03  0.90516769201E-02  0.22238617301E-01  0.10199177525E+01  0.10196350493E+01 0.  0.
     999903    2    3    3    0    0  0.29058342655E-01  0.12631689610E+00 -0.61921210339E-02  0.13121891046E+00  0.19486266461E-01 0.  0.
         14    1    1    2    0    0 -0.31476426535E-03 -0.90516769201E-02 -0.22238617301E-01  0.24012247522E-01  0.00000000000E+00 0. -1.
     999901    1    3    3    0    0 -0.28743578389E-01 -0.11726521918E+00  0.28430738335E-01  0.88869884202E+00  0.88000000000E+00 0.  1.
        -11    1    4    4    0    0  0.17431949491E-01  0.95606676127E-01  0.26073136754E-02  0.97219178092E-01  0.51100000000E-03 0. -1.
         11    1    4    4    0    0  0.11626393164E-01  0.30710219972E-01 -0.87994347093E-02  0.33999732365E-01  0.51100000000E-03 0.  1.
</event>
<event>
 8    1  0.1030163E+005  0.1043930E+01  0.7957747E-01            NaN
         13   -1    0    0    0    0  0.00000000000E+00  0.00000000000E+00  0.74505805969E-08  0.10566000000E+00  0.10566000000E+00 0.  1.
     999900   -1    0    0    0    0 -0.00000000000E+00 -0.00000000000E+00 -0.74505805969E-08  0.93827000000E+00  0.93827000000E+00 0. -1.
     999902    2    1    2    0    0 -0.15180858796E-01 -0.94813762644E-02  0.15383361753E-01  0.10203290935E+01  0.10200561044E+01 0.  0.
     999903    2    3    3    0    0  0.74306423286E-01 -0.95604537526E-01  0.46175109533E-01  0.13107474050E+00  0.19666588941E-01 0.  0.
         14    1    1    2    0    0  0.15180858796E-01  0.94813762644E-02 -0.15383361753E-01  0.23600906518E-01  0.00000000000E+00 0. -1.
     999901    1    3    3    0    0 -0.89487282082E-01  0.86123161261E-01 -0.30791747780E-01  0.88925435298E+00  0.88000000000E+00 0. -1.
        -11    1    4    4    0    0  0.37958926149E-01 -0.43226682696E-01  0.12117353413E-01  0.58792155481E-01  0.51100000000E-03 0.  1.
         11    1    4    4    0    0  0.36347497137E-01 -0.52377854830E-01  0.34057756120E-01  0.72282585023E-01  0.51100000000E-03 0. -1.
</event>
<event>
 7    1  0.1030163E+005  0.1043930E+01  0.7957747E-01            NaN
         13   -1    0    0    0    0  0.00000000000E+00  0.00000000000E+00  0.74505805969E-08  0.10566000000E+00  0.10566000000E+00 0.  1.
     999900   -1    0    0    0    0 -0.00000000000E+00 -0.00000000000E+00 -0.74505805969E-08  0.93827000000E+00  0.93827000000E+00 0.  1.
     999903    2    1    2    0    0  0.10886305198E-01  0.10634659331E+00 -0.79489853085E-02  0.10910267359E+00  0.20300183887E-01 0.  0.
         14    1    1    2    0    0 -0.13274560193E-01 -0.37348579275E-01  0.33285722473E-01  0.51759729933E-01  0.00000000000E+00 0.  1.
     999901    1    1    2    0    0  0.23882549953E-02 -0.68998014040E-01 -0.25336737165E-01  0.88306759648E+00  0.88000000000E+00 0. -1.
        -11    1    3    3    0    0  0.91096294531E-02  0.10097948482E+00 -0.12043315401E-01  0.10210359578E+00  0.51100000000E-03 0.  1.
         11    1    3    3    0    0  0.17766757446E-02  0.53671084902E-02  0.40943300929E-02  0.69990778075E-02  0.51100000000E-03 0. -1.
</event>
<event>
 8    1  0.1030163E+005  0.1043930E+01  0.7957747E-01            NaN
         13   -1    0    0    0    0  0.00000000000E+00  0.00000000000E+00  0.74505805969E-08  0.10566000000E+00  0.10566000000E+00 0. -1.
     999900   -1    0    0    0    0 -0.00000000000E+00 -0.00000000000E+00 -0.74505805969E-08  0.93827000000E+00  0.93827000000E+00 0.  1.
     999902    2    1    2    0    0  0.11417103591E-01  0.37634971992E-02  0.19579595158E-01  0.10209544758E+01  0.10206959229E+01 0.  0.
     999903    2    3    3    0    0 -0.10612009668E+00  0.68952424059E-01  0.26466745709E-01  0.13072303260E+00  0.19290176748E-01 0.  0.
         14    1    1    2    0    0 -0.11417103591E-01 -0.37634971992E-02 -0.19579595158E-01  0.22975524197E-01  0.00000000000E+00 0.  1.
     999901    1    3    3    0    0  0.11753720027E+00 -0.65188926860E-01 -0.68871505513E-02  0.89023144321E+00  0.88000000000E+00 0. -1.
        -11    1    4    4    0    0 -0.77524763993E-01  0.44897996323E-01  0.26236310952E-01  0.93351616158E-01  0.51100000000E-03 0. -1.
         11    1    4    4    0    0 -0.28595332690E-01  0.24054427736E-01  0.23043475666E-03  0.37371416437E-01  0.51100000000E-03 0.  1.
</event>
<event>
 8    1  0.1030163E+005  0.1043930E+01  0.7957747E-01            NaN
         13   -1    0    0    0    0  0.00000000000E+00  0.00000000000E+00  0.74505805969E-08  0.10566000000E+00  0.10566000000E+00 0.  1.
     999900   -1    0    0    0    0 -0.00000000000E+00 -0.00000000000E+00 -0.74505805969E-08  0.93827000000E+00  0.93827000000E+00 0. -1.
     999902    2    1    2    0    0 -0.98208713957E-02  0.22732989902E-01  0.24895460593E-02  0.10190415251E+01  0.10187375489E+01 0.  0.
     999903    2    3    3    0    0 -0.10567229482E+00 -0.68869281017E-01 -0.17374945905E-01  0.12888812848E+00  0.20016222384E-01 0.  0.
         14    1    1    2    0    0  0.98208713957E-02 -0.22732989902E-01 -0.24895460593E-02  0.24888474932E-01  0.00000000000E+00 0. -1.
     999901    1    3    3    0    0  0.95851423425E-01  0.91602270918E-01  0.19864491964E-01  0.89015339658E+00  0.88000000000E+00 0. -1.
        -11    1    4    4    0    0 -0.79336825875E-01 -0.53095867216E-01 -0.44304539915E-02  0.95568787263E-01  0.51100000000E-03 0.  1.
         11    1    4    4    0    0 -0.26335468945E-01 -0.15773413801E-01 -0.12944491913E-01  0.33319341221E-01  0.51100000000E-03 0. -1.
</event>
<event>
 8    1  0.1030163E+005  0.1043930E+01  0.7957747E-01            NaN
         13   -1    0    0    0    0  0.00000000000E+00  0.00000000000E+00  0.74505805969E-08  0.10566000000E+00  0.10566000000E+00 0. -1.
     999900   -1    0    0    0    0 -0.00000000000E+00 -0.00000000000E+00 -0.74505805969E-08  0.93827000000E+00  0.93827000000E+00 0. -1.
     999902    2    1    2    0    0 -0.12144410748E-01 -0.64231311676E-02 -0.17430071262E-01  0.10217365165E+01  0.10214954520E+01 0.  0.
     999903    2    3    3    0    0 -0.10276311539E+00  0.81196790075E-01 -0.88594844148E-02  0.13271320116E+00  0.19522466425E-01 0.  0.
         14    1    1    2    0    0  0.12144410748E-01  0.64231311676E-02  0.17430071262E-01  0.22193483517E-01  0.00000000000E+00 0. -1.
     999901    1    3    3    0    0  0.90618704640E-01 -0.87619921243E-01 -0.85705868473E-02  0.88902331532E+00  0.88000000000E+00 0. -1.
        -11    1    4    4    0    0 -0.47551329805E-01  0.49952234607E-01 -0.53168171749E-02  0.69172858654E-01  0.51100000000E-03 0.  1.
         11    1    4    4    0    0 -0.55211785583E-01  0.31244555468E-01 -0.35426672398E-02  0.63540342506E-01  0.51100000000E-03 0. -1.
</event>
<event>
 8    1  0.1030163E+005  0.1043930E+01  0.7957747E-01            NaN
         13   -1    0    0    0    0  0.00000000000E+00  0.00000000000E+00  0.74505805969E-08  0.10566000000E+00  0.10566000000E+00 0. -1.
     999900   -1    0    0    0    0 -0.00000000000E+00 -0.00000000000E+00 -0.74505805969E-08  0.93827000000E+00  0.93827000000E+00 0. -1.
     999902    2    1    2    0    0  0.13213107172E-01 -0.13934379628E-01 -0.14324566771E-01  0.10199728226E+01  0.10196914300E+01 0.  0.
     999903    2    3    3    0    0 -0.23773769135E-01  0.31129875985E-01 -0.12374971870E+00  0.13128126752E+00  0.19660036775E-01 0.  0.
         14    1    1    2    0    0 -0.13213107172E-01  0.13934379628E-01  0.14324566771E-01  0.23957177420E-01  0.00000000000E+00 0. -1.
     999901    1    3    3    0    0  0.36986876308E-01 -0.45064255612E-01  0.10942515193E+00  0.88869155506E+00  0.88000000000E+00 0.  1.
        -11    1    4    4    0    0 -0.18638997750E-01  0.15120146448E-01 -0.94869213425E-01  0.97859388117E-01  0.51100000000E-03 0. -1.
         11    1    4    4    0    0 -0.51347713856E-02  0.16009729536E-01 -0.28880505278E-01  0.33421879407E-01  0.51100000000E-03 0.  1.
</event>
<event>
 8    1  0.1030163E+005  0.1043930E+01  0.7957747E-01            NaN
         13   -1    0    0    0    0  0.00000000000E+00  0.00000000000E+00  0.74505805969E-08  0.10566000000E+00  0.10566000000E+00 0.  1.
     999900   -1    0    0    0    0 -0.00000000000E+00 -0.00000000000E+00 -0.74505805969E-08  0.93827000000E+00  0.93827000000E+00 0. -1.
     999902    2    1    2    0    0  0.12161387818E-01 -0.12689976507E-01 -0.17126153297E-01  0.10193894217E+01  0.10190939864E+01 0.  0.
     999903    2    3    3    0    0  0.10218353788E+00  0.53847526282E-02 -0.80935597645E-01  0.13231426786E+00  0.22045941580E-01 0.  0.
         14    1    1    2    0    0 -0.12161387818E-01  0.12689976507E-01  0.17126153297E-01  0.24540578318E-01  0.00000000000E+00 0.  1.
     999901    1    3    3    0    0 -0.90022150059E-01 -0.18074729136E-01  0.63809444348E-01  0.88707515382E+00  0.88000000000E+00 0. -1.
        -11    1    4    4    0    0  0.85768375940E-01  0.93401201477E-02 -0.58541372744E-01  0.10426315552E+00  0.51100000000E-03 0. -1.
         11    1    4    4    0    0  0.16415161936E-01 -0.39553675195E-02 -0.22394224901E-01  0.28051112341E-01  0.51100000000E-03 0.  1.
</event>
<event>
 8    1  0.1030163E+005  0.1043930E+01  0.7957747E-01            NaN
         13   -1    0    0    0    0  0.00000000000E+00  0.00000000000E+00  0.74505805969E-08  0.10566000000E+00  0.10566000000E+00 0.  1.
     999900   -1    0    0    0    0 -0.00000000000E+00 -0.00000000000E+00 -0.74505805969E-08  0.93827000000E+00  0.93827000000E+00 0. -1.
     999902    2    1    2    0    0 -0.21229478084E-01  0.99647751144E-02  0.34690149617E-03  0.10204756225E+01  0.10202060519E+01 0.  0.
     999903    2    3    3    0    0 -0.48157637111E-01  0.62747600050E-01  0.10424704535E+00  0.13238419014E+00  0.20042654769E-01 0.  0.
         14    1    1    2    0    0  0.21229478084E-01 -0.99647751144E-02 -0.34690149617E-03  0.23454377490E-01  0.00000000000E+00 0. -1.
     999901    1    3    3    0    0  0.26928159027E-01 -0.52782824935E-01 -0.10390014386E+00  0.88809143237E+00  0.88000000000E+00 0.  1.
        -11    1    4    4    0    0 -0.26800828563E-01  0.26702138552E-01  0.63625152553E-01  0.74025061792E-01  0.51100000000E-03 0. -1.
         11    1    4    4    0    0 -0.21356808547E-01  0.36045461497E-01  0.40621892799E-01  0.58359128347E-01  0.51100000000E-03 0.  1.
</event>
<event>
 8    1  0.1030163E+005  0.1043930E+01  0.7957747E-01            NaN
         13   -1    0    0    0    0  0.00000000000E+00  0.00000000000E+00  0.74505805969E-08  0.10566000000E+00  0.10566000000E+00 0.  1.
     999900   -1    0    0    0    0 -0.00000000000E+00 -0.00000000000E+00 -0.74505805969E-08  0.93827000000E+00  0.93827000000E+00 0.  1.
     999902    2    1    2    0    0  0.19298835196E-01 -0.10207873310E-01  0.92097279380E-02  0.10202347514E+01  0.10199595498E+01 0.  0.
     999903    2    3    3    0    0  0.64187713270E-01  0.46641743340E-01  0.10388555913E+00  0.13219736294E+00  0.19708338770E-01 0.  0.
         14    1    1    2    0    0 -0.19298835196E-01  0.10207873310E-01 -0.92097279380E-02  0.23695248598E-01  0.00000000000E+00 0. -1.
     999901    1    3    3    0    0 -0.44888878074E-01 -0.56849616651E-01 -0.94675831191E-01  0.88803738846E+00  0.88000000000E+00 0.  1.
        -11    1    4    4    0    0  0.14729134669E-01  0.21689957155E-01  0.36962747295E-01  0.45320055804E-01  0.51100000000E-03 0.  1.
         11    1    4    4    0    0  0.49458578601E-01  0.24951786186E-01  0.66922811834E-01  0.86877307140E-01  0.51100000000E-03 0. -1.
</event>
<event>
 8    1  0.1030163E+005  0.1043930E+01  0.7957747E-01            NaN
         13   -1    0    0    0    0  0.00000000000E+00  0.00000000000E+00  0.74505805969E-08  0.10566000000E+00  0.10566000000E+00 0.  1.
     999900   -1    0    0    0    0 -0.00000000000E+00 -0.00000000000E+00 -0.74505805969E-08  0.93827000000E+00  0.93827000000E+00 0.  1.
     999902    2    1    2    0    0  0.93137368741E-02 -0.19009180687E-01  0.68308250009E-03  0.10227507355E+01  0.10225314204E+01 0.  0.
     999903    2    3    3    0    0  0.62329291584E-01  0.57491513221E-01 -0.99460527636E-01  0.13219374803E+00  0.19813525116E-01 0.  0.
         14    1    1    2    0    0 -0.93137368741E-02  0.19009180687E-01 -0.68308250009E-03  0.21179264545E-01  0.00000000000E+00 0.  1.
     999901    1    3    3    0    0 -0.53015554710E-01 -0.76500693908E-01  0.10014361014E+00  0.89055698743E+00  0.88000000000E+00 0. -1.
        -11    1    4    4    0    0  0.35830985457E-01  0.26458686468E-01 -0.38741508965E-01  0.59034627519E-01  0.51100000000E-03 0.  1.
         11    1    4    4    0    0  0.26498306127E-01  0.31032826753E-01 -0.60719018671E-01  0.73159120506E-01  0.51100000000E-03 0. -1.
</event>
<event>
 8    1  0.1030163E+005  0.1043930E+01  0.7957747E-01            NaN
         13   -1    0    0    0    0  0.00000000000E+00  0.00000000000E+00  0.74505805969E-08  0.10566000000E+00  0.10566000000E+00 0.  1.
     999900   -1    0    0    0    0 -0.00000000000E+00 -0.00000000000E+00 -0.74505805969E-08  0.93827000000E+00  0.93827000000E+00 0.  1.
     999902    2    1    2    0    0 -0.18282286715E-01  0.15373675328E-01  0.10639732684E-02  0.10200192505E+01  0.10197389605E+01 0.  0.
     999903    2    3    3    0    0 -0.11131579282E+00  0.13253379158E-01 -0.67679118202E-01  0.13244652589E+00  0.19868603098E-01 0.  0.
         14    1    1    2    0    0  0.18282286715E-01 -0.15373675328E-01 -0.10639732684E-02  0.23910749460E-01  0.00000000000E+00 0.  1.
     999901    1    3    3    0    0  0.93033506109E-01  0.21202961699E-02  0.68743091470E-01  0.88757272465E+00  0.88000000000E+00 0. -1.
        -11    1    4    4    0    0 -0.77400201723E-01  0.15346068992E-02 -0.40097070133E-01  0.87184760132E-01  0.51100000000E-03 0. -1.
         11    1    4    4    0    0 -0.33915591101E-01  0.11718772258E-01 -0.27582048069E-01  0.45261765760E-01  0.51100000000E-03 0.  1.
</event>
<event>
 8    1  0.1030163E+005  0.1043930E+01  0.7957747E-01            NaN
         13   -1    0    0    0    0  0.00000000000E+00  0.00000000000E+00  0.74505805969E-08  0.10566000000E+00  0.10566000000E+00 0. -1.
     999900   -1    0    0    0    0 -0.00000000000E+00 -0.00000000000E+00 -0.74505805969E-08  0.93827000000E+00  0.93827000000E+00 0.  1.
     999902    2    1    2    0    0 -0.10165386731E-01 -0.15646888837E-01  0.14523455854E-01  0.10202848951E+01  0.10200108706E+01 0.  0.
     999903    2    3    3    0    0  0.82095992177E-01 -0.10045955677E+00  0.26409035734E-02  0.13132677134E+00  0.20195841653E-01 0.  0.
         14    1    1    2    0    0  0.10165386731E-01  0.15646888837E-01 -0.14523455854E-01  0.23645104939E-01  0.00000000000E+00 0.  1.
     999901    1    3    3    0    0 -0.92261378908E-01  0.84812667937E-01  0.11882552280E-01  0.88895812372E+00  0.88000000000E+00 0. -1.
        -11    1    4    4    0    0  0.56101639006E-01 -0.55696224794E-01  0.70750852159E-02  0.79371161685E-01  0.51100000000E-03 0.  1.
         11    1    4    4    0    0  0.25994353172E-01 -0.44763331980E-01 -0.44341816425E-02  0.51955609655E-01  0.51100000000E-03 0. -1.
</event>
<event>
 8    1  0.1030163E+005  0.1043930E+01  0.7957747E-01            NaN
         13   -1    0    0    0    0  0.00000000000E+00  0.00000000000E+00  0.74505805969E-08  0.10566000000E+00  0.10566000000E+00 0. -1.
     999900   -1    0    0    0    0 -0.00000000000E+00 -0.00000000000E+00 -0.74505805969E-08  0.93827000000E+00  0.93827000000E+00 0. -1.
     999902    2    1    2    0    0  0.13944326292E-01 -0.10252964450E-01 -0.13817566285E-01  0.10217829313E+01  0.10215428850E+01 0.  0.
     999903    2    3    3    0    0  0.10810330670E+00 -0.70493862851E-01  0.28903512913E-01  0.13368385456E+00  0.19500007480E-01 0.  0.
         14    1    1    2    0    0 -0.13944326292E-01  0.10252964450E-01  0.13817566285E-01  0.22147068741E-01  0.00000000000E+00 0. -1.
     999901    1    3    3    0    0 -0.94158980406E-01  0.60240898401E-01 -0.42721079198E-01  0.88809907670E+00  0.88000000000E+00 0. -1.
        -11    1    4    4    0    0  0.37283309020E-01 -0.13763604787E-01  0.10215232077E-01  0.41037714795E-01  0.51100000000E-03 0. -1.
         11    1    4    4    0    0  0.70819997679E-01 -0.56730258065E-01  0.18688280836E-01  0.92646139762E-01  0.51100000000E-03 0.  1.
</event>
<event>
 8    1  0.1030163E+005  0.1043930E+01  0.7957747E-01            NaN
         13   -1    0    0    0    0  0.00000000000E+00  0.00000000000E+00  0.74505805969E-08  0.10566000000E+00  0.10566000000E+00 0.  1.
     999900   -1    0    0    0    0 -0.00000000000E+00 -0.00000000000E+00 -0.74505805969E-08  0.93827000000E+00  0.93827000000E+00 0.  1.
     999902    2    1    2    0    0  0.14014770843E-01  0.10944149927E-01  0.11927975586E-01  0.10225182084E+01  0.10222939996E+01 0.  0.
     999903    2    3    3    0    0 -0.96617902096E-01 -0.64503704058E-01  0.57941938437E-01  0.13119938114E+00  0.18980583205E-01 0.  0.
         14    1    1    2    0    0 -0.14014770843E-01 -0.10944149927E-01 -0.11927975586E-01  0.21411791634E-01  0.00000000000E+00 0. -1.
     999901    1    3    3    0    0  0.11063267294E+00  0.75447853985E-01 -0.46013962852E-01  0.89131882723E+00  0.88000000000E+00 0.  1.
        -11    1    4    4    0    0 -0.84619720361E-01 -0.56563432795E-01  0.57261977097E-01  0.11678661801E+00  0.51100000000E-03 0. -1.
         11    1    4    4    0    0 -0.11998181735E-01 -0.79402712626E-02  0.67996134051E-03  0.14412763132E-01  0.51100000000E-03 0.  1.
</event>
<event>
 8    1  0.1030163E+005  0.1043930E+01  0.7957747E-01            NaN
         13   -1    0    0    0    0  0.00000000000E+00  0.00000000000E+00  0.74505805969E-08  0.10566000000E+00  0.10566000000E+00 0. -1.
     999900   -1    0    0    0    0 -0.00000000000E+00 -0.00000000000E+00 -0.74505805969E-08  0.93827000000E+00  0.93827000000E+00 0. -1.
     999902    2    1    2    0    0  0.14135942806E-02 -0.23581191354E-01 -0.91531516806E-02  0.10185952211E+01  0.10182801056E+01 0.  0.
     999903    2    3    3    0    0  0.90553035322E-02 -0.49656053791E-01  0.11715400733E+00  0.12916181014E+00  0.20248199094E-01 0.  0.
         14    1    1    2    0    0 -0.14135942806E-02  0.23581191354E-01  0.91531516806E-02  0.25334778865E-01  0.00000000000E+00 0.  1.
     999901    1    3    3    0    0 -0.76417092516E-02  0.26074862438E-01 -0.12630715901E+00  0.88943341099E+00  0.88000000000E+00 0. -1.
        -11    1    4    4    0    0  0.71362795453E-02 -0.59353367049E-02  0.11402162456E-01  0.14711394809E-01  0.51100000000E-03 0. -1.
         11    1    4    4    0    0  0.19190239868E-02 -0.43720717086E-01  0.10575184487E+00  0.11445041533E+00  0.51100000000E-03 0.  1.
</event>
<event>
 8    1  0.1030163E+005  0.1043930E+01  0.7957747E-01            NaN
         13   -1    0    0    0    0  0.00000000000E+00  0.00000000000E+00  0.74505805969E-08  0.10566000000E+00  0.10566000000E+00 0.  1.
     999900   -1    0    0    0    0 -0.00000000000E+00 -0.00000000000E+00 -0.74505805969E-08  0.93827000000E+00  0.93827000000E+00 0. -1.
     999902    2    1    2    0    0  0.16627930935E-02  0.22994323993E-01 -0.37549299890E-02  0.10205718469E+01  0.10203045091E+01 0.  0.
     999903    2    3    3    0    0 -0.12287333794E+00  0.42806503153E-01 -0.45910871854E-03  0.13157655287E+00  0.19542891168E-01 0.  0.
         14    1    1    2    0    0 -0.16627930935E-02 -0.22994323993E-01  0.37549299890E-02  0.23358153094E-01  0.00000000000E+00 0. -1.
     999901    1    3    3    0    0  0.12453613104E+00 -0.19812179161E-01 -0.32958212704E-02  0.88899529403E+00  0.88000000000E+00 0.  1.
        -11    1    4    4    0    0 -0.89048152332E-01  0.39108982421E-01 -0.41419852858E-02  0.97347332284E-01  0.51100000000E-03 0.  1.
         11    1    4    4    0    0 -0.33825185612E-01  0.36975207326E-02  0.36828765673E-02  0.34229220588E-01  0.51100000000E-03 0. -1.
</event>
<event>
 8    1  0.1030163E+005  0.1043930E+01  0.7957747E-01            NaN
         13   -1    0    0    0    0  0.00000000000E+00  0.00000000000E+00  0.74505805969E-08  0.10566000000E+00  0.10566000000E+00 0.  1.
     999900   -1    0    0    0    0 -0.00000000000E+00 -0.00000000000E+00 -0.74505805969E-08  0.93827000000E+00  0.93827000000E+00 0. -1.
     999902    2    1    2    0    0  0.17296801598E-01 -0.15688426915E-01  0.42311795844E-02  0.10201979760E+01  0.10199219094E+01 0.  0.
     999903    2    3    3    0    0 -0.12349837657E+00  0.21019168389E-01 -0.17432584694E-01  0.12798721138E+00  0.19574902585E-01 0.  0.
         14    1    1    2    0    0 -0.17296801598E-01  0.15688426915E-01 -0.42311795844E-02  0.23732024045E-01  0.00000000000E+00 0. -1.
     999901    1    3    3    0    0  0.14079517817E+00 -0.36707595303E-01  0.21663764279E-01  0.89221076458E+00  0.88000000000E+00 0.  1.
        -11    1    4    4    0    0 -0.63114435991E-01  0.15566673483E-02 -0.49810087506E-02  0.63331878330E-01  0.51100000000E-03 0.  1.
         11    1    4    4    0    0 -0.60383940580E-01  0.19462501041E-01 -0.12451575944E-01  0.64655333046E-01  0.51100000000E-03 0. -1.
</event>
<event>
 8    1  0.1030163E+005  0.1043930E+01  0.7957747E-01            NaN
         13   -1    0    0    0    0  0.00000000000E+00  0.00000000000E+00  0.74505805969E-08  0.10566000000E+00  0.10566000000E+00 0.  1.
     999900   -1    0    0    0    0 -0.00000000000E+00 -0.00000000000E+00 -0.74505805969E-08  0.93827000000E+00  0.93827000000E+00 0.  1.
     999902    2    1    2    0    0  0.15064480535E-01  0.25883008304E-02  0.16818572654E-01  0.10212033139E+01  0.10209503935E+01 0.  0.
     999903    2    3    3    0    0 -0.38766670399E-01 -0.84639763465E-01  0.91525011656E-01  0.13210962927E+00  0.20233192907E-01 0.  0.
         14    1    1    2    0    0 -0.15064480535E-01 -0.25883008304E-02 -0.16818572654E-01  0.22726686100E-01  0.00000000000E+00 0. -1.
     999901    1    3    3    0    0  0.53831150934E-01  0.87228064295E-01 -0.74706439002E-01  0.88909368462E+00  0.88000000000E+00 0.  1.
        -11    1    4    4    0    0 -0.71155784770E-02 -0.29450215102E-01  0.40337565688E-01  0.50451233417E-01  0.51100000000E-03 0. -1.
         11    1    4    4    0    0 -0.31651091922E-01 -0.55189548363E-01  0.51187445968E-01  0.81658395858E-01  0.51100000000E-03 0.  1.
</event>
<event>
 8    1  0.1030163E+005  0.1043930E+01  0.7957747E-01            NaN
         13   -1    0    0    0    0  0.00000000000E+00  0.00000000000E+00  0.74505805969E-08  0.10566000000E+00  0.10566000000E+00 0. -1.
     999900   -1    0    0    0    0 -0.00000000000E+00 -0.00000000000E+00 -0.74505805969E-08  0.93827000000E+00  0.93827000000E+00 0.  1.
     999902    2    1    2    0    0 -0.69992951927E-02  0.14162368994E-01  0.12658465190E-01  0.10236864931E+01  0.10234863148E+01 0.  0.
     999903    2    3    3    0    0  0.57613593203E-01 -0.58733010525E-01  0.10454094841E+00  0.13355675405E+00  0.11819645156E-01 0.  0.
         14    1    1    2    0    0  0.69992951927E-02 -0.14162368994E-01 -0.12658465190E-01  0.20243506852E-01  0.00000000000E+00 0.  1.
     999901    1    3    3    0    0 -0.64612888395E-01  0.72895379519E-01 -0.91882483218E-01  0.89012973910E+00  0.88000000000E+00 0.  1.
        -11    1    4    4    0    0  0.55346217627E-01 -0.58586220574E-01  0.10290571204E+00  0.13071111558E+00  0.51100000000E-03 0.  1.
         11    1    4    4    0    0  0.22673755754E-02 -0.14678995136E-03  0.16352363715E-02  0.28456384662E-02  0.51100000000E-03 0. -1.
</event>
<event>
 8    1  0.1030163E+005  0.1043930E+01  0.7957747E-01            NaN
         13   -1    0    0    0    0  0.00000000000E+00  0.00000000000E+00  0.74505805969E-08  0.10566000000E+00  0.10566000000E+00 0.  1.
     999900   -1    0    0    0    0 -0.00000000000E+00 -0.00000000000E+00 -0.74505805969E-08  0.93827000000E+00  0.93827000000E+00 0.  1.
     999902    2    1    2    0    0  0.55664489377E-02  0.20267041677E-01  0.55983010747E-02  0.10221796136E+01  0.10219481803E+01 0.  0.
     999903    2    3    3    0    0 -0.91023910389E-01 -0.63527130048E-01  0.66974234231E-01  0.13082212873E+00  0.17545164555E-01 0.  0.
         14    1    1    2    0    0 -0.55664489377E-02 -0.20267041677E-01 -0.55983010747E-02  0.21750386366E-01  0.00000000000E+00 0. -1.
     999901    1    3    3    0    0  0.96590359326E-01  0.83794171725E-01 -0.61375933156E-01  0.89135748491E+00  0.88000000000E+00 0.  1.
        -11    1    4    4    0    0 -0.73691731480E-01 -0.42623203430E-01  0.52949477778E-01  0.10025525960E+00  0.51100000000E-03 0. -1.
         11    1    4    4    0    0 -0.17332178909E-01 -0.20903926617E-01  0.14024756453E-01  0.30566869128E-01  0.51100000000E-03 0.  1.
</event>
<event>
 8    1  0.1030163E+005  0.1043930E+01  0.7957747E-01            NaN
         13   -1    0    0    0    0  0.00000000000E+00  0.00000000000E+00  0.74505805969E-08  0.10566000000E+00  0.10566000000E+00 0.  1.
     999900   -1    0    0    0    0 -0.00000000000E+00 -0.00000000000E+00 -0.74505805969E-08  0.93827000000E+00  0.93827000000E+00 0.  1.
     999902    2    1    2    0    0 -0.16925070284E-01  0.15864592805E-01  0.31699564701E-02  0.10205165011E+01  0.10202478802E+01 0.  0.
     999903    2    3    3    0    0 -0.50567373153E-01  0.10662908640E+00 -0.58123746909E-01  0.13308936832E+00  0.20188826379E-01 0.  0.
         14    1    1    2    0    0  0.16925070284E-01 -0.15864592805E-01 -0.31699564701E-02  0.23413498949E-01  0.00000000000E+00 0.  1.
     999901    1    3    3    0    0  0.33642302869E-01 -0.90764493593E-01  0.61293703379E-01  0.88742713273E+00  0.88000000000E+00 0. -1.
        -11    1    4    4    0    0 -0.20763534162E-01  0.38512333643E-01 -0.11197088796E-01  0.45165917593E-01  0.51100000000E-03 0.  1.
         11    1    4    4    0    0 -0.29803838991E-01  0.68116752755E-01 -0.46926658113E-01  0.87923450723E-01  0.51100000000E-03 0. -1.
</event>
<event>
 8    1  0.1030163E+005  0.1043930E+01  0.7957747E-01            NaN
         13   -1    0    0    0    0  0.00000000000E+00  0.00000000000E+00  0.74505805969E-08  0.10566000000E+00  0.10566000000E+00 0.  1.
     999900   -1    0    0    0    0 -0.00000000000E+00 -0.00000000000E+00 -0.74505805969E-08  0.93827000000E+00  0.93827000000E+00 0. -1.
     999902    2    1    2    0    0 -0.21728176957E-01  0.55855353618E-02  0.10746882269E-01  0.10190541612E+01  0.10187504974E+01 0.  0.
     999903    2    3    3    0    0 -0.27504607018E-01 -0.66738886701E-01  0.10719672726E+00  0.13081615153E+00  0.20276704851E-01 0.  0.
         14    1    1    2    0    0  0.21728176957E-01 -0.55855353618E-02 -0.10746882269E-01  0.24875838833E-01  0.00000000000E+00 0.  1.
     999901    1    3    3    0    0  0.57764300611E-02  0.72324422063E-01 -0.96449844991E-01  0.88823800964E+00  0.88000000000E+00 0. -1.
        -11    1    4    4    0    0  0.13339946574E-02 -0.19969713018E-01  0.29552335502E-01  0.35695526812E-01  0.51100000000E-03 0. -1.
         11    1    4    4    0    0 -0.28838601675E-01 -0.46769173684E-01  0.77644391758E-01  0.95120624715E-01  0.51100000000E-03 0.  1.
</event>
<event>
 8    1  0.1030163E+005  0.1043930E+01  0.7957747E-01            NaN
         13   -1    0    0    0    0  0.00000000000E+00  0.00000000000E+00  0.74505805969E-08  0.10566000000E+00  0.10566000000E+00 0.  1.
     999900   -1    0    0    0    0 -0.00000000000E+00 -0.00000000000E+00 -0.74505805969E-08  0.93827000000E+00  0.93827000000E+00 0.  1.
     999902    2    1    2    0    0 -0.18738320005E-01  0.11614979840E-01 -0.14045510353E-02  0.10218391612E+01  0.10216003457E+01 0.  0.
     999903    2    3    3    0    0 -0.12187032856E-01  0.31690080436E-01 -0.12623867928E+00  0.13277814613E+00  0.23260416500E-01 0.  0.
         14    1    1    2    0    0  0.18738320005E-01 -0.11614979840E-01  0.14045510353E-02  0.22090838755E-01  0.00000000000E+00 0.  1.
     999901    1    3    3    0    0 -0.65512871491E-02 -0.20075100596E-01  0.12483412824E+00  0.88906101512E+00  0.88000000000E+00 0. -1.
        -11    1    4    4    0    0  0.49923115558E-02  0.12198515830E-01 -0.63768772048E-01  0.65118694494E-01  0.51100000000E-03 0. -1.
         11    1    4    4    0    0 -0.17179344412E-01  0.19491564605E-01 -0.62469907229E-01  0.67659451633E-01  0.51100000000E-03 0.  1.
</event>
<event>
 8    1  0.1039470E+005  0.1043930E+01  0.7957747E-01            NaN
         13   -1    0    0    0    0  0.00000000000E+00  0.00000000000E+00  0.74505805969E-08  0.10566000000E+00  0.10566000000E+00 0. -1.
     999900   -1    0    0    0    0 -0.00000000000E+00 -0.00000000000E+00 -0.74505805969E-08  0.93827000000E+00  0.93827000000E+00 0. -1.
     999902    2    1    2    0    0  0.14595419577E-01 -0.16739507193E-01 -0.67653755018E-03  0.10217107499E+01  0.10214691191E+01 0.  0.
     999903    2    3    3    0    0  0.40641146870E-02 -0.11843854551E+00  0.59395504098E-01  0.13375677979E+00  0.17856207351E-01 0.  0.
         14    1    1    2    0    0 -0.14595419577E-01  0.16739507193E-01  0.67653755018E-03  0.22219250139E-01  0.00000000000E+00 0. -1.
     999901    1    3    3    0    0  0.10531304890E-01  0.10169903832E+00 -0.60072041648E-01  0.88795397007E+00  0.88000000000E+00 0. -1.
        -11    1    4    4    0    0  0.10932489652E-01 -0.59125222946E-01  0.29224570315E-01  0.66855425730E-01  0.51100000000E-03 0. -1.
         11    1    4    4    0    0 -0.68683749648E-02 -0.59313322568E-01  0.30170933783E-01  0.66901354060E-01  0.51100000000E-03 0.  1.
</event>
<event>
 8    1  0.1030163E+005  0.1043930E+01  0.7957747E-01            NaN
         13   -1    0    0    0    0  0.00000000000E+00  0.00000000000E+00  0.74505805969E-08  0.10566000000E+00  0.10566000000E+00 0. -1.
     999900   -1    0    0    0    0 -0.00000000000E+00 -0.00000000000E+00 -0.74505805969E-08  0.93827000000E+00  0.93827000000E+00 0.  1.
     999902    2    1    2    0    0 -0.28804365979E-02 -0.22908570355E-01 -0.73479715434E-02  0.10197000145E+01  0.10194120989E+01 0.  0.
     999903    2    3    3    0    0  0.15103045208E-01  0.87013424016E-01  0.89679558925E-01  0.12738807795E+00  0.19643349564E-01 0.  0.
         14    1    1    2    0    0  0.28804365979E-02  0.22908570355E-01  0.73479715434E-02  0.24229985483E-01  0.00000000000E+00 0. -1.
     999901    1    3    3    0    0 -0.17983481806E-01 -0.10992199437E+00 -0.97027530469E-01  0.89231193656E+00  0.88000000000E+00 0.  1.
        -11    1    4    4    0    0  0.12008722050E-01  0.61819204494E-01  0.75466371773E-01  0.98291697713E-01  0.51100000000E-03 0. -1.
         11    1    4    4    0    0  0.30943231579E-02  0.25194219521E-01  0.14213187152E-01  0.29096380241E-01  0.51100000000E-03 0.  1.
</event>
<event>
 8    1  0.1030163E+005  0.1043930E+01  0.7957747E-01            NaN
         13   -1    0    0    0    0  0.00000000000E+00  0.00000000000E+00  0.74505805969E-08  0.10566000000E+00  0.10566000000E+00 0. -1.
     999900   -1    0    0    0    0 -0.00000000000E+00 -0.00000000000E+00 -0.74505805969E-08  0.93827000000E+00  0.93827000000E+00 0. -1.
     999902    2    1    2    0    0  0.21923398799E-01 -0.82025237770E-02  0.42003387839E-02  0.10201485018E+01  0.10198712694E+01 0.  0.
     999903    2    3    3    0    0  0.69560817111E-01  0.37191889667E-02  0.11082474351E+00  0.13235335958E+00  0.19563955982E-01 0.  0.
         14    1    1    2    0    0 -0.21923398799E-01  0.82025237770E-02 -0.42003387839E-02  0.23781498210E-01  0.00000000000E+00 0. -1.
     999901    1    3    3    0    0 -0.47637418312E-01 -0.11921712744E-01 -0.10662440472E+00  0.88779514222E+00  0.88000000000E+00 0. -1.
        -11    1    4    4    0    0  0.25322909586E-01  0.66862744003E-02  0.56141364087E-01  0.61952158137E-01  0.51100000000E-03 0.  1.
         11    1    4    4    0    0  0.44237907524E-01 -0.29670854336E-02  0.54683379420E-01  0.70401201438E-01  0.51100000000E-03 0. -1.
</event>
<event>
 8    1  0.1030163E+005  0.1043930E+01  0.7957747E-01            NaN
         13   -1    0    0    0    0  0.00000000000E+00  0.00000000000E+00  0.74505805969E-08  0.10566000000E+00  0.10566000000E+00 0. -1.
     999900   -1    0    0    0    0 -0.00000000000E+00 -0.00000000000E+00 -0.74505805969E-08  0.93827000000E+00  0.93827000000E+00 0. -1.
     999902    2    1    2    0    0 -0.10953066764E-01  0.25645576280E-03  0.23238278715E-01  0.10182385026E+01  0.10179143359E+01 0.  0.
     999903    2    3    3    0    0  0.92156788898E-01  0.55788400003E-01 -0.62840803702E-01  0.12631639412E+00  0.20041095240E-01 0.  0.
         14    1    1    2    0    0  0.10953066764E-01 -0.25645576280E-03 -0.23238278715E-01  0.25691497402E-01  0.00000000000E+00 0.  1.
     999901    1    3    3    0    0 -0.10310985566E+00 -0.55531944240E-01  0.86079082417E-01  0.89192210848E+00  0.88000000000E+00 0.  1.
        -11    1    4    4    0    0  0.33391412430E-01  0.19391760273E-01 -0.33867794631E-01  0.51364534698E-01  0.51100000000E-03 0. -1.
         11    1    4    4    0    0  0.58765376467E-01  0.36396639730E-01 -0.28973009071E-01  0.74951859421E-01  0.51100000000E-03 0.  1.
</event>
<event>
 8    1  0.1030163E+005  0.1043930E+01  0.7957747E-01            NaN
         13   -1    0    0    0    0  0.00000000000E+00  0.00000000000E+00  0.74505805969E-08  0.10566000000E+00  0.10566000000E+00 0.  1.
     999900   -1    0    0    0    0 -0.00000000000E+00 -0.00000000000E+00 -0.74505805969E-08  0.93827000000E+00  0.93827000000E+00 0.  1.
     999902    2    1    2    0    0 -0.19176825662E-01  0.11905605975E-01 -0.64729834443E-02  0.10204482281E+01  0.10201780201E+01 0.  0.
     999903    2    3    3    0    0  0.23207440631E-01 -0.84746060365E-01 -0.93566397754E-01  0.12987356339E+00  0.19798778532E-01 0.  0.
         14    1    1    2    0    0  0.19176825662E-01 -0.11905605975E-01  0.64729834443E-02  0.23481771883E-01  0.00000000000E+00 0.  1.
     999901    1    3    3    0    0 -0.42384266292E-01  0.96651666340E-01  0.87093414310E-01  0.89057466473E+00  0.88000000000E+00 0.  1.
        -11    1    4    4    0    0 -0.17714936946E-02 -0.28004756754E-01 -0.28487083916E-01  0.39989744457E-01  0.51100000000E-03 0. -1.
         11    1    4    4    0    0  0.24978934325E-01 -0.56741303612E-01 -0.65079313838E-01  0.89883818934E-01  0.51100000000E-03 0.  1.
</event>
<event>
 8    1  0.1030163E+005  0.1043930E+01  0.7957747E-01            NaN
         13   -1    0    0    0    0  0.00000000000E+00  0.00000000000E+00  0.74505805969E-08  0.10566000000E+00  0.10566000000E+00 0. -1.
     999900   -1    0    0    0    0 -0.00000000000E+00 -0.00000000000E+00 -0.74505805969E-08  0.93827000000E+00  0.93827000000E+00 0.  1.
     999902    2    1    2    0    0  0.11556441969E-01 -0.15203179702E-01  0.15204336288E-01  0.10195197590E+01  0.10192274913E+01 0.  0.
     999903    2    3    3    0    0 -0.10782196262E+00 -0.36314255072E-01 -0.55956459614E-01  0.12836279198E+00  0.20039467248E-01 0.  0.
         14    1    1    2    0    0 -0.11556441969E-01  0.15203179702E-01 -0.15204336288E-01  0.24410241007E-01  0.00000000000E+00 0.  1.
     999901    1    3    3    0    0  0.11937840459E+00  0.21111075370E-01  0.71160795903E-01  0.89115696701E+00  0.88000000000E+00 0. -1.
        -11    1    4    4    0    0 -0.52055745735E-01 -0.21199801248E-01 -0.38028205216E-01  0.67864849149E-01  0.51100000000E-03 0.  1.
         11    1    4    4    0    0 -0.55766216883E-01 -0.15114453823E-01 -0.17928254399E-01  0.60497942830E-01  0.51100000000E-03 0. -1.
</event>
<event>
 8    1  0.1036579E+005  0.1043930E+01  0.7957747E-01            NaN
         13   -1    0    0    0    0  0.00000000000E+00  0.00000000000E+00  0.74505805969E-08  0.10566000000E+00  0.10566000000E+00 0.  1.
     999900   -1    0    0    0    0 -0.00000000000E+00 -0.00000000000E+00 -0.74505805969E-08  0.93827000000E+00  0.93827000000E+00 0. -1.
     999902    2    1    2    0    0  0.16286513686E-02  0.22922052447E-01 -0.17385171373E-02  0.10208844921E+01  0.10206243436E+01 0.  0.
     999903    2    3    3    0    0 -0.11461874559E+00 -0.23330007665E-01  0.53424898038E-01  0.13032527858E+00  0.21182832879E-01 0.  0.
         14    1    1    2    0    0 -0.16286513686E-02 -0.22922052447E-01  0.17385171373E-02  0.23045507924E-01  0.00000000000E+00 0.  1.
     999901    1    3    3    0    0  0.11624739696E+00  0.46252060112E-01 -0.55163415176E-01  0.89055921349E+00  0.88000000000E+00 0. -1.
        -11    1    4    4    0    0 -0.66616877640E-01 -0.80345648850E-02  0.40254263097E-01  0.78249788740E-01  0.51100000000E-03 0. -1.
         11    1    4    4    0    0 -0.48001867950E-01 -0.15295442780E-01  0.13170634942E-01  0.52075489842E-01  0.51100000000E-03 0.  1.
</event>
<event>
 8    1  0.1030163E+005  0.1043930E+01  0.7957747E-01            NaN
         13   -1    0    0    0    0  0.00000000000E+00  0.00000000000E+00  0.74505805969E-08  0.10566000000E+00  0.10566000000E+00 0.  1.
     999900   -1    0    0    0    0 -0.00000000000E+00 -0.00000000000E+00 -0.74505805969E-08  0.93827000000E+00  0.93827000000E+00 0. -1.
     999902    2    1    2    0    0  0.23949223542E-01  0.24135456145E-03  0.16609369528E-01  0.10147839074E+01  0.10143652616E+01 0.  0.
     999903    2    3    3    0    0  0.79186703828E-01  0.50405401422E-01 -0.81778849463E-01  0.12616258617E+00  0.20444543883E-01 0.  0.
         14    1    1    2    0    0 -0.23949223542E-01 -0.24135456145E-03 -0.16609369528E-01  0.29146092644E-01  0.00000000000E+00 0. -1.
     999901    1    3    3    0    0 -0.55237480285E-01 -0.50164046861E-01  0.98388218990E-01  0.88862132118E+00  0.88000000000E+00 0.  1.
        -11    1    4    4    0    0  0.40583461395E-01  0.13857576233E-01 -0.37779790147E-01  0.57154382355E-01  0.51100000000E-03 0. -1.
         11    1    4    4    0    0  0.38603242433E-01  0.36547825190E-01 -0.43999059315E-01  0.69008203817E-01  0.51100000000E-03 0.  1.
</event>
<event>
 8    1  0.1247222E+005  0.1043930E+01  0.7957747E-01            NaN
         13   -1    0    0    0    0  0.00000000000E+00  0.00000000000E+00  0.74505805969E-08  0.10566000000E+00  0.10566000000E+00 0. -1.
     999900   -1    0    0    0    0 -0.00000000000E+00 -0.00000000000E+00 -0.74505805969E-08  0.93827000000E+00  0.93827000000E+00 0. -1.
     999902    2    1    2    0    0 -0.68004743614E-02 -0.28944246891E-01 -0.80015627730E-02  0.10131397274E+01  0.10126717466E+01 0.  0.
     999903    2    3    3    0    0 -0.30963690111E-01 -0.28191881716E-01 -0.11704652099E+00  0.12607984783E+00  0.21040619114E-01 0.  0.
         14    1    1    2    0    0  0.68004743614E-02  0.28944246891E-01  0.80015627730E-02  0.30790272595E-01  0.00000000000E+00 0. -1.
     999901    1    3    3    0    0  0.24163215750E-01 -0.75236517537E-03  0.10904495821E+00  0.88705987958E+00  0.88000000000E+00 0.  1.
        -11    1    4    4    0    0 -0.16399896633E-01 -0.24569017009E-01 -0.57213822356E-01  0.64391581716E-01  0.51100000000E-03 0. -1.
         11    1    4    4    0    0 -0.14563793478E-01 -0.36228647069E-02 -0.59832698630E-01  0.61688266109E-01  0.51100000000E-03 0.  1.
</event>
<event>
 8    1  0.1030163E+005  0.1043930E+01  0.7957747E-01            NaN
         13   -1    0    0    0    0  0.00000000000E+00  0.00000000000E+00  0.74505805969E-08  0.10566000000E+00  0.10566000000E+00 0. -1.
     999900   -1    0    0    0    0 -0.00000000000E+00 -0.00000000000E+00 -0.74505805969E-08  0.93827000000E+00  0.93827000000E+00 0.  1.
     999902    2    1    2    0    0 -0.20547580789E-02  0.24507888985E-01  0.18652446799E-02  0.10192654953E+01  0.10189670319E+01 0.  0.
     999903    2    3    3    0    0 -0.86938086497E-01 -0.77012632706E-02 -0.93434508713E-01  0.12947639001E+00  0.20410482902E-01 0.  0.
         14    1    1    2    0    0  0.20547580789E-02 -0.24507888985E-01 -0.18652446799E-02  0.24664504677E-01  0.00000000000E+00 0. -1.
     999901    1    3    3    0    0  0.84883328419E-01  0.32209152256E-01  0.95299753393E-01  0.88978910531E+00  0.88000000000E+00 0. -1.
        -11    1    4    4    0    0 -0.40278334963E-01 -0.12554464380E-01 -0.51266854494E-01  0.66396613874E-01  0.51100000000E-03 0.  1.
         11    1    4    4    0    0 -0.46659751535E-01  0.48532011091E-02 -0.42167654219E-01  0.63079776138E-01  0.51100000000E-03 0. -1.
</event>
<event>
 8    1  0.1030163E+005  0.1043930E+01  0.7957747E-01            NaN
         13   -1    0    0    0    0  0.00000000000E+00  0.00000000000E+00  0.74505805969E-08  0.10566000000E+00  0.10566000000E+00 0. -1.
     999900   -1    0    0    0    0 -0.00000000000E+00 -0.00000000000E+00 -0.74505805969E-08  0.93827000000E+00  0.93827000000E+00 0. -1.
     999902    2    1    2    0    0 -0.19048766547E-01 -0.14547988490E-01 -0.43106276461E-02  0.10195767459E+01  0.10192858577E+01 0.  0.
     999903    2    3    3    0    0  0.90204765783E-01  0.58959470807E-01 -0.65447524687E-01  0.12768134781E+00  0.20150164347E-01 0.  0.
         14    1    1    2    0    0  0.19048766547E-01  0.14547988490E-01  0.43106276461E-02  0.24353254131E-01  0.00000000000E+00 0. -1.
     999901    1    3    3    0    0 -0.10925353233E+00 -0.73507459297E-01  0.61136897040E-01  0.89189539806E+00  0.88000000000E+00 0.  1.
        -11    1    4    4    0    0  0.60034425443E-01  0.27710257886E-01 -0.37274768477E-01  0.75905600033E-01  0.51100000000E-03 0. -1.
         11    1    4    4    0    0  0.30170340340E-01  0.31249212921E-01 -0.28172756209E-01  0.51775747777E-01  0.51100000000E-03 0.  1.
</event>
<event>
 8    1  0.1030163E+005  0.1043930E+01  0.7957747E-01            NaN
         13   -1    0    0    0    0  0.00000000000E+00  0.00000000000E+00  0.74505805969E-08  0.10566000000E+00  0.10566000000E+00 0.  1.
     999900   -1    0    0    0    0 -0.00000000000E+00 -0.00000000000E+00 -0.74505805969E-08  0.93827000000E+00  0.93827000000E+00 0.  1.
     999902    2    1    2    0    0  0.71041518599E-02  0.21907414401E-01 -0.38496517913E-02  0.10205799765E+01  0.10203128269E+01 0.  0.
     999903    2    3    3    0    0 -0.82656145247E-01 -0.79443384977E-01 -0.55157670988E-01  0.12874960679E+00  0.19768733290E-01 0.  0.
         14    1    1    2    0    0 -0.71041518599E-02 -0.21907414401E-01  0.38496517913E-02  0.23350023519E-01  0.00000000000E+00 0. -1.
     999901    1    3    3    0    0  0.89760297107E-01  0.10135079938E+00  0.51308019196E-01  0.89183036969E+00  0.88000000000E+00 0. -1.
        -11    1    4    4    0    0 -0.39515830122E-01 -0.51234808178E-01 -0.33127453645E-01  0.72692473512E-01  0.51100000000E-03 0. -1.
         11    1    4    4    0    0 -0.43140315125E-01 -0.28208576799E-01 -0.22030217343E-01  0.56057133278E-01  0.51100000000E-03 0.  1.
</event>
<event>
 8    1  0.1030163E+005  0.1043930E+01  0.7957747E-01            NaN
         13   -1    0    0    0    0  0.00000000000E+00  0.00000000000E+00  0.74505805969E-08  0.10566000000E+00  0.10566000000E+00 0. -1.
     999900   -1    0    0    0    0 -0.00000000000E+00 -0.00000000000E+00 -0.74505805969E-08  0.93827000000E+00  0.93827000000E+00 0. -1.
     999902    2    1    2    0    0  0.16989077044E-01 -0.17765818228E-02 -0.17530443735E-01  0.10194534512E+01  0.10191595743E+01 0.  0.
     999903    2    3    3    0    0 -0.72830246298E-01 -0.87429441700E-01 -0.59378089661E-01  0.12975960012E+00  0.19069458278E-01 0.  0.
         14    1    1    2    0    0 -0.16989077044E-01  0.17765818228E-02  0.17530443735E-01  0.24476548763E-01  0.00000000000E+00 0. -1.
     999901    1    3    3    0    0  0.89819323342E-01  0.85652859877E-01  0.41847645926E-01  0.88969385112E+00  0.88000000000E+00 0. -1.
        -11    1    4    4    0    0 -0.14211065651E-01 -0.16910793944E-01 -0.20554262250E-01  0.30177278810E-01  0.51100000000E-03 0. -1.
         11    1    4    4    0    0 -0.58619180648E-01 -0.70518647756E-01 -0.38823827411E-01  0.99582321307E-01  0.51100000000E-03 0.  1.
</event>
<event>
 8    1  0.1030163E+005  0.1043930E+01  0.7957747E-01            NaN
         13   -1    0    0    0    0  0.00000000000E+00  0.00000000000E+00  0.74505805969E-08  0.10566000000E+00  0.10566000000E+00 0.  1.
     999900   -1    0    0    0    0 -0.00000000000E+00 -0.00000000000E+00 -0.74505805969E-08  0.93827000000E+00  0.93827000000E+00 0. -1.
     999902    2    1    2    0    0  0.27988098747E-02 -0.19838899715E-01 -0.13367799787E-01  0.10198444577E+01  0.10195600053E+01 0.  0.
     999903    2    3    3    0    0  0.60245530323E-01  0.54642743051E-01 -0.10015396196E+00  0.13058663299E+00  0.20166787734E-01 0.  0.
         14    1    1    2    0    0 -0.27988098747E-02  0.19838899715E-01  0.13367799787E-01  0.24085542339E-01  0.00000000000E+00 0.  1.
     999901    1    3    3    0    0 -0.57446720448E-01 -0.74481642766E-01  0.86786162168E-01  0.88925782467E+00  0.88000000000E+00 0. -1.
        -11    1    4    4    0    0  0.37447674139E-01  0.46172738876E-01 -0.72362514541E-01  0.93652788242E-01  0.51100000000E-03 0.  1.
         11    1    4    4    0    0  0.22797856184E-01  0.84700041753E-02 -0.27791447414E-01  0.36933844746E-01  0.51100000000E-03 0. -1.
</event>
<event>
 7    1  0.1030163E+005  0.1043930E+01  0.7957747E-01            NaN
         13   -1    0    0    0    0  0.00000000000E+00  0.00000000000E+00  0.74505805969E-08  0.10566000000E+00  0.10566000000E+00 0.  1.
     999900   -1    0    0    0    0 -0.00000000000E+00 -0.00000000000E+00 -0.74505805969E-08  0.93827000000E+00  0.93827000000E+00 0. -1.
     999903    2    1    2    0    0  0.44930822076E-01 -0.81378941734E-01 -0.49451112806E-02  0.95505712516E-01  0.21344227967E-01 0.  0.
         14    1    1    2    0    0  0.12082324465E-01  0.57237260028E-01  0.30309507189E-01  0.65884389092E-01  0.00000000000E+00 0. -1.
     999901    1    1    2    0    0 -0.57013146542E-01  0.24141681706E-01 -0.25364395908E-01  0.88253989839E+00  0.88000000000E+00 0. -1.
        -11    1    3    3    0    0  0.14822118505E-01 -0.43462005906E-01 -0.94215934457E-02  0.46879299253E-01  0.51100000000E-03 0.  1.
         11    1    3    3    0    0  0.30108703572E-01 -0.37916935827E-01  0.44764821651E-02  0.48626413263E-01  0.51100000000E-03 0. -1.
</event>
<event>
 8    1  0.1030163E+005  0.1043930E+01  0.7957747E-01            NaN
         13   -1    0    0    0    0  0.00000000000E+00  0.00000000000E+00  0.74505805969E-08  0.10566000000E+00  0.10566000000E+00 0.  1.
     999900   -1    0    0    0    0 -0.00000000000E+00 -0.00000000000E+00 -0.74505805969E-08  0.93827000000E+00  0.93827000000E+00 0.  1.
     999902    2    1    2    0    0  0.24787948379E-02  0.22646979564E-01  0.45548549381E-02  0.10206969027E+01  0.10204324526E+01 0.  0.
     999903    2    3    3    0    0  0.12260947763E+00 -0.83384260193E-02 -0.40748712099E-01  0.13084079663E+00  0.18874405172E-01 0.  0.
         14    1    1    2    0    0 -0.24787948379E-02 -0.22646979564E-01 -0.45548549381E-02  0.23233097312E-01  0.00000000000E+00 0.  1.
     999901    1    3    3    0    0 -0.12013068279E+00  0.30985405583E-01  0.45303567037E-01  0.88985610606E+00  0.88000000000E+00 0. -1.
        -11    1    4    4    0    0  0.66095652763E-01 -0.63541026246E-02 -0.31661390381E-01  0.73564357513E-01  0.51100000000E-03 0.  1.
         11    1    4    4    0    0  0.56513824868E-01 -0.19843233946E-02 -0.90873217174E-02  0.57276439114E-01  0.51100000000E-03 0. -1.
</event>
<event>
 8    1  0.1030163E+005  0.1043930E+01  0.7957747E-01            NaN
         13   -1    0    0    0    0  0.00000000000E+00  0.00000000000E+00  0.74505805969E-08  0.10566000000E+00  0.10566000000E+00 0.  1.
     999900   -1    0    0    0    0 -0.00000000000E+00 -0.00000000000E+00 -0.74505805969E-08  0.93827000000E+00  0.93827000000E+00 0.  1.
     999902    2    1    2    0    0 -0.18318214249E-01  0.15889529967E-02 -0.13438674356E-01  0.10211554591E+01  0.10209014604E+01 0.  0.
     999903    2    3    3    0    0  0.19876886306E-01 -0.13915387929E-01  0.12398974144E+00  0.12953568601E+00  0.28588622526E-01 0.  0.
         14    1    1    2    0    0  0.18318214249E-01 -0.15889529967E-02  0.13438674356E-01  0.22774540903E-01  0.00000000000E+00 0.  1.
     999901    1    3    3    0    0 -0.38195100555E-01  0.15504340925E-01 -0.13742841579E+00  0.89161977309E+00  0.88000000000E+00 0.  1.
        -11    1    4    4    0    0  0.10322696488E-01 -0.15014192672E-01  0.11475239804E+00  0.11619104106E+00  0.51100000000E-03 0.  1.
         11    1    4    4    0    0  0.95541898176E-02  0.10988047428E-02  0.92373433953E-02  0.13344644954E-01  0.51100000000E-03 0. -1.
</event>
<event>
 8    1  0.1030163E+005  0.1043930E+01  0.7957747E-01            NaN
         13   -1    0    0    0    0  0.00000000000E+00  0.00000000000E+00  0.74505805969E-08  0.10566000000E+00  0.10566000000E+00 0.  1.
     999900   -1    0    0    0    0 -0.00000000000E+00 -0.00000000000E+00 -0.74505805969E-08  0.93827000000E+00  0.93827000000E+00 0.  1.
     999902    2    1    2    0    0  0.92889726742E-02  0.12400089871E-01 -0.19399767449E-01  0.10191026316E+01  0.10188001647E+01 0.  0.
     999903    2    3    3    0    0 -0.10740340491E-01 -0.13308473711E-02 -0.12984698750E+00  0.13186630437E+00  0.20281913038E-01 0.  0.
         14    1    1    2    0    0 -0.92889726742E-02 -0.12400089871E-01  0.19399767449E-01  0.24827368351E-01  0.00000000000E+00 0. -1.
     999901    1    3    3    0    0  0.20029313165E-01  0.13730937242E-01  0.11044722005E+00  0.88723632728E+00  0.88000000000E+00 0. -1.
        -11    1    4    4    0    0 -0.83249681354E-02  0.86045031076E-02 -0.86538267301E-01  0.87364039493E-01  0.51100000000E-03 0.  1.
         11    1    4    4    0    0 -0.24153723553E-02 -0.99353504788E-02 -0.43308720202E-01  0.44502264878E-01  0.51100000000E-03 0. -1.
</event>
<event>
 8    1  0.1030163E+005  0.1043930E+01  0.7957747E-01            NaN
         13   -1    0    0    0    0  0.00000000000E+00  0.00000000000E+00  0.74505805969E-08  0.10566000000E+00  0.10566000000E+00 0.  1.
     999900   -1    0    0    0    0 -0.00000000000E+00 -0.00000000000E+00 -0.74505805969E-08  0.93827000000E+00  0.93827000000E+00 0. -1.
     999902    2    1    2    0    0 -0.11992450113E-02  0.19818818642E-01 -0.13246158800E-01  0.10200619359E+01  0.10197826575E+01 0.  0.
     999903    2    3    3    0    0  0.12183945713E+00  0.22900230868E-01  0.35347445878E-01  0.13016904586E+00  0.18035095886E-01 0.  0.
         14    1    1    2    0    0  0.11992450113E-02 -0.19818818642E-01  0.13246158800E-01  0.23868064101E-01  0.00000000000E+00 0.  1.
     999901    1    3    3    0    0 -0.12303870214E+00 -0.30814122257E-02 -0.48593604678E-01  0.88989289004E+00  0.88000000000E+00 0. -1.
        -11    1    4    4    0    0  0.56851817501E-01  0.19748215147E-01  0.15671388822E-01  0.62193043849E-01  0.51100000000E-03 0. -1.
         11    1    4    4    0    0  0.64987639626E-01  0.31520157206E-02  0.19676057056E-01  0.67976002012E-01  0.51100000000E-03 0.  1.
</event>
<event>
 8    1  0.1030163E+005  0.1043930E+01  0.7957747E-01            NaN
         13   -1    0    0    0    0  0.00000000000E+00  0.00000000000E+00  0.74505805969E-08  0.10566000000E+00  0.10566000000E+00 0. -1.
     999900   -1    0    0    0    0 -0.00000000000E+00 -0.00000000000E+00 -0.74505805969E-08  0.93827000000E+00  0.93827000000E+00 0. -1.
     999902    2    1    2    0    0  0.55336001517E-02 -0.16095414758E-01  0.16600685433E-01  0.10201546795E+01  0.10198775928E+01 0.  0.
     999903    2    3    3    0    0 -0.12156682422E+00  0.38286723877E-01  0.10491496856E-01  0.12934086224E+00  0.19355132735E-01 0.  0.
         14    1    1    2    0    0 -0.55336001517E-02  0.16095414758E-01 -0.16600685433E-01  0.23775320476E-01  0.00000000000E+00 0.  1.
     999901    1    3    3    0    0  0.12710042437E+00 -0.54382138636E-01  0.61091885768E-02  0.89081381728E+00  0.88000000000E+00 0. -1.
        -11    1    4    4    0    0 -0.64232194281E-01  0.13714261032E-01  0.12800540801E-01  0.66917641199E-01  0.51100000000E-03 0. -1.
         11    1    4    4    0    0 -0.57334629938E-01  0.24572462846E-01 -0.23090439453E-02  0.62423221043E-01  0.51100000000E-03 0.  1.
</event>
<event>
 8    1  0.1147986E+005  0.1043930E+01  0.7957747E-01            NaN
         13   -1    0    0    0    0  0.00000000000E+00  0.00000000000E+00  0.74505805969E-08  0.10566000000E+00  0.10566000000E+00 0.  1.
     999900   -1    0    0    0    0 -0.00000000000E+00 -0.00000000000E+00 -0.74505805969E-08  0.93827000000E+00  0.93827000000E+00 0.  1.
     999902    2    1    2    0    0 -0.90266725904E-02 -0.63913537723E-02 -0.21148974137E-01  0.10200635104E+01  0.10197842693E+01 0.  0.
     999903    2    3    3    0    0  0.67785670303E-02  0.97659227535E-01 -0.85457352873E-01  0.13146242064E+00  0.19903145115E-01 0.  0.
         14    1    1    2    0    0  0.90266725904E-02  0.63913537723E-02  0.21148974137E-01  0.23866489648E-01  0.00000000000E+00 0.  1.
     999901    1    3    3    0    0 -0.15805239621E-01 -0.10405058131E+00  0.64308378737E-01  0.88860108972E+00  0.88000000000E+00 0.  1.
        -11    1    4    4    0    0  0.13011852671E-01  0.52053078941E-01 -0.41767740159E-01  0.67997327714E-01  0.51100000000E-03 0.  1.
         11    1    4    4    0    0 -0.62332856410E-02  0.45606148594E-01 -0.43689612714E-01  0.63465092921E-01  0.51100000000E-03 0. -1.
</event>
<event>
 8    1  0.1030163E+005  0.1043930E+01  0.7957747E-01            NaN
         13   -1    0    0    0    0  0.00000000000E+00  0.00000000000E+00  0.74505805969E-08  0.10566000000E+00  0.10566000000E+00 0.  1.
     999900   -1    0    0    0    0 -0.00000000000E+00 -0.00000000000E+00 -0.74505805969E-08  0.93827000000E+00  0.93827000000E+00 0. -1.
     999902    2    1    2    0    0  0.22699965236E-01  0.61225490357E-02  0.31847674179E-02  0.10202041329E+01  0.10199282112E+01 0.  0.
     999903    2    3    3    0    0 -0.75831471571E-01  0.72621365427E-01  0.73548817732E-01  0.12942827092E+00  0.17831823430E-01 0.  0.
         14    1    1    2    0    0 -0.22699965236E-01 -0.61225490357E-02 -0.31847674179E-02  0.23725867148E-01  0.00000000000E+00 0.  1.
     999901    1    3    3    0    0  0.98531436808E-01 -0.66498816391E-01 -0.70364050314E-01  0.89077586193E+00  0.88000000000E+00 0. -1.
        -11    1    4    4    0    0 -0.48366998556E-01  0.55900513806E-01  0.45859230536E-01  0.86991747537E-01  0.51100000000E-03 0.  1.
         11    1    4    4    0    0 -0.27464473015E-01  0.16720851621E-01  0.27689587196E-01  0.42436523385E-01  0.51100000000E-03 0. -1.
</event>
<event>
 8    1  0.1030163E+005  0.1043930E+01  0.7957747E-01            NaN
         13   -1    0    0    0    0  0.00000000000E+00  0.00000000000E+00  0.74505805969E-08  0.10566000000E+00  0.10566000000E+00 0. -1.
     999900   -1    0    0    0    0 -0.00000000000E+00 -0.00000000000E+00 -0.74505805969E-08  0.93827000000E+00  0.93827000000E+00 0. -1.
     999902    2    1    2    0    0 -0.17357518787E-01  0.75648401954E-02  0.73180809538E-02  0.10236306263E+01  0.10234293305E+01 0.  0.
     999903    2    3    3    0    0  0.58261881577E-01 -0.54834469297E-01  0.10369177883E+00  0.13295680426E+00  0.22896745070E-01 0.  0.
         14    1    1    2    0    0  0.17357518787E-01 -0.75648401954E-02 -0.73180809538E-02  0.20299373746E-01  0.00000000000E+00 0. -1.
     999901    1    3    3    0    0 -0.75619400364E-01  0.62399309492E-01 -0.96373697878E-01  0.89067382199E+00  0.88000000000E+00 0. -1.
        -11    1    4    4    0    0  0.23060759379E-01 -0.25311695474E-01  0.62418142767E-01  0.71195268230E-01  0.51100000000E-03 0.  1.
         11    1    4    4    0    0  0.35201122199E-01 -0.29522773823E-01  0.41273636065E-01  0.61761536034E-01  0.51100000000E-03 0. -1.
</event>
<event>
 8    1  0.1030163E+005  0.1043930E+01  0.7957747E-01            NaN
         13   -1    0    0    0    0  0.00000000000E+00  0.00000000000E+00  0.74505805969E-08  0.10566000000E+00  0.10566000000E+00 0. -1.
     999900   -1    0    0    0    0 -0.00000000000E+00 -0.00000000000E+00 -0.74505805969E-08  0.93827000000E+00  0.93827000000E+00 0.  1.
     999902    2    1    2    0    0 -0.22701207170E-01  0.13032826387E-01 -0.46493222503E-03  0.10177495582E+01  0.10174127715E+01 0.  0.
     999903    2    3    3    0    0 -0.98996625386E-01 -0.52387064335E-01 -0.62108203623E-01  0.12988659251E+00  0.21641663732E-01 0.  0.
         14    1    1    2    0    0  0.22701207170E-01 -0.13032826387E-01  0.46493222503E-03  0.26180441796E-01  0.00000000000E+00 0.  1.
     999901    1    3    3    0    0  0.76295418216E-01  0.65419890722E-01  0.61643271398E-01  0.88786296569E+00  0.88000000000E+00 0. -1.
        -11    1    4    4    0    0 -0.15144245183E-01 -0.10976501906E-01 -0.19793604833E-01  0.27237468119E-01  0.51100000000E-03 0. -1.
         11    1    4    4    0    0 -0.83852380203E-01 -0.41410562429E-01 -0.42314598790E-01  0.10264912439E+00  0.51100000000E-03 0.  1.
</event>
<event>
 8    1  0.1030163E+005  0.1043930E+01  0.7957747E-01            NaN
         13   -1    0    0    0    0  0.00000000000E+00  0.00000000000E+00  0.74505805969E-08  0.10566000000E+00  0.10566000000E+00 0. -1.
     999900   -1    0    0    0    0 -0.00000000000E+00 -0.00000000000E+00 -0.74505805969E-08  0.93827000000E+00  0.93827000000E+00 0. -1.
     999902    2    1    2    0    0  0.21097428116E-01 -0.85433715714E-02  0.40020188012E-02  0.10208192487E+01  0.10205576082E+01 0.  0.
     999903    2    3    3    0    0  0.11627873226E+00 -0.57348854205E-01  0.27572839993E-01  0.13402894688E+00  0.19845967946E-01 0.  0.
         14    1    1    2    0    0 -0.21097428116E-01  0.85433715714E-02 -0.40020188012E-02  0.23110751295E-01  0.00000000000E+00 0. -1.
     999901    1    3    3    0    0 -0.95181304140E-01  0.48805482633E-01 -0.23570821192E-01  0.88679030182E+00  0.88000000000E+00 0.  1.
        -11    1    4    4    0    0  0.53171411485E-02 -0.48633742136E-02 -0.25086645310E-02  0.76471509377E-02  0.51100000000E-03 0.  1.
         11    1    4    4    0    0  0.11096159111E+00 -0.52485479991E-01  0.30081504524E-01  0.12638179595E+00  0.51100000000E-03 0. -1.
</event>
<event>
 8    1  0.1030163E+005  0.1043930E+01  0.7957747E-01            NaN
         13   -1    0    0    0    0  0.00000000000E+00  0.00000000000E+00  0.74505805969E-08  0.10566000000E+00  0.10566000000E+00 0. -1.
     999900   -1    0    0    0    0 -0.00000000000E+00 -0.00000000000E+00 -0.74505805969E-08  0.93827000000E+00  0.93827000000E+00 0. -1.
     999902    2    1    2    0    0 -0.25337867212E-01  0.16733266646E-01  0.67695255438E-02  0.10128199340E+01  0.10123420285E+01 0.  0.
     999903    2    3    3    0    0  0.11363705460E+00  0.24306435689E-01  0.29965991387E-01  0.12157953000E+00  0.19479180721E-01 0.  0.
         14    1    1    2    0    0  0.25337867212E-01 -0.16733266646E-01 -0.67695255438E-02  0.31110065953E-01  0.00000000000E+00 0. -1.
     999901    1    3    3    0    0 -0.13897492181E+00 -0.75731690422E-02 -0.23196465844E-01  0.89124040405E+00  0.88000000000E+00 0.  1.
        -11    1    4    4    0    0  0.27690801070E-01  0.14672694639E-01  0.81482045730E-02  0.32383989727E-01  0.51100000000E-03 0. -1.
         11    1    4    4    0    0  0.85946253527E-01  0.96337410495E-02  0.21817786815E-01  0.89195540272E-01  0.51100000000E-03 0.  1.
</event>
<event>
 8    1  0.1030163E+005  0.1043930E+01  0.7957747E-01            NaN
         13   -1    0    0    0    0  0.00000000000E+00  0.00000000000E+00  0.74505805969E-08  0.10566000000E+00  0.10566000000E+00 0.  1.
     999900   -1    0    0    0    0 -0.00000000000E+00 -0.00000000000E+00 -0.74505805969E-08  0.93827000000E+00  0.93827000000E+00 0.  1.
     999902    2    1    2    0    0  0.81939873127E-02 -0.92497671170E-02 -0.20294293153E-01  0.10201695717E+01  0.10198928360E+01 0.  0.
     999903    2    3    3    0    0 -0.85642030321E-01  0.45328047938E-01 -0.86163830826E-01  0.13105611879E+00  0.19034475099E-01 0.  0.
         14    1    1    2    0    0 -0.81939873127E-02  0.92497671170E-02  0.20294293153E-01  0.23760428329E-01  0.00000000000E+00 0.  1.
     999901    1    3    3    0    0  0.93836017634E-01 -0.54577815055E-01  0.65869537673E-01  0.88911345288E+00  0.88000000000E+00 0. -1.
        -11    1    4    4    0    0 -0.60500725155E-01  0.41113465009E-01 -0.61235711537E-01  0.95397737069E-01  0.51100000000E-03 0.  1.
         11    1    4    4    0    0 -0.25141305166E-01  0.42145829289E-02 -0.24928119288E-01  0.35658381721E-01  0.51100000000E-03 0. -1.
</event>
<event>
 8    1  0.1030163E+005  0.1043930E+01  0.7957747E-01            NaN
         13   -1    0    0    0    0  0.00000000000E+00  0.00000000000E+00  0.74505805969E-08  0.10566000000E+00  0.10566000000E+00 0. -1.
     999900   -1    0    0    0    0 -0.00000000000E+00 -0.00000000000E+00 -0.74505805969E-08  0.93827000000E+00  0.93827000000E+00 0.  1.
     999902    2    1    2    0    0  0.22133567184E-02  0.21155948751E-01  0.46477122371E-04  0.10226585338E+01  0.10224372848E+01 0.  0.
     999903    2    3    3    0    0  0.82485558026E-01  0.81789957055E-03 -0.10219457844E+00  0.13287738315E+00  0.20202248630E-01 0.  0.
         14    1    1    2    0    0 -0.22133567184E-02 -0.21155948751E-01 -0.46477122371E-04  0.21271466232E-01  0.00000000000E+00 0.  1.
     999901    1    3    3    0    0 -0.80272201308E-01  0.20338049181E-01  0.10224105556E+00  0.88978115061E+00  0.88000000000E+00 0. -1.
        -11    1    4    4    0    0  0.51980450960E-01 -0.16474361748E-02 -0.78514877651E-01  0.94178174019E-01  0.51100000000E-03 0.  1.
         11    1    4    4    0    0  0.30505107066E-01  0.24653357453E-02 -0.23679700784E-01  0.38699209135E-01  0.51100000000E-03 0. -1.
</event>
<event>
 8    1  0.1030163E+005  0.1043930E+01  0.7957747E-01            NaN
         13   -1    0    0    0    0  0.00000000000E+00  0.00000000000E+00  0.74505805969E-08  0.10566000000E+00  0.10566000000E+00 0.  1.
     999900   -1    0    0    0    0 -0.00000000000E+00 -0.00000000000E+00 -0.74505805969E-08  0.93827000000E+00  0.93827000000E+00 0. -1.
     999902    2    1    2    0    0 -0.23654635228E-02 -0.23668353762E-01 -0.18357148034E-02  0.10200730045E+01  0.10197939881E+01 0.  0.
     999903    2    3    3    0    0 -0.38487542501E-01  0.49887464513E-01 -0.11129008471E+00  0.12951389801E+00  0.20452793928E-01 0.  0.
         14    1    1    2    0    0  0.23654635228E-02  0.23668353762E-01  0.18357148034E-02  0.23856995543E-01  0.00000000000E+00 0. -1.
     999901    1    3    3    0    0  0.36122078978E-01 -0.73555818275E-01  0.10945436990E+00  0.89055910645E+00  0.88000000000E+00 0.  1.
        -11    1    4    4    0    0 -0.11342116976E-01  0.19289846455E-01 -0.22417042244E-01  0.31678489512E-01  0.51100000000E-03 0. -1.
         11    1    4    4    0    0 -0.27145425525E-01  0.30597618057E-01 -0.88873042463E-01  0.97835408495E-01  0.51100000000E-03 0.  1.
</event>
<event>
 8    1  0.1030163E+005  0.1043930E+01  0.7957747E-01            NaN
         13   -1    0    0    0    0  0.00000000000E+00  0.00000000000E+00  0.74505805969E-08  0.10566000000E+00  0.10566000000E+00 0.  1.
     999900   -1    0    0    0    0 -0.00000000000E+00 -0.00000000000E+00 -0.74505805969E-08  0.93827000000E+00  0.93827000000E+00 0.  1.
     999902    2    1    2    0    0  0.16709477146E-01 -0.16987029109E-02  0.17473988726E-01  0.10196929932E+01  0.10194049087E+01 0.  0.
     999903    2    3    3    0    0  0.73824369040E-01  0.15727892628E-01 -0.10180901986E+00  0.12964005472E+00  0.27277521727E-01 0.  0.
         14    1    1    2    0    0 -0.16709477146E-01  0.16987029109E-02 -0.17473988726E-01  0.24237006830E-01  0.00000000000E+00 0. -1.
     999901    1    3    3    0    0 -0.57114891895E-01 -0.17426595539E-01  0.11928300859E+00  0.89005293845E+00  0.88000000000E+00 0. -1.
        -11    1    4    4    0    0  0.14562112423E-01 -0.72816550829E-02 -0.26251427039E-01  0.30894597611E-01  0.51100000000E-03 0. -1.
         11    1    4    4    0    0  0.59262256618E-01  0.23009547711E-01 -0.75557592823E-01  0.98745457108E-01  0.51100000000E-03 0.  1.
</event>
<event>
 8    1  0.1030163E+005  0.1043930E+01  0.7957747E-01            NaN
         13   -1    0    0    0    0  0.00000000000E+00  0.00000000000E+00  0.74505805969E-08  0.10566000000E+00  0.10566000000E+00 0.  1.
     999900   -1    0    0    0    0 -0.00000000000E+00 -0.00000000000E+00 -0.74505805969E-08  0.93827000000E+00  0.93827000000E+00 0. -1.
     999902    2    1    2    0    0  0.10591956159E-01  0.13329296599E-01 -0.16984043596E-01  0.10198817689E+01  0.10195982077E+01 0.  0.
     999903    2    3    3    0    0  0.99985676490E-01  0.84248731393E-01 -0.70862079242E-02  0.13245922543E+00  0.20006194428E-01 0.  0.
         14    1    1    2    0    0 -0.10591956159E-01 -0.13329296599E-01  0.16984043596E-01  0.24048231119E-01  0.00000000000E+00 0. -1.
     999901    1    3    3    0    0 -0.89393720331E-01 -0.70919434794E-01 -0.98978356720E-02  0.88742254345E+00  0.88000000000E+00 0.  1.
        -11    1    4    4    0    0  0.56112909635E-01  0.53816889336E-01  0.42724835416E-02  0.77868038643E-01  0.51100000000E-03 0. -1.
         11    1    4    4    0    0  0.43872766854E-01  0.30431842057E-01 -0.11358691466E-01  0.54591186791E-01  0.51100000000E-03 0.  1.
</event>
<event>
 8    1  0.1030163E+005  0.1043930E+01  0.7957747E-01            NaN
         13   -1    0    0    0    0  0.00000000000E+00  0.00000000000E+00  0.74505805969E-08  0.10566000000E+00  0.10566000000E+00 0.  1.
     999900   -1    0    0    0    0 -0.00000000000E+00 -0.00000000000E+00 -0.74505805969E-08  0.93827000000E+00  0.93827000000E+00 0.  1.
     999902    2    1    2    0    0 -0.64592880324E-03  0.75628266297E-02 -0.22493219074E-01  0.10201906134E+01  0.10199143735E+01 0.  0.
     999903    2    3    3    0    0 -0.71006584970E-01 -0.53441193906E-01 -0.95831834040E-01  0.13224316853E+00  0.20164793354E-01 0.  0.
         14    1    1    2    0    0  0.64592880324E-03 -0.75628266297E-02  0.22493219074E-01  0.23739386576E-01  0.00000000000E+00 0.  1.
     999901    1    3    3    0    0  0.70360656167E-01  0.61004020536E-01  0.73338614965E-01  0.88794744490E+00  0.88000000000E+00 0. -1.
        -11    1    4    4    0    0 -0.50003179200E-02 -0.63903681718E-02 -0.22514595386E-02  0.84362418011E-02  0.51100000000E-03 0. -1.
         11    1    4    4    0    0 -0.66006267050E-01 -0.47050825734E-01 -0.93580374501E-01  0.12380692672E+00  0.51100000000E-03 0.  1.
</event>
<event>
 8    1  0.1030163E+005  0.1043930E+01  0.7957747E-01            NaN
         13   -1    0    0    0    0  0.00000000000E+00  0.00000000000E+00  0.74505805969E-08  0.10566000000E+00  0.10566000000E+00 0. -1.
     999900   -1    0    0    0    0 -0.00000000000E+00 -0.00000000000E+00 -0.74505805969E-08  0.93827000000E+00  0.93827000000E+00 0. -1.
     999902    2    1    2    0    0 -0.15033081545E-01  0.49317521586E-03  0.18051778884E-01  0.10204331176E+01  0.10201625576E+01 0.  0.
     999903    2    3    3    0    0 -0.10623039106E-01 -0.12752401335E+00  0.20500017434E-01  0.13115597129E+00  0.20159740844E-01 0.  0.
         14    1    1    2    0    0  0.15033081545E-01 -0.49317521586E-03 -0.18051778884E-01  0.23496882419E-01  0.00000000000E+00 0.  1.
     999901    1    3    3    0    0 -0.44100424392E-02  0.12801718856E+00 -0.24482385495E-02  0.88927714629E+00  0.88000000000E+00 0. -1.
        -11    1    4    4    0    0  0.29330077085E-02 -0.35937176374E-02  0.21646692848E-02  0.51443420170E-02  0.51100000000E-03 0. -1.
         11    1    4    4    0    0 -0.13556046815E-01 -0.12393029571E+00  0.18335348149E-01  0.12601162927E+00  0.51100000000E-03 0.  1.
</event>
<event>
 8    1  0.1030163E+005  0.1043930E+01  0.7957747E-01            NaN
         13   -1    0    0    0    0  0.00000000000E+00  0.00000000000E+00  0.74505805969E-08  0.10566000000E+00  0.10566000000E+00 0.  1.
     999900   -1    0    0    0    0 -0.00000000000E+00 -0.00000000000E+00 -0.74505805969E-08  0.93827000000E+00  0.93827000000E+00 0. -1.
     999902    2    1    2    0    0  0.21430149426E-01 -0.35328844115E-02 -0.90715556547E-02  0.10203922495E+01  0.10201207365E+01 0.  0.
     999903    2    3    3    0    0 -0.67188349560E-01 -0.10852790695E+00 -0.10261641070E-01  0.12973035550E+00  0.20786605211E-01 0.  0.
         14    1    1    2    0    0 -0.21430149426E-01  0.35328844115E-02  0.90715556547E-02  0.23537750502E-01  0.00000000000E+00 0.  1.
     999901    1    3    3    0    0  0.88618498986E-01  0.10499502254E+00  0.11900854150E-02  0.89066189400E+00  0.88000000000E+00 0. -1.
        -11    1    4    4    0    0 -0.29735247101E-01 -0.31217597066E-01 -0.76158493034E-02  0.43783393751E-01  0.51100000000E-03 0. -1.
         11    1    4    4    0    0 -0.37453102459E-01 -0.77310309886E-01 -0.26457917663E-02  0.85946961747E-01  0.51100000000E-03 0.  1.
</event>
<event>
 8    1  0.1030163E+005  0.1043930E+01  0.7957747E-01            NaN
         13   -1    0    0    0    0  0.00000000000E+00  0.00000000000E+00  0.74505805969E-08  0.10566000000E+00  0.10566000000E+00 0. -1.
     999900   -1    0    0    0    0 -0.00000000000E+00 -0.00000000000E+00 -0.74505805969E-08  0.93827000000E+00  0.93827000000E+00 0. -1.
     999902    2    1    2    0    0 -0.24854377910E-01  0.41282824703E-02 -0.38191611258E-02  0.10184472841E+01  0.10181284308E+01 0.  0.
     999903    2    3    3    0    0  0.12358628178E+00  0.17125891592E-01 -0.51983060846E-02  0.12591971068E+00  0.16182890509E-01 0.  0.
         14    1    1    2    0    0  0.24854377910E-01 -0.41282824703E-02  0.38191611258E-02  0.25482715890E-01  0.00000000000E+00 0. -1.
     999901    1    3    3    0    0 -0.14844065969E+00 -0.12997609122E-01  0.13791449588E-02  0.89252757343E+00  0.88000000000E+00 0.  1.
        -11    1    4    4    0    0  0.90575089366E-02 -0.25164851061E-04  0.36421884103E-02  0.97757740779E-02  0.51100000000E-03 0.  1.
         11    1    4    4    0    0  0.11452877284E+00  0.17151056443E-01 -0.88404944949E-02  0.11614393660E+00  0.51100000000E-03 0. -1.
</event>
<event>
 8    1  0.1030163E+005  0.1043930E+01  0.7957747E-01            NaN
         13   -1    0    0    0    0  0.00000000000E+00  0.00000000000E+00  0.74505805969E-08  0.10566000000E+00  0.10566000000E+00 0.  1.
     999900   -1    0    0    0    0 -0.00000000000E+00 -0.00000000000E+00 -0.74505805969E-08  0.93827000000E+00  0.93827000000E+00 0.  1.
     999902    2    1    2    0    0  0.17399740555E-01  0.56673170046E-02 -0.17942560054E-01  0.10183017945E+01  0.10179792433E+01 0.  0.
     999903    2    3    3    0    0 -0.69014782163E-01  0.97961780814E-01 -0.43447211151E-01  0.12889962173E+00  0.19180762962E-01 0.  0.
         14    1    1    2    0    0 -0.17399740555E-01 -0.56673170046E-02  0.17942560054E-01  0.25628205452E-01  0.00000000000E+00 0. -1.
     999901    1    3    3    0    0  0.86414522718E-01 -0.92294463810E-01  0.25504651097E-01  0.88940217282E+00  0.88000000000E+00 0. -1.
        -11    1    4    4    0    0 -0.51327673373E-01  0.59036368967E-01 -0.32846104133E-01  0.84846629823E-01  0.51100000000E-03 0.  1.
         11    1    4    4    0    0 -0.17687108791E-01  0.38925411848E-01 -0.10601107017E-01  0.44052991906E-01  0.51100000000E-03 0. -1.
</event>
<event>
 8    1  0.1030163E+005  0.1043930E+01  0.7957747E-01            NaN
         13   -1    0    0    0    0  0.00000000000E+00  0.00000000000E+00  0.74505805969E-08  0.10566000000E+00  0.10566000000E+00 0.  1.
     999900   -1    0    0    0    0 -0.00000000000E+00 -0.00000000000E+00 -0.74505805969E-08  0.93827000000E+00  0.93827000000E+00 0. -1.
     999902    2    1    2    0    0  0.39821069802E-02 -0.22602710738E-01 -0.17648678531E-02  0.10209114321E+01  0.10206518984E+01 0.  0.
     999903    2    3    3    0    0  0.79073255087E-01 -0.87910756155E-01  0.58022081197E-01  0.13328634201E+00  0.20440311681E-01 0.  0.
         14    1    1    2    0    0 -0.39821069802E-02  0.22602710738E-01  0.17648678531E-02  0.23018567880E-01  0.00000000000E+00 0. -1.
     999901    1    3    3    0    0 -0.75091148107E-01  0.65308045417E-01 -0.59786949050E-01  0.88762509011E+00  0.88000000000E+00 0. -1.
        -11    1    4    4    0    0  0.35887918055E-01 -0.28477623017E-01  0.15322061650E-01  0.48310913562E-01  0.51100000000E-03 0. -1.
         11    1    4    4    0    0  0.43185337032E-01 -0.59433133139E-01  0.42700019547E-01  0.84975428445E-01  0.51100000000E-03 0.  1.
</event>
<event>
 8    1  0.1030163E+005  0.1043930E+01  0.7957747E-01            NaN
         13   -1    0    0    0    0  0.00000000000E+00  0.00000000000E+00  0.74505805969E-08  0.10566000000E+00  0.10566000000E+00 0.  1.
     999900   -1    0    0    0    0 -0.00000000000E+00 -0.00000000000E+00 -0.74505805969E-08  0.93827000000E+00  0.93827000000E+00 0. -1.
     999902    2    1    2    0    0 -0.51315836079E-02 -0.11027098007E-01  0.22936163804E-01  0.10179685353E+01  0.10176374311E+01 0.  0.
     999903    2    3    3    0    0  0.50545603496E-01  0.10324596654E+00 -0.47833047577E-01  0.12602315369E+00  0.19474269849E-01 0.  0.
         14    1    1    2    0    0  0.51315836079E-02  0.11027098007E-01 -0.22936163804E-01  0.25961464728E-01  0.00000000000E+00 0. -1.
     999901    1    3    3    0    0 -0.55677187104E-01 -0.11427306455E+00  0.70769211381E-01  0.89194538158E+00  0.88000000000E+00 0.  1.
        -11    1    4    4    0    0  0.46462728117E-01  0.86757740179E-01 -0.34045300877E-01  0.10413949403E+00  0.51100000000E-03 0. -1.
         11    1    4    4    0    0  0.40828753797E-02  0.16488226361E-01 -0.13787746699E-01  0.21883659656E-01  0.51100000000E-03 0.  1.
</event>
<event>
 8    1  0.1030163E+005  0.1043930E+01  0.7957747E-01            NaN
         13   -1    0    0    0    0  0.00000000000E+00  0.00000000000E+00  0.74505805969E-08  0.10566000000E+00  0.10566000000E+00 0. -1.
     999900   -1    0    0    0    0 -0.00000000000E+00 -0.00000000000E+00 -0.74505805969E-08  0.93827000000E+00  0.93827000000E+00 0.  1.
     999902    2    1    2    0    0  0.18688719437E-01  0.62399144281E-02 -0.13652298419E-01  0.10199593926E+01  0.10196776807E+01 0.  0.
     999903    2    3    3    0    0  0.50192929678E-01 -0.52376780732E-02  0.11769384982E+00  0.12957966404E+00  0.19806150233E-01 0.  0.
         14    1    1    2    0    0 -0.18688719437E-01 -0.62399144281E-02  0.13652298419E-01  0.23970607384E-01  0.00000000000E+00 0. -1.
     999901    1    3    3    0    0 -0.31504210241E-01  0.11477592501E-01 -0.13134614824E+00  0.89037972857E+00  0.88000000000E+00 0.  1.
        -11    1    4    4    0    0  0.25416569800E-01 -0.12486143221E-01  0.64859178282E-01  0.70773440791E-01  0.51100000000E-03 0. -1.
         11    1    4    4    0    0  0.24776359878E-01  0.72484651474E-02  0.52834671539E-01  0.58806223254E-01  0.51100000000E-03 0.  1.
</event>
<event>
 8    1  0.1030163E+005  0.1043930E+01  0.7957747E-01            NaN
         13   -1    0    0    0    0  0.00000000000E+00  0.00000000000E+00  0.74505805969E-08  0.10566000000E+00  0.10566000000E+00 0.  1.
     999900   -1    0    0    0    0 -0.00000000000E+00 -0.00000000000E+00 -0.74505805969E-08  0.93827000000E+00  0.93827000000E+00 0.  1.
     999902    2    1    2    0    0  0.41925522661E-03 -0.13388160886E-01  0.19850515898E-01  0.10199829416E+01  0.10197017895E+01 0.  0.
     999903    2    3    3    0    0 -0.11281753952E+00  0.60007947034E-01 -0.12517975849E-01  0.12910849496E+00  0.13548166650E-01 0.  0.
         14    1    1    2    0    0 -0.41925522661E-03  0.13388160886E-01 -0.19850515898E-01  0.23947058448E-01  0.00000000000E+00 0. -1.
     999901    1    3    3    0    0  0.11323679475E+00 -0.73396107920E-01  0.32368491747E-01  0.89087444660E+00  0.88000000000E+00 0. -1.
        -11    1    4    4    0    0 -0.51683623503E-01  0.34550526939E-01 -0.86683372294E-02  0.62772104008E-01  0.51100000000E-03 0.  1.
         11    1    4    4    0    0 -0.61133916017E-01  0.25457420095E-01 -0.38496386195E-02  0.66336390947E-01  0.51100000000E-03 0. -1.
</event>
<event>
 8    1  0.1030163E+005  0.1043930E+01  0.7957747E-01            NaN
         13   -1    0    0    0    0  0.00000000000E+00  0.00000000000E+00  0.74505805969E-08  0.10566000000E+00  0.10566000000E+00 0. -1.
     999900   -1    0    0    0    0 -0.00000000000E+00 -0.00000000000E+00 -0.74505805969E-08  0.93827000000E+00  0.93827000000E+00 0.  1.
     999902    2    1    2    0    0  0.13086554575E-01 -0.16850808645E-01  0.38666810650E-02  0.10222468525E+01  0.10220168632E+01 0.  0.
     999903    2    3    3    0    0  0.10934485776E+00 -0.75219051684E-01 -0.12339306689E-01  0.13492777418E+00  0.20953331498E-01 0.  0.
         14    1    1    2    0    0 -0.13086554575E-01  0.16850808645E-01 -0.38666810650E-02  0.21683147491E-01  0.00000000000E+00 0.  1.
     999901    1    3    3    0    0 -0.96258303185E-01  0.58368243039E-01  0.16205987754E-01  0.88731907833E+00  0.88000000000E+00 0.  1.
        -11    1    4    4    0    0  0.52268666220E-01 -0.48162951038E-01 -0.93664431050E-02  0.71691524593E-01  0.51100000000E-03 0. -1.
         11    1    4    4    0    0  0.57076191540E-01 -0.27056100646E-01 -0.29728635838E-02  0.63236249587E-01  0.51100000000E-03 0.  1.
</event>
<event>
 8    1  0.1030163E+005  0.1043930E+01  0.7957747E-01            NaN
         13   -1    0    0    0    0  0.00000000000E+00  0.00000000000E+00  0.74505805969E-08  0.10566000000E+00  0.10566000000E+00 0. -1.
     999900   -1    0    0    0    0 -0.00000000000E+00 -0.00000000000E+00 -0.74505805969E-08  0.93827000000E+00  0.93827000000E+00 0. -1.
     999902    2    1    2    0    0  0.59745610550E-03  0.23233287320E-01 -0.56465017167E-02  0.10200129438E+01  0.10197325042E+01 0.  0.
     999903    2    3    3    0    0 -0.55116184768E-01 -0.93000721299E-01 -0.67742490035E-01  0.12845797285E+00  0.15015919802E-01 0.  0.
         14    1    1    2    0    0 -0.59745610550E-03 -0.23233287320E-01  0.56465017167E-02  0.23917056155E-01  0.00000000000E+00 0. -1.
     999901    1    3    3    0    0  0.55713640873E-01  0.11623400862E+00  0.62095988318E-01  0.89155497099E+00  0.88000000000E+00 0.  1.
        -11    1    4    4    0    0 -0.64544328981E-02 -0.42695071090E-02 -0.29735911446E-02  0.83061278756E-02  0.51100000000E-03 0.  1.
         11    1    4    4    0    0 -0.48661751869E-01 -0.88731214190E-01 -0.64768898890E-01  0.12015184498E+00  0.51100000000E-03 0. -1.
</event>
<event>
 8    1  0.1030163E+005  0.1043930E+01  0.7957747E-01            NaN
         13   -1    0    0    0    0  0.00000000000E+00  0.00000000000E+00  0.74505805969E-08  0.10566000000E+00  0.10566000000E+00 0.  1.
     999900   -1    0    0    0    0 -0.00000000000E+00 -0.00000000000E+00 -0.74505805969E-08  0.93827000000E+00  0.93827000000E+00 0. -1.
     999902    2    1    2    0    0  0.57202936405E-02  0.17877370453E-01 -0.14047537837E-01  0.10204852681E+01  0.10202159218E+01 0.  0.
     999903    2    3    3    0    0  0.87751705002E-01 -0.78515335873E-01  0.48126731490E-01  0.12925783023E+00  0.22943075070E-01 0.  0.
         14    1    1    2    0    0 -0.57202936405E-02 -0.17877370453E-01  0.14047537837E-01  0.23444731880E-01  0.00000000000E+00 0.  1.
     999901    1    3    3    0    0 -0.82031411361E-01  0.96392706326E-01 -0.62174269328E-01  0.89122743789E+00  0.88000000000E+00 0. -1.
        -11    1    4    4    0    0  0.51939879238E-01 -0.50237136586E-01  0.17659693603E-01  0.74388485983E-01  0.51100000000E-03 0.  1.
         11    1    4    4    0    0  0.35811825763E-01 -0.28278199287E-01  0.30467037887E-01  0.54869344247E-01  0.51100000000E-03 0. -1.
</event>
<event>
 8    1  0.1030163E+005  0.1043930E+01  0.7957747E-01            NaN
         13   -1    0    0    0    0  0.00000000000E+00  0.00000000000E+00  0.74505805969E-08  0.10566000000E+00  0.10566000000E+00 0. -1.
     999900   -1    0    0    0    0 -0.00000000000E+00 -0.00000000000E+00 -0.74505805969E-08  0.93827000000E+00  0.93827000000E+00 0. -1.
     999902    2    1    2    0    0 -0.21821803475E-01  0.19750625179E-01 -0.14829010076E-02  0.10144600611E+01  0.10140319217E+01 0.  0.
     999903    2    3    3    0    0  0.94829086138E-01 -0.44958298059E-01  0.59551849499E-01  0.12231662223E+00  0.20028208932E-01 0.  0.
         14    1    1    2    0    0  0.21821803475E-01 -0.19750625179E-01  0.14829010076E-02  0.29469938875E-01  0.00000000000E+00 0. -1.
     999901    1    3    3    0    0 -0.11665088961E+00  0.64708923238E-01 -0.61034750506E-01  0.89214343890E+00  0.88000000000E+00 0. -1.
        -11    1    4    4    0    0  0.27936929261E-01 -0.23104588178E-01  0.23923399716E-01  0.43438280196E-01  0.51100000000E-03 0.  1.
         11    1    4    4    0    0  0.66892156876E-01 -0.21853709881E-01  0.35628449783E-01  0.78878342034E-01  0.51100000000E-03 0. -1.
</event>
<event>
 8    1  0.1030163E+005  0.1043930E+01  0.7957747E-01            NaN
         13   -1    0    0    0    0  0.00000000000E+00  0.00000000000E+00  0.74505805969E-08  0.10566000000E+00  0.10566000000E+00 0. -1.
     999900   -1    0    0    0    0 -0.00000000000E+00 -0.00000000000E+00 -0.74505805969E-08  0.93827000000E+00  0.93827000000E+00 0.  1.
     999902    2    1    2    0    0  0.77961750601E-02  0.21459431487E-01 -0.66019065645E-02  0.10201629489E+01  0.10198860572E+01 0.  0.
     999903    2    3    3    0    0 -0.52288135455E-01 -0.85207197761E-01 -0.78641870567E-01  0.12877209720E+00  0.20084659620E-01 0.  0.
         14    1    1    2    0    0 -0.77961750601E-02 -0.21459431487E-01  0.66019065645E-02  0.23767051050E-01  0.00000000000E+00 0. -1.
     999901    1    3    3    0    0  0.60084310515E-01  0.10666662925E+00  0.72039964003E-01  0.89139085175E+00  0.88000000000E+00 0. -1.
        -11    1    4    4    0    0 -0.43514897536E-01 -0.60742207169E-01 -0.66713709443E-01  0.10017056548E+00  0.51100000000E-03 0.  1.
         11    1    4    4    0    0 -0.87732379187E-02 -0.24464990592E-01 -0.11928161124E-01  0.28601531725E-01  0.51100000000E-03 0. -1.
</event>
<event>
 8    1  0.1030163E+005  0.1043930E+01  0.7957747E-01            NaN
         13   -1    0    0    0    0  0.00000000000E+00  0.00000000000E+00  0.74505805969E-08  0.10566000000E+00  0.10566000000E+00 0. -1.
     999900   -1    0    0    0    0 -0.00000000000E+00 -0.00000000000E+00 -0.74505805969E-08  0.93827000000E+00  0.93827000000E+00 0. -1.
     999902    2    1    2    0    0  0.17837055557E-01 -0.10550845987E-01 -0.12313227454E-01  0.10198240573E+01  0.10195391172E+01 0.  0.
     999903    2    3    3    0    0  0.32545269167E-01  0.11012799799E+00 -0.58055320549E-01  0.13028931713E+00  0.20433194262E-01 0.  0.
         14    1    1    2    0    0 -0.17837055557E-01  0.10550845987E-01  0.12313227454E-01  0.24105942677E-01  0.00000000000E+00 0. -1.
     999901    1    3    3    0    0 -0.14708213609E-01 -0.12067884398E+00  0.45742093095E-01  0.88953474019E+00  0.88000000000E+00 0. -1.
        -11    1    4    4    0    0  0.18155572207E-01  0.85914533135E-01 -0.49713586015E-01  0.10090903607E+00  0.51100000000E-03 0. -1.
         11    1    4    4    0    0  0.14389696959E-01  0.24213464854E-01 -0.83417345337E-02  0.29380281054E-01  0.51100000000E-03 0.  1.
</event>
<event>
 8    1  0.1030163E+005  0.1043930E+01  0.7957747E-01            NaN
         13   -1    0    0    0    0  0.00000000000E+00  0.00000000000E+00  0.74505805969E-08  0.10566000000E+00  0.10566000000E+00 0.  1.
     999900   -1    0    0    0    0 -0.00000000000E+00 -0.00000000000E+00 -0.74505805969E-08  0.93827000000E+00  0.93827000000E+00 0. -1.
     999902    2    1    2    0    0  0.19329923593E-01 -0.13520779020E-02 -0.10472302280E-01  0.10219040341E+01  0.10216666343E+01 0.  0.
     999903    2    3    3    0    0  0.11140267822E+00  0.24062692791E-01 -0.69165096962E-01  0.13479178250E+00  0.19885776110E-01 0.  0.
         14    1    1    2    0    0 -0.19329923593E-01  0.13520779020E-02  0.10472302280E-01  0.22025965945E-01  0.00000000000E+00 0. -1.
     999901    1    3    3    0    0 -0.92072754630E-01 -0.25414770693E-01  0.58692794682E-01  0.88711225156E+00  0.88000000000E+00 0.  1.
        -11    1    4    4    0    0  0.82594918011E-01  0.16968185454E-01 -0.60821838748E-01  0.10396824991E+00  0.51100000000E-03 0.  1.
         11    1    4    4    0    0  0.28807760213E-01  0.70945073368E-02 -0.83432582142E-02  0.30823532592E-01  0.51100000000E-03 0. -1.
</event>
<event>
 8    1  0.1030163E+005  0.1043930E+01  0.7957747E-01            NaN
         13   -1    0    0    0    0  0.00000000000E+00  0.00000000000E+00  0.74505805969E-08  0.10566000000E+00  0.10566000000E+00 0. -1.
     999900   -1    0    0    0    0 -0.00000000000E+00 -0.00000000000E+00 -0.74505805969E-08  0.93827000000E+00  0.93827000000E+00 0. -1.
     999902    2    1    2    0    0 -0.15018506994E-01 -0.17473104263E-01 -0.90405712796E-04  0.10208893165E+01  0.10206292781E+01 0.  0.
     999903    2    3    3    0    0  0.83703327840E-01 -0.51625527179E-01 -0.83649076215E-01  0.13078008716E+00  0.20852364326E-01 0.  0.
         14    1    1    2    0    0  0.15018506994E-01  0.17473104263E-01  0.90405712796E-04  0.23040683543E-01  0.00000000000E+00 0. -1.
     999901    1    3    3    0    0 -0.98721834834E-01  0.34152422915E-01  0.83558670502E-01  0.89010922930E+00  0.88000000000E+00 0. -1.
        -11    1    4    4    0    0  0.14248847487E-01 -0.16632152147E-01 -0.25829808697E-01  0.33868839338E-01  0.51100000000E-03 0. -1.
         11    1    4    4    0    0  0.69454480352E-01 -0.34993375032E-01 -0.57819267518E-01  0.96911247822E-01  0.51100000000E-03 0.  1.
</event>
<event>
 8    1  0.1030163E+005  0.1043930E+01  0.7957747E-01            NaN
         13   -1    0    0    0    0  0.00000000000E+00  0.00000000000E+00  0.74505805969E-08  0.10566000000E+00  0.10566000000E+00 0.  1.
     999900   -1    0    0    0    0 -0.00000000000E+00 -0.00000000000E+00 -0.74505805969E-08  0.93827000000E+00  0.93827000000E+00 0. -1.
     999902    2    1    2    0    0 -0.19867776430E-01  0.72137492379E-02  0.15893208164E-02  0.10227334753E+01  0.10225137989E+01 0.  0.
     999903    2    3    3    0    0 -0.11443146284E+00  0.56023529328E-01 -0.40724699575E-01  0.13531296521E+00  0.20442648404E-01 0.  0.
         14    1    1    2    0    0  0.19867776430E-01 -0.72137492379E-02 -0.15893208164E-02  0.21196524692E-01  0.00000000000E+00 0. -1.
     999901    1    3    3    0    0  0.94563686405E-01 -0.48809780090E-01  0.42314020392E-01  0.88742051010E+00  0.88000000000E+00 0.  1.
        -11    1    4    4    0    0 -0.23450623501E-01  0.94188715510E-02 -0.33694431127E-05  0.25276629843E-01  0.51100000000E-03 0.  1.
         11    1    4    4    0    0 -0.90980839335E-01  0.46604657777E-01 -0.40721330132E-01  0.11003633537E+00  0.51100000000E-03 0. -1.
</event>
<event>
 8    1  0.1030163E+005  0.1043930E+01  0.7957747E-01            NaN
         13   -1    0    0    0    0  0.00000000000E+00  0.00000000000E+00  0.74505805969E-08  0.10566000000E+00  0.10566000000E+00 0.  1.
     999900   -1    0    0    0    0 -0.00000000000E+00 -0.00000000000E+00 -0.74505805969E-08  0.93827000000E+00  0.93827000000E+00 0.  1.
     999902    2    1    2    0    0 -0.22454024097E-01  0.13593020691E-02  0.24933104253E-02  0.10212971147E+01  0.10210463011E+01 0.  0.
     999903    2    3    3    0    0  0.64655045954E-02  0.47325212884E-01 -0.12035499168E+00  0.13110561315E+00  0.20539699431E-01 0.  0.
         14    1    1    2    0    0  0.22454024097E-01 -0.13593020691E-02 -0.24933104253E-02  0.22632885303E-01  0.00000000000E+00 0.  1.
     999901    1    3    3    0    0 -0.28919528692E-01 -0.45965910815E-01  0.12284830211E+00  0.89019150155E+00  0.88000000000E+00 0. -1.
        -11    1    4    4    0    0  0.10899080512E-01  0.40055623182E-01 -0.83181246281E-01  0.92965712811E-01  0.51100000000E-03 0.  1.
         11    1    4    4    0    0 -0.44335759164E-02  0.72695897020E-02 -0.37173745399E-01  0.38139900339E-01  0.51100000000E-03 0. -1.
</event>
<event>
 8    1  0.1030163E+005  0.1043930E+01  0.7957747E-01            NaN
         13   -1    0    0    0    0  0.00000000000E+00  0.00000000000E+00  0.74505805969E-08  0.10566000000E+00  0.10566000000E+00 0. -1.
     999900   -1    0    0    0    0 -0.00000000000E+00 -0.00000000000E+00 -0.74505805969E-08  0.93827000000E+00  0.93827000000E+00 0.  1.
     999902    2    1    2    0    0  0.18818118335E-01  0.13970006617E-01 -0.85578723136E-02  0.10189796525E+01  0.10186741443E+01 0.  0.
     999903    2    3    3    0    0  0.12219590256E+00 -0.38502895435E-01  0.18419507586E-01  0.13096605420E+00  0.19962903880E-01 0.  0.
         14    1    1    2    0    0 -0.18818118335E-01 -0.13970006617E-01  0.85578723136E-02  0.24950347514E-01  0.00000000000E+00 0. -1.
     999901    1    3    3    0    0 -0.10337778423E+00  0.52472902052E-01 -0.26977379900E-01  0.88801359829E+00  0.88000000000E+00 0. -1.
        -11    1    4    4    0    0  0.96901065298E-01 -0.24456873302E-01  0.20245167229E-01  0.10197099109E+00  0.51100000000E-03 0.  1.
         11    1    4    4    0    0  0.25294837266E-01 -0.14046022133E-01 -0.18256596432E-02  0.28995063101E-01  0.51100000000E-03 0. -1.
</event>
<event>
 8    1  0.1030163E+005  0.1043930E+01  0.7957747E-01            NaN
         13   -1    0    0    0    0  0.00000000000E+00  0.00000000000E+00  0.74505805969E-08  0.10566000000E+00  0.10566000000E+00 0.  1.
     999900   -1    0    0    0    0 -0.00000000000E+00 -0.00000000000E+00 -0.74505805969E-08  0.93827000000E+00  0.93827000000E+00 0. -1.
     999902    2    1    2    0    0  0.12300409267E-01  0.19131664715E-01  0.51893090702E-02  0.10206008425E+01  0.10203341757E+01 0.  0.
     999903    2    3    3    0    0  0.80215406191E-01  0.99987158421E-01 -0.32006706118E-01  0.13350806196E+00  0.19184111448E-01 0.  0.
         14    1    1    2    0    0 -0.12300409267E-01 -0.19131664715E-01 -0.51893090702E-02  0.23329157541E-01  0.00000000000E+00 0. -1.
     999901    1    3    3    0    0 -0.67914996924E-01 -0.80855493706E-01  0.37196015188E-01  0.88709278050E+00  0.88000000000E+00 0.  1.
        -11    1    4    4    0    0  0.53904218870E-01  0.77422418447E-01 -0.17601828605E-01  0.95968646867E-01  0.51100000000E-03 0. -1.
         11    1    4    4    0    0  0.26311187321E-01  0.22564739975E-01 -0.14404877513E-01  0.37539415093E-01  0.51100000000E-03 0.  1.
</event>
<event>
 7    1  0.1030163E+005  0.1043930E+01  0.7957747E-01            NaN
         13   -1    0    0    0    0  0.00000000000E+00  0.00000000000E+00  0.74505805969E-08  0.10566000000E+00  0.10566000000E+00 0.  1.
     999900   -1    0    0    0    0 -0.00000000000E+00 -0.00000000000E+00 -0.74505805969E-08  0.93827000000E+00  0.93827000000E+00 0. -1.
     999902    2    1    2    0    0 -0.11831123031E-01  0.17035804088E-01 -0.11598863157E-01  0.10201659995E+01  0.10198891797E+01 0.  0.
         14    1    1    2    0    0  0.11831123031E-01 -0.17035804088E-01  0.11598863157E-01  0.23764000497E-01  0.00000000000E+00 0.  1.
     999901    1    3    3    0    0 -0.11638730484E+00 -0.60732107478E-01 -0.84454759858E-02  0.88977846663E+00  0.88000000000E+00 0. -1.
        -11    1    3    3    0    0  0.33363327910E-01  0.23385271758E-01 -0.18873804036E-02  0.40789777031E-01  0.51100000000E-03 0. -1.
         11    1    3    3    0    0  0.71192853897E-01  0.54382639807E-01 -0.12660067676E-02  0.89597755846E-01  0.51100000000E-03 0.  1.
</event>
<event>
 7    1  0.1030163E+005  0.1043930E+01  0.7957747E-01            NaN
         13   -1    0    0    0    0  0.00000000000E+00  0.00000000000E+00  0.74505805969E-08  0.10566000000E+00  0.10566000000E+00 0.  1.
     999900   -1    0    0    0    0 -0.00000000000E+00 -0.00000000000E+00 -0.74505805969E-08  0.93827000000E+00  0.93827000000E+00 0. -1.
     999902    2    1    2    0    0  0.21289557202E-01 -0.83188771675E-03  0.10656160351E-01  0.10201079296E+01  0.10198297393E+01 0.  0.
         14    1    1    2    0    0 -0.21289557202E-01  0.83188771675E-03 -0.10656160351E-01  0.23822070365E-01  0.00000000000E+00 0. -1.
     999901    1    3    3    0    0  0.70452744716E-01  0.45779812044E-01  0.86590416915E-01  0.88823267263E+00  0.88000000000E+00 0. -1.
        -11    1    3    3    0    0 -0.52624566833E-01 -0.60468222681E-01 -0.33113278771E-01  0.86732354635E-01  0.51100000000E-03 0. -1.
         11    1    3    3    0    0  0.34613793187E-02  0.13856522920E-01 -0.42820977792E-01  0.45142902369E-01  0.51100000000E-03 0.  1.
</event>
<event>
 8    1  0.1030163E+005  0.1043930E+01  0.7957747E-01            NaN
         13   -1    0    0    0    0  0.00000000000E+00  0.00000000000E+00  0.74505805969E-08  0.10566000000E+00  0.10566000000E+00 0. -1.
     999900   -1    0    0    0    0 -0.00000000000E+00 -0.00000000000E+00 -0.74505805969E-08  0.93827000000E+00  0.93827000000E+00 0. -1.
     999902    2    1    2    0    0 -0.11226882027E-01  0.12541600098E-01 -0.16968241818E-01  0.10200290410E+01  0.10197489831E+01 0.  0.
     999903    2    3    3    0    0  0.31030420594E-01  0.83360621538E-02  0.12244656154E+00  0.12804257605E+00  0.19218842708E-01 0.  0.
         14    1    1    2    0    0  0.11226882027E-01 -0.12541600098E-01  0.16968241818E-01  0.23900959049E-01  0.00000000000E+00 0. -1.
     999901    1    3    3    0    0 -0.42257302621E-01  0.42055379443E-02 -0.13941480335E+00  0.89198646490E+00  0.88000000000E+00 0. -1.
        -11    1    4    4    0    0  0.21661249513E-01 -0.32960349966E-02  0.61433218750E-01  0.65225570631E-01  0.51100000000E-03 0.  1.
         11    1    4    4    0    0  0.93691710806E-02  0.11632097150E-01  0.61013342785E-01  0.62817005418E-01  0.51100000000E-03 0. -1.
</event>
<event>
 8    1  0.1030163E+005  0.1043930E+01  0.7957747E-01            NaN
         13   -1    0    0    0    0  0.00000000000E+00  0.00000000000E+00  0.74505805969E-08  0.10566000000E+00  0.10566000000E+00 0. -1.
     999900   -1    0    0    0    0 -0.00000000000E+00 -0.00000000000E+00 -0.74505805969E-08  0.93827000000E+00  0.93827000000E+00 0.  1.
     999902    2    1    2    0    0  0.23281371112E-01  0.28553439584E-02  0.23072151925E-02  0.10203609849E+01  0.10200887418E+01 0.  0.
     999903    2    3    3    0    0  0.12610190606E+00 -0.21737816931E-01  0.32265194067E-01  0.13352708476E+00  0.20352302594E-01 0.  0.
         14    1    1    2    0    0 -0.23281371112E-01 -0.28553439584E-02 -0.23072151925E-02  0.23569015082E-01  0.00000000000E+00 0.  1.
     999901    1    3    3    0    0 -0.10282053494E+00  0.24593160890E-01 -0.29957978875E-01  0.88683390016E+00  0.88000000000E+00 0. -1.
        -11    1    4    4    0    0  0.75655047076E-02 -0.63141468727E-02  0.69597398539E-03  0.98919569853E-02  0.51100000000E-03 0.  1.
         11    1    4    4    0    0  0.11853640135E+00 -0.15423670058E-01  0.31569220082E-01  0.12363512778E+00  0.51100000000E-03 0. -1.
</event>
<event>
 8    1  0.1160204E+005  0.1043930E+01  0.7957747E-01            NaN
         13   -1    0    0    0    0  0.00000000000E+00  0.00000000000E+00  0.74505805969E-08  0.10566000000E+00  0.10566000000E+00 0. -1.
     999900   -1    0    0    0    0 -0.00000000000E+00 -0.00000000000E+00 -0.74505805969E-08  0.93827000000E+00  0.93827000000E+00 0.  1.
     999902    2    1    2    0    0 -0.43192913018E-02  0.23346400732E-01 -0.21225652156E-02  0.10200927185E+01  0.10198141686E+01 0.  0.
     999903    2    3    3    0    0 -0.47666972737E-01  0.10236348608E-01 -0.12001988583E+00  0.13107602963E+00  0.19980726314E-01 0.  0.
         14    1    1    2    0    0  0.43192913018E-02 -0.23346400732E-01  0.21225652156E-02  0.23837281464E-01  0.00000000000E+00 0.  1.
     999901    1    3    3    0    0  0.43347681435E-01  0.13110052123E-01  0.11789732062E+00  0.88901668891E+00  0.88000000000E+00 0.  1.
        -11    1    4    4    0    0 -0.16967464101E-01  0.11486913394E-01 -0.63726556164E-01  0.66941609622E-01  0.51100000000E-03 0.  1.
         11    1    4    4    0    0 -0.30699508636E-01 -0.12505647855E-02 -0.56293329671E-01  0.64134420004E-01  0.51100000000E-03 0. -1.
</event>
<event>
 8    1  0.1030163E+005  0.1043930E+01  0.7957747E-01            NaN
         13   -1    0    0    0    0  0.00000000000E+00  0.00000000000E+00  0.74505805969E-08  0.10566000000E+00  0.10566000000E+00 0. -1.
     999900   -1    0    0    0    0 -0.00000000000E+00 -0.00000000000E+00 -0.74505805969E-08  0.93827000000E+00  0.93827000000E+00 0.  1.
     999902    2    1    2    0    0  0.54255744970E-02 -0.21374120391E-01 -0.28891117704E-02  0.10216895673E+01  0.10214474705E+01 0.  0.
     999903    2    3    3    0    0  0.80210178664E-01 -0.35906629099E-02  0.10241881615E+00  0.13208361627E+00  0.22581013322E-01 0.  0.
         14    1    1    2    0    0 -0.54255744970E-02  0.21374120391E-01  0.28891117704E-02  0.22240432728E-01  0.00000000000E+00 0.  1.
     999901    1    3    3    0    0 -0.74784604167E-01 -0.17783457481E-01 -0.10530792792E+00  0.88960595101E+00  0.88000000000E+00 0.  1.
        -11    1    4    4    0    0  0.42338228238E-01  0.45086888972E-02  0.38826704466E-01  0.57624889992E-01  0.51100000000E-03 0. -1.
         11    1    4    4    0    0  0.37871950426E-01 -0.80993518071E-02  0.63592111687E-01  0.74458726275E-01  0.51100000000E-03 0.  1.
</event>
<event>
 8    1  0.1030163E+005  0.1043930E+01  0.7957747E-01            NaN
         13   -1    0    0    0    0  0.00000000000E+00  0.00000000000E+00  0.74505805969E-08  0.10566000000E+00  0.10566000000E+00 0. -1.
     999900   -1    0    0    0    0 -0.00000000000E+00 -0.00000000000E+00 -0.74505805969E-08  0.93827000000E+00  0.93827000000E+00 0.  1.
     999902    2    1    2    0    0  0.27242520575E-02 -0.18649541480E-01  0.18076317153E-01  0.10178152496E+01  0.10174801728E+01 0.  0.
     999903    2    3    3    0    0 -0.12240468365E+00  0.20884687243E-01  0.23780546477E-01  0.12806655248E+00  0.20407124537E-01 0.  0.
         14    1    1    2    0    0 -0.27242520575E-02  0.18649541480E-01 -0.18076317153E-01  0.26114750401E-01  0.00000000000E+00 0.  1.
     999901    1    3    3    0    0  0.12512893571E+00 -0.39534228722E-01 -0.57042293244E-02  0.88974869712E+00  0.88000000000E+00 0.  1.
        -11    1    4    4    0    0 -0.65104272466E-01  0.73515235810E-02  0.28639964523E-02  0.65582579920E-01  0.51100000000E-03 0.  1.
         11    1    4    4    0    0 -0.57300411187E-01  0.13533163662E-01  0.20916550025E-01  0.62483972560E-01  0.51100000000E-03 0. -1.
</event>
<event>
 8    1  0.1030163E+005  0.1043930E+01  0.7957747E-01            NaN
         13   -1    0    0    0    0  0.00000000000E+00  0.00000000000E+00  0.74505805969E-08  0.10566000000E+00  0.10566000000E+00 0.  1.
     999900   -1    0    0    0    0 -0.00000000000E+00 -0.00000000000E+00 -0.74505805969E-08  0.93827000000E+00  0.93827000000E+00 0. -1.
     999902    2    1    2    0    0  0.75764335348E-02 -0.12812056333E-01  0.28829744242E-01  0.10114845799E+01  0.10109640696E+01 0.  0.
     999903    2    3    3    0    0  0.40207978087E-01 -0.24285776893E-01 -0.10867152922E+00  0.12013556623E+00  0.20410109003E-01 0.  0.
         14    1    1    2    0    0 -0.75764335348E-02  0.12812056333E-01 -0.28829744242E-01  0.32445420103E-01  0.00000000000E+00 0. -1.
     999901    1    3    3    0    0 -0.32631544552E-01  0.11473720560E-01  0.13750127346E+00  0.89134901367E+00  0.88000000000E+00 0.  1.
        -11    1    4    4    0    0  0.17401259986E-01 -0.10845835708E-01 -0.24793670070E-01  0.32177992446E-01  0.51100000000E-03 0.  1.
         11    1    4    4    0    0  0.22806718101E-01 -0.13439941185E-01 -0.83877859149E-01  0.87957573784E-01  0.51100000000E-03 0. -1.
</event>
<event>
 8    1  0.1030163E+005  0.1043930E+01  0.7957747E-01            NaN
         13   -1    0    0    0    0  0.00000000000E+00  0.00000000000E+00  0.74505805969E-08  0.10566000000E+00  0.10566000000E+00 0. -1.
     999900   -1    0    0    0    0 -0.00000000000E+00 -0.00000000000E+00 -0.74505805969E-08  0.93827000000E+00  0.93827000000E+00 0. -1.
     999902    2    1    2    0    0  0.24720411587E-02  0.23699289362E-01 -0.64037933584E-02  0.10192566161E+01  0.10189579351E+01 0.  0.
     999903    2    3    3    0    0  0.74163284769E-01 -0.23301706467E-01  0.10055615193E+00  0.12864493983E+00  0.19870040785E-01 0.  0.
         14    1    1    2    0    0 -0.24720411587E-02 -0.23699289362E-01  0.64037933584E-02  0.24673383901E-01  0.00000000000E+00 0. -1.
     999901    1    3    3    0    0 -0.71691243610E-01  0.47000995828E-01 -0.10695994528E+00  0.89061167627E+00  0.88000000000E+00 0. -1.
        -11    1    4    4    0    0  0.15771621511E-01 -0.13492606572E-01  0.21695227972E-01  0.30028961270E-01  0.51100000000E-03 0.  1.
         11    1    4    4    0    0  0.58391663258E-01 -0.98090998948E-02  0.78860923953E-01  0.98615978556E-01  0.51100000000E-03 0. -1.
</event>
<event>
 8    1  0.1112325E+005  0.1043930E+01  0.7957747E-01            NaN
         13   -1    0    0    0    0  0.00000000000E+00  0.00000000000E+00  0.74505805969E-08  0.10566000000E+00  0.10566000000E+00 0.  1.
     999900   -1    0    0    0    0 -0.00000000000E+00 -0.00000000000E+00 -0.74505805969E-08  0.93827000000E+00  0.93827000000E+00 0. -1.
     999902    2    1    2    0    0 -0.18893824428E-01 -0.42215563773E-03 -0.12608574670E-01  0.10212114839E+01  0.10209587474E+01 0.  0.
     999903    2    3    3    0    0 -0.13190783148E+00 -0.12068552021E-01 -0.26134054636E-02  0.13385151879E+00  0.19080703356E-01 0.  0.
         14    1    1    2    0    0  0.18893824428E-01  0.42215563773E-03  0.12608574670E-01  0.22718516063E-01  0.00000000000E+00 0.  1.
     999901    1    3    3    0    0  0.11301400705E+00  0.11646396383E-01 -0.99951692068E-02  0.88735996515E+00  0.88000000000E+00 0.  1.
        -11    1    4    4    0    0 -0.41117664237E-01 -0.38613112016E-02  0.80149753336E-02  0.42072235347E-01  0.51100000000E-03 0.  1.
         11    1    4    4    0    0 -0.90790167243E-01 -0.82072408193E-02 -0.10628380797E-01  0.91779283443E-01  0.51100000000E-03 0. -1.
</event>
<event>
 8    1  0.1030163E+005  0.1043930E+01  0.7957747E-01            NaN
         13   -1    0    0    0    0  0.00000000000E+00  0.00000000000E+00  0.74505805969E-08  0.10566000000E+00  0.10566000000E+00 0. -1.
     999900   -1    0    0    0    0 -0.00000000000E+00 -0.00000000000E+00 -0.74505805969E-08  0.93827000000E+00  0.93827000000E+00 0.  1.
     999902    2    1    2    0    0  0.80718065152E-02 -0.19262862042E-01  0.81113111185E-02  0.10215245256E+01  0.10212787823E+01 0.  0.
     999903    2    3    3    0    0  0.10063239011E+00  0.75901673037E-01  0.30182602234E-01  0.13129371719E+00  0.20954922752E-01 0.  0.
         14    1    1    2    0    0 -0.80718065152E-02  0.19262862042E-01 -0.81113111185E-02  0.22405474388E-01  0.00000000000E+00 0.  1.
     999901    1    3    3    0    0 -0.92560583592E-01 -0.95164535079E-01 -0.22071291116E-01  0.89023080842E+00  0.88000000000E+00 0.  1.
        -11    1    4    4    0    0  0.42462111061E-01  0.34881028243E-01  0.27940241732E-02  0.55025309623E-01  0.51100000000E-03 0. -1.
         11    1    4    4    0    0  0.58170279046E-01  0.41020644794E-01  0.27388578061E-01  0.76268407567E-01  0.51100000000E-03 0.  1.
</event>
<event>
 8    1  0.1030163E+005  0.1043930E+01  0.7957747E-01            NaN
         13   -1    0    0    0    0  0.00000000000E+00  0.00000000000E+00  0.74505805969E-08  0.10566000000E+00  0.10566000000E+00 0. -1.
     999900   -1    0    0    0    0 -0.00000000000E+00 -0.00000000000E+00 -0.74505805969E-08  0.93827000000E+00  0.93827000000E+00 0. -1.
     999902    2    1    2    0    0 -0.89594882330E-02 -0.16031944739E-01 -0.15347066977E-01  0.10199961715E+01  0.10197153337E+01 0.  0.
     999903    2    3    3    0    0  0.88771389519E-02 -0.23493925177E-01 -0.12964762489E+00  0.13239353296E+00  0.94219326057E-02 0.  0.
         14    1    1    2    0    0  0.89594882330E-02  0.16031944739E-01  0.15347066977E-01  0.23933828493E-01  0.00000000000E+00 0. -1.
     999901    1    3    3    0    0 -0.17836627185E-01  0.74619804381E-02  0.11430055791E+00  0.88760263855E+00  0.88000000000E+00 0.  1.
        -11    1    4    4    0    0  0.82229616121E-03 -0.65208142943E-02 -0.17876502505E-01  0.19053284568E-01  0.51100000000E-03 0.  1.
         11    1    4    4    0    0  0.80548427907E-02 -0.16973110883E-01 -0.11177112238E+00  0.11334024839E+00  0.51100000000E-03 0. -1.
</event>
<event>
 8    1  0.1030163E+005  0.1043930E+01  0.7957747E-01            NaN
         13   -1    0    0    0    0  0.00000000000E+00  0.00000000000E+00  0.74505805969E-08  0.10566000000E+00  0.10566000000E+00 0. -1.
     999900   -1    0    0    0    0 -0.00000000000E+00 -0.00000000000E+00 -0.74505805969E-08  0.93827000000E+00  0.93827000000E+00 0. -1.
     999902    2    1    2    0    0 -0.21338091649E-01 -0.46942841279E-02 -0.53190206461E-02  0.10214435054E+01  0.10211959617E+01 0.  0.
     999903    2    3    3    0    0  0.32098480490E-01  0.51245991168E-01 -0.11477609490E+00  0.13129428603E+00  0.20203304746E-01 0.  0.
         14    1    1    2    0    0  0.21338091649E-01  0.46942841279E-02  0.53190206461E-02  0.22486494599E-01  0.00000000000E+00 0. -1.
     999901    1    3    3    0    0 -0.53436572139E-01 -0.55940275296E-01  0.10945707426E+00  0.89014921937E+00  0.88000000000E+00 0.  1.
        -11    1    4    4    0    0  0.39148514084E-02  0.13431488509E-01 -0.44565655315E-01  0.46712842985E-01  0.51100000000E-03 0.  1.
         11    1    4    4    0    0  0.28183629081E-01  0.37814502659E-01 -0.70210439587E-01  0.84581443045E-01  0.51100000000E-03 0. -1.
</event>
<event>
 8    1  0.1030163E+005  0.1043930E+01  0.7957747E-01            NaN
         13   -1    0    0    0    0  0.00000000000E+00  0.00000000000E+00  0.74505805969E-08  0.10566000000E+00  0.10566000000E+00 0.  1.
     999900   -1    0    0    0    0 -0.00000000000E+00 -0.00000000000E+00 -0.74505805969E-08  0.93827000000E+00  0.93827000000E+00 0.  1.
     999902    2    1    2    0    0 -0.12575821864E-01  0.10863306611E-01 -0.17501286632E-01  0.10197958383E+01  0.10195102227E+01 0.  0.
     999903    2    3    3    0    0  0.20390700519E-01  0.44042335680E-01 -0.12153313307E+00  0.13243443245E+00  0.20324085807E-01 0.  0.
         14    1    1    2    0    0  0.12575821864E-01 -0.10863306611E-01  0.17501286632E-01  0.24134161677E-01  0.00000000000E+00 0.  1.
     999901    1    3    3    0    0 -0.32966522383E-01 -0.33179029069E-01  0.10403184644E+00  0.88736140588E+00  0.88000000000E+00 0. -1.
        -11    1    4    4    0    0  0.80151626668E-02  0.14006606741E-01 -0.19300592638E-01  0.25163502581E-01  0.51100000000E-03 0. -1.
         11    1    4    4    0    0  0.12375537852E-01  0.30035728938E-01 -0.10223254043E+00  0.10727092986E+00  0.51100000000E-03 0.  1.
</event>
<event>
 8    1  0.1030163E+005  0.1043930E+01  0.7957747E-01            NaN
         13   -1    0    0    0    0  0.00000000000E+00  0.00000000000E+00  0.74505805969E-08  0.10566000000E+00  0.10566000000E+00 0. -1.
     999900   -1    0    0    0    0 -0.00000000000E+00 -0.00000000000E+00 -0.74505805969E-08  0.93827000000E+00  0.93827000000E+00 0.  1.
     999902    2    1    2    0    0  0.21596105838E-01 -0.22097086157E-02 -0.91893035368E-02  0.10203563304E+01  0.10200839784E+01 0.  0.
     999903    2    3    3    0    0  0.19015415867E-02 -0.25181654263E-01  0.12550503882E+00  0.12959365043E+00  0.20131266476E-01 0.  0.
         14    1    1    2    0    0 -0.21596105838E-01  0.22097086157E-02  0.91893035368E-02  0.23573669613E-01  0.00000000000E+00 0. -1.
     999901    1    3    3    0    0  0.19694564252E-01  0.22971945648E-01 -0.13469434236E+00  0.89076267996E+00  0.88000000000E+00 0.  1.
        -11    1    4    4    0    0 -0.24704330269E-03 -0.35814719644E-02  0.68462157320E-01  0.68558121895E-01  0.51100000000E-03 0.  1.
         11    1    4    4    0    0  0.21485848894E-02 -0.21600182299E-01  0.57042881499E-01  0.61035528531E-01  0.51100000000E-03 0. -1.
</event>
<event>
 8    1  0.1030163E+005  0.1043930E+01  0.7957747E-01            NaN
         13   -1    0    0    0    0  0.00000000000E+00  0.00000000000E+00  0.74505805969E-08  0.10566000000E+00  0.10566000000E+00 0. -1.
     999900   -1    0    0    0    0 -0.00000000000E+00 -0.00000000000E+00 -0.74505805969E-08  0.93827000000E+00  0.93827000000E+00 0. -1.
     999902    2    1    2    0    0  0.14990073290E-01  0.12101472801E-01  0.16172557114E-01  0.10187764805E+01  0.10184659138E+01 0.  0.
     999903    2    3    3    0    0 -0.10423551694E+00  0.71573459812E-02 -0.68665715733E-01  0.12667967053E+00  0.20408033135E-01 0.  0.
         14    1    1    2    0    0 -0.14990073290E-01 -0.12101472801E-01 -0.16172557114E-01  0.25153519531E-01  0.00000000000E+00 0.  1.
     999901    1    3    3    0    0  0.11922559023E+00  0.49441268198E-02  0.84838272847E-01  0.89209680993E+00  0.88000000000E+00 0.  1.
        -11    1    4    4    0    0 -0.75318307433E-01  0.10632680971E-01 -0.40574590261E-01  0.86211715184E-01  0.51100000000E-03 0.  1.
         11    1    4    4    0    0 -0.28917209507E-01 -0.34753349901E-02 -0.28091125471E-01  0.40467955350E-01  0.51100000000E-03 0. -1.
</event>
<event>
 8    1  0.1030163E+005  0.1043930E+01  0.7957747E-01            NaN
         13   -1    0    0    0    0  0.00000000000E+00  0.00000000000E+00  0.74505805969E-08  0.10566000000E+00  0.10566000000E+00 0. -1.
     999900   -1    0    0    0    0 -0.00000000000E+00 -0.00000000000E+00 -0.74505805969E-08  0.93827000000E+00  0.93827000000E+00 0.  1.
     999902    2    1    2    0    0 -0.23330278713E-01 -0.14641530809E-02 -0.94517596514E-03  0.10205347226E+01  0.10202665245E+01 0.  0.
     999903    2    3    3    0    0 -0.38836213479E-01  0.12151838185E+00 -0.24830695606E-01  0.13152647965E+00  0.20191156439E-01 0.  0.
         14    1    1    2    0    0  0.23330278713E-01  0.14641530809E-02  0.94517596514E-03  0.23395277444E-01  0.00000000000E+00 0. -1.
     999901    1    3    3    0    0  0.15505934766E-01 -0.12298253493E+00  0.23885519641E-01  0.88900824291E+00  0.88000000000E+00 0.  1.
        -11    1    4    4    0    0 -0.20619478303E-01  0.35320669694E-01 -0.48737401883E-02  0.41191346877E-01  0.51100000000E-03 0.  1.
         11    1    4    4    0    0 -0.18216735176E-01  0.86197712160E-01 -0.19956955417E-01  0.90335132770E-01  0.51100000000E-03 0. -1.
</event>
<event>
 8    1  0.1030163E+005  0.1043930E+01  0.7957747E-01            NaN
         13   -1    0    0    0    0  0.00000000000E+00  0.00000000000E+00  0.74505805969E-08  0.10566000000E+00  0.10566000000E+00 0.  1.
     999900   -1    0    0    0    0 -0.00000000000E+00 -0.00000000000E+00 -0.74505805969E-08  0.93827000000E+00  0.93827000000E+00 0.  1.
     999902    2    1    2    0    0 -0.22199636352E-01 -0.66555101155E-02  0.64168152910E-02  0.10198822311E+01  0.10195986809E+01 0.  0.
     999903    2    3    3    0    0 -0.94868159738E-01  0.70279767586E-01  0.56059710615E-01  0.13215244775E+00  0.19554151175E-01 0.  0.
         14    1    1    2    0    0  0.22199636352E-01  0.66555101155E-02 -0.64168152910E-02  0.24047768868E-01  0.00000000000E+00 0.  1.
     999901    1    3    3    0    0  0.72668523386E-01 -0.76935277702E-01 -0.49642895324E-01  0.88772978338E+00  0.88000000000E+00 0. -1.
        -11    1    4    4    0    0 -0.91219276776E-02  0.14475934960E-01  0.11102741245E-01  0.20403289972E-01  0.51100000000E-03 0.  1.
         11    1    4    4    0    0 -0.85746232060E-01  0.55803832626E-01  0.44956969371E-01  0.11174915778E+00  0.51100000000E-03 0. -1.
</event>
<event>
 8    1  0.1030163E+005  0.1043930E+01  0.7957747E-01            NaN
         13   -1    0    0    0    0  0.00000000000E+00  0.00000000000E+00  0.74505805969E-08  0.10566000000E+00  0.10566000000E+00 0. -1.
     999900   -1    0    0    0    0 -0.00000000000E+00 -0.00000000000E+00 -0.74505805969E-08  0.93827000000E+00  0.93827000000E+00 0. -1.
     999902    2    1    2    0    0 -0.96312077142E-02 -0.16147681308E-01  0.14812495689E-01  0.10199942986E+01  0.10197134163E+01 0.  0.
     999903    2    3    3    0    0  0.55743535603E-01  0.82014229501E-01 -0.78381328076E-01  0.12724869844E+00  0.14660254451E-01 0.  0.
         14    1    1    2    0    0  0.96312077142E-02  0.16147681308E-01 -0.14812495689E-01  0.23935701415E-01  0.00000000000E+00 0.  1.
     999901    1    3    3    0    0 -0.65374743318E-01 -0.98161910810E-01  0.93193823765E-01  0.89274560015E+00  0.88000000000E+00 0.  1.
        -11    1    4    4    0    0  0.14047772571E-01  0.33132522566E-01 -0.28291523317E-01  0.45779639343E-01  0.51100000000E-03 0.  1.
         11    1    4    4    0    0  0.41695763032E-01  0.48881706935E-01 -0.50089804759E-01  0.81469059093E-01  0.51100000000E-03 0. -1.
</event>
<event>
 8    1  0.1030163E+005  0.1043930E+01  0.7957747E-01            NaN
         13   -1    0    0    0    0  0.00000000000E+00  0.00000000000E+00  0.74505805969E-08  0.10566000000E+00  0.10566000000E+00 0.  1.
     999900   -1    0    0    0    0 -0.00000000000E+00 -0.00000000000E+00 -0.74505805969E-08  0.93827000000E+00  0.93827000000E+00 0. -1.
     999902    2    1    2    0    0 -0.10840498887E-01  0.15857256293E-01  0.14229299583E-01  0.10200251478E+01  0.10197449976E+01 0.  0.
     999903    2    3    3    0    0 -0.23792029298E-01  0.12750744746E+00 -0.16788344084E-01  0.13233398439E+00  0.20155026957E-01 0.  0.
         14    1    1    2    0    0  0.10840498887E-01 -0.15857256293E-01 -0.14229299583E-01  0.23904852224E-01  0.00000000000E+00 0. -1.
     999901    1    3    3    0    0  0.12951530411E-01 -0.11165019117E+00  0.31017643667E-01  0.88769116338E+00  0.88000000000E+00 0. -1.
        -11    1    4    4    0    0 -0.12532812658E-03  0.47297744331E-01 -0.10610580201E-01  0.48476157636E-01  0.51100000000E-03 0.  1.
         11    1    4    4    0    0 -0.23666701171E-01  0.80209703132E-01 -0.61777638826E-02  0.83857826757E-01  0.51100000000E-03 0. -1.
</event>
<event>
 8    1  0.1030163E+005  0.1043930E+01  0.7957747E-01            NaN
         13   -1    0    0    0    0  0.00000000000E+00  0.00000000000E+00  0.74505805969E-08  0.10566000000E+00  0.10566000000E+00 0. -1.
     999900   -1    0    0    0    0 -0.00000000000E+00 -0.00000000000E+00 -0.74505805969E-08  0.93827000000E+00  0.93827000000E+00 0.  1.
     999902    2    1    2    0    0 -0.68037712845E-02  0.22319096566E-01  0.55941855701E-02  0.10199356613E+01  0.10196533847E+01 0.  0.
     999903    2    3    3    0    0 -0.34600726496E-01 -0.11728320447E+00  0.32334939738E-01  0.12809680757E+00  0.20265326471E-01 0.  0.
         14    1    1    2    0    0  0.68037712845E-02 -0.22319096566E-01 -0.55941855701E-02  0.23994338653E-01  0.00000000000E+00 0.  1.
     999901    1    3    3    0    0  0.27796955212E-01  0.13960230104E+00 -0.26740754168E-01  0.89183885378E+00  0.88000000000E+00 0.  1.
        -11    1    4    4    0    0 -0.91074519316E-02 -0.48435041215E-01  0.21928985408E-01  0.53944790483E-01  0.51100000000E-03 0. -1.
         11    1    4    4    0    0 -0.25493274565E-01 -0.68848163254E-01  0.10405954330E-01  0.74152017086E-01  0.51100000000E-03 0.  1.
</event>
<event>
 8    1  0.1030163E+005  0.1043930E+01  0.7957747E-01            NaN
         13   -1    0    0    0    0  0.00000000000E+00  0.00000000000E+00  0.74505805969E-08  0.10566000000E+00  0.10566000000E+00 0.  1.
     999900   -1    0    0    0    0 -0.00000000000E+00 -0.00000000000E+00 -0.74505805969E-08  0.93827000000E+00  0.93827000000E+00 0. -1.
     999902    2    1    2    0    0 -0.15862541812E-01 -0.16948744511E-01 -0.51930809426E-02  0.10201424347E+01  0.10198650591E+01 0.  0.
     999903    2    3    3    0    0 -0.27299717634E-01 -0.11231143276E+00  0.61317123043E-01  0.13242149964E+00  0.20409102811E-01 0.  0.
         14    1    1    2    0    0  0.15862541812E-01  0.16948744511E-01  0.51930809426E-02  0.23787565301E-01  0.00000000000E+00 0. -1.
     999901    1    3    3    0    0  0.11437175822E-01  0.95362688252E-01 -0.66510203986E-01  0.88772093506E+00  0.88000000000E+00 0. -1.
        -11    1    4    4    0    0 -0.56564911853E-02 -0.18141949508E-01  0.21789192687E-02  0.19134655331E-01  0.51100000000E-03 0. -1.
         11    1    4    4    0    0 -0.21643226449E-01 -0.94169483255E-01  0.59138203774E-01  0.11328684431E+00  0.51100000000E-03 0.  1.
</event>
<event>
 8    1  0.1030163E+005  0.1043930E+01  0.7957747E-01            NaN
         13   -1    0    0    0    0  0.00000000000E+00  0.00000000000E+00  0.74505805969E-08  0.10566000000E+00  0.10566000000E+00 0.  1.
     999900   -1    0    0    0    0 -0.00000000000E+00 -0.00000000000E+00 -0.74505805969E-08  0.93827000000E+00  0.93827000000E+00 0. -1.
     999902    2    1    2    0    0  0.24648394514E-01  0.10841763123E-01 -0.22106551577E-02  0.10169119657E+01  0.10165529853E+01 0.  0.
     999903    2    3    3    0    0  0.16874631554E-01  0.93183894415E-01 -0.85643287337E-01  0.12910474449E+00  0.19112064625E-01 0.  0.
         14    1    1    2    0    0 -0.24648394514E-01 -0.10841763123E-01  0.22106551577E-02  0.27018034273E-01  0.00000000000E+00 0.  1.
     999901    1    3    3    0    0  0.77737629606E-02 -0.82342131292E-01  0.83432632180E-01  0.88780722124E+00  0.88000000000E+00 0.  1.
        -11    1    4    4    0    0  0.10798557350E-01  0.22230072019E-01 -0.15683302001E-01  0.29274767727E-01  0.51100000000E-03 0. -1.
         11    1    4    4    0    0  0.60760742041E-02  0.70953822397E-01 -0.69959985336E-01  0.99829976759E-01  0.51100000000E-03 0.  1.
</event>
<event>
 8    1  0.1030163E+005  0.1043930E+01  0.7957747E-01            NaN
         13   -1    0    0    0    0  0.00000000000E+00  0.00000000000E+00  0.74505805969E-08  0.10566000000E+00  0.10566000000E+00 0. -1.
     999900   -1    0    0    0    0 -0.00000000000E+00 -0.00000000000E+00 -0.74505805969E-08  0.93827000000E+00  0.93827000000E+00 0.  1.
     999902    2    1    2    0    0 -0.21252267435E-01 -0.88277761683E-02  0.11523201491E-02  0.10208883780E+01  0.10206283182E+01 0.  0.
     999903    2    3    3    0    0 -0.91267195095E-01  0.92910247194E-01 -0.11461486891E-01  0.13217480004E+00  0.19411263509E-01 0.  0.
         14    1    1    2    0    0  0.21252267435E-01  0.88277761683E-02 -0.11523201491E-02  0.23041622012E-01  0.00000000000E+00 0.  1.
     999901    1    3    3    0    0  0.70014927660E-01 -0.10173802336E+00  0.12613807040E-01  0.88871357794E+00  0.88000000000E+00 0. -1.
        -11    1    4    4    0    0 -0.49202489486E-01  0.62417517803E-01 -0.30262043611E-02  0.79537730255E-01  0.51100000000E-03 0.  1.
         11    1    4    4    0    0 -0.42064705610E-01  0.30492729391E-01 -0.84352825297E-02  0.52637069790E-01  0.51100000000E-03 0. -1.
</event>
<event>
 8    1  0.1030163E+005  0.1043930E+01  0.7957747E-01            NaN
         13   -1    0    0    0    0  0.00000000000E+00  0.00000000000E+00  0.74505805969E-08  0.10566000000E+00  0.10566000000E+00 0.  1.
     999900   -1    0    0    0    0 -0.00000000000E+00 -0.00000000000E+00 -0.74505805969E-08  0.93827000000E+00  0.93827000000E+00 0.  1.
     999902    2    1    2    0    0 -0.15978208567E-01  0.69638059418E-02 -0.16257473557E-01  0.10200950847E+01  0.10198165907E+01 0.  0.
     999903    2    3    3    0    0 -0.97466387801E-01  0.80052354678E-01  0.32674392705E-01  0.13196413327E+00  0.20948515213E-01 0.  0.
         14    1    1    2    0    0  0.15978208567E-01 -0.69638059418E-02  0.16257473557E-01  0.23834915327E-01  0.00000000000E+00 0.  1.
     999901    1    3    3    0    0  0.81488179234E-01 -0.73088548736E-01 -0.48931866261E-01  0.88813095141E+00  0.88000000000E+00 0. -1.
        -11    1    4    4    0    0 -0.17368636631E-01  0.21173552052E-01  0.14192720898E-01  0.30849364539E-01  0.51100000000E-03 0. -1.
         11    1    4    4    0    0 -0.80097751170E-01  0.58878802626E-01  0.18481671806E-01  0.10111476873E+00  0.51100000000E-03 0.  1.
</event>
<event>
 8    1  0.1030163E+005  0.1043930E+01  0.7957747E-01            NaN
         13   -1    0    0    0    0  0.00000000000E+00  0.00000000000E+00  0.74505805969E-08  0.10566000000E+00  0.10566000000E+00 0.  1.
     999900   -1    0    0    0    0 -0.00000000000E+00 -0.00000000000E+00 -0.74505805969E-08  0.93827000000E+00  0.93827000000E+00 0.  1.
     999902    2    1    2    0    0 -0.20073103016E-01  0.73947380772E-02  0.98684736248E-02  0.10203715962E+01  0.10200996010E+01 0.  0.
     999903    2    3    3    0    0  0.67593359243E-01 -0.92459326553E-01  0.56507006511E-01  0.12917498742E+00  0.19379017246E-01 0.  0.
         14    1    1    2    0    0  0.20073103016E-01 -0.73947380772E-02 -0.98684736248E-02  0.23558403758E-01  0.00000000000E+00 0. -1.
     999901    1    3    3    0    0 -0.87666462260E-01  0.99854064630E-01 -0.46638532886E-01  0.89119660882E+00  0.88000000000E+00 0. -1.
        -11    1    4    4    0    0  0.33685599950E-01 -0.61562038840E-01  0.31458464713E-01  0.76905789075E-01  0.51100000000E-03 0.  1.
         11    1    4    4    0    0  0.33907759294E-01 -0.30897287713E-01  0.25048541798E-01  0.52269198344E-01  0.51100000000E-03 0. -1.
</event>
<event>
 8    1  0.1030163E+005  0.1043930E+01  0.7957747E-01            NaN
         13   -1    0    0    0    0  0.00000000000E+00  0.00000000000E+00  0.74505805969E-08  0.10566000000E+00  0.10566000000E+00 0.  1.
     999900   -1    0    0    0    0 -0.00000000000E+00 -0.00000000000E+00 -0.74505805969E-08  0.93827000000E+00  0.93827000000E+00 0. -1.
     999902    2    1    2    0    0  0.13477130835E-01  0.33700902759E-02 -0.15899553953E-01  0.10228163461E+01  0.10225984019E+01 0.  0.
     999903    2    3    3    0    0 -0.18206763565E-01  0.10758298023E+00 -0.74801987816E-01  0.13414672680E+00  0.22235625788E-01 0.  0.
         14    1    1    2    0    0 -0.13477130835E-01 -0.33700902759E-02  0.15899553953E-01  0.21113653874E-01  0.00000000000E+00 0.  1.
     999901    1    3    3    0    0  0.31683894400E-01 -0.10421288996E+00  0.58902433863E-01  0.88866961933E+00  0.88000000000E+00 0. -1.
        -11    1    4    4    0    0 -0.14931445009E-01  0.43020248325E-01 -0.21509707730E-01  0.50364853456E-01  0.51100000000E-03 0. -1.
         11    1    4    4    0    0 -0.32753185567E-02  0.64562731910E-01 -0.53292280085E-01  0.83781873344E-01  0.51100000000E-03 0.  1.
</event>
<event>
 8    1  0.1030163E+005  0.1043930E+01  0.7957747E-01            NaN
         13   -1    0    0    0    0  0.00000000000E+00  0.00000000000E+00  0.74505805969E-08  0.10566000000E+00  0.10566000000E+00 0.  1.
     999900   -1    0    0    0    0 -0.00000000000E+00 -0.00000000000E+00 -0.74505805969E-08  0.93827000000E+00  0.93827000000E+00 0. -1.
     999902    2    1    2    0    0 -0.14337093679E-01  0.18791280043E-01 -0.17187233729E-02  0.10202315091E+01  0.10199562313E+01 0.  0.
     999903    2    3    3    0    0  0.57076889570E-01  0.68263189550E-01  0.93853071787E-01  0.13080394327E+00  0.19586682213E-01 0.  0.
         14    1    1    2    0    0  0.14337093679E-01 -0.18791280043E-01  0.17187233729E-02  0.23698490898E-01  0.00000000000E+00 0.  1.
     999901    1    3    3    0    0 -0.71413983249E-01 -0.49471909507E-01 -0.95571795160E-01  0.88942756583E+00  0.88000000000E+00 0. -1.
        -11    1    4    4    0    0  0.52814552406E-01  0.53790474991E-01  0.72010817990E-01  0.10425263150E+00  0.51100000000E-03 0.  1.
         11    1    4    4    0    0  0.42623371644E-02  0.14472714559E-01  0.21842253797E-01  0.26551311771E-01  0.51100000000E-03 0. -1.
</event>
<event>
 8    1  0.1030163E+005  0.1043930E+01  0.7957747E-01            NaN
         13   -1    0    0    0    0  0.00000000000E+00  0.00000000000E+00  0.74505805969E-08  0.10566000000E+00  0.10566000000E+00 0.  1.
     999900   -1    0    0    0    0 -0.00000000000E+00 -0.00000000000E+00 -0.74505805969E-08  0.93827000000E+00  0.93827000000E+00 0.  1.
     999902    2    1    2    0    0  0.38546060053E-02  0.18467584798E-01 -0.12625834570E-01  0.10212293089E+01  0.10209769733E+01 0.  0.
     999903    2    3    3    0    0 -0.47862664890E-02 -0.11377604717E+00  0.56366777960E-01  0.12863588333E+00  0.20051921746E-01 0.  0.
         14    1    1    2    0    0 -0.38546060053E-02 -0.18467584798E-01  0.12625834570E-01  0.22700691054E-01  0.00000000000E+00 0.  1.
     999901    1    3    3    0    0  0.86408724943E-02  0.13224363197E+00 -0.68992612530E-01  0.89259342562E+00  0.88000000000E+00 0.  1.
        -11    1    4    4    0    0  0.58199131413E-02 -0.79626247813E-01  0.37669398544E-01  0.88280549598E-01  0.51100000000E-03 0. -1.
         11    1    4    4    0    0 -0.10606179630E-01 -0.34149799356E-01  0.18697379416E-01  0.40355333730E-01  0.51100000000E-03 0.  1.
</event>
<event>
 8    1  0.1030163E+005  0.1043930E+01  0.7957747E-01            NaN
         13   -1    0    0    0    0  0.00000000000E+00  0.00000000000E+00  0.74505805969E-08  0.10566000000E+00  0.10566000000E+00 0. -1.
     999900   -1    0    0    0    0 -0.00000000000E+00 -0.00000000000E+00 -0.74505805969E-08  0.93827000000E+00  0.93827000000E+00 0.  1.
     999902    2    1    2    0    0 -0.25288775927E-01  0.54034723659E-03  0.16075821062E-02  0.10185844189E+01  0.10182690312E+01 0.  0.
     999903    2    3    3    0    0 -0.92098404621E-01  0.33523185815E-01  0.85469089095E-01  0.13146314954E+00  0.19278858253E-01 0.  0.
         14    1    1    2    0    0  0.25288775927E-01 -0.54034723659E-03 -0.16075821062E-02  0.25345581138E-01  0.00000000000E+00 0.  1.
     999901    1    3    3    0    0  0.66809628695E-01 -0.32982838578E-01 -0.83861506989E-01  0.88712126932E+00  0.88000000000E+00 0.  1.
        -11    1    4    4    0    0 -0.72720715610E-01  0.22829580698E-01  0.55890434395E-01  0.94517162523E-01  0.51100000000E-03 0.  1.
         11    1    4    4    0    0 -0.19377689012E-01  0.10693605117E-01  0.29578654700E-01  0.36945987018E-01  0.51100000000E-03 0. -1.
</event>
<event>
 8    1  0.1030163E+005  0.1043930E+01  0.7957747E-01            NaN
         13   -1    0    0    0    0  0.00000000000E+00  0.00000000000E+00  0.74505805969E-08  0.10566000000E+00  0.10566000000E+00 0. -1.
     999900   -1    0    0    0    0 -0.00000000000E+00 -0.00000000000E+00 -0.74505805969E-08  0.93827000000E+00  0.93827000000E+00 0.  1.
     999902    2    1    2    0    0 -0.21677348209E-02  0.23146031861E-01  0.31943644092E-02  0.10204642413E+01  0.10201944060E+01 0.  0.
     999903    2    3    3    0    0  0.52739536125E-01  0.11768497828E+00  0.27390041222E-01  0.13336906519E+00  0.20146473799E-01 0.  0.
         14    1    1    2    0    0  0.21677348209E-02 -0.23146031861E-01 -0.31943644092E-02  0.23465758652E-01  0.00000000000E+00 0.  1.
     999901    1    3    3    0    0 -0.54907270946E-01 -0.94538946421E-01 -0.24195676813E-01  0.88709517616E+00  0.88000000000E+00 0.  1.
        -11    1    4    4    0    0  0.61206156727E-02  0.35560652092E-01  0.71092628216E-02  0.36780764705E-01  0.51100000000E-03 0. -1.
         11    1    4    4    0    0  0.46618920452E-01  0.82124326190E-01  0.20280778401E-01  0.96588300481E-01  0.51100000000E-03 0.  1.
</event>
<event>
 8    1  0.1030163E+005  0.1043930E+01  0.7957747E-01            NaN
         13   -1    0    0    0    0  0.00000000000E+00  0.00000000000E+00  0.74505805969E-08  0.10566000000E+00  0.10566000000E+00 0. -1.
     999900   -1    0    0    0    0 -0.00000000000E+00 -0.00000000000E+00 -0.74505805969E-08  0.93827000000E+00  0.93827000000E+00 0. -1.
     999902    2    1    2    0    0  0.19438888259E-01 -0.13629861346E-01 -0.35074067770E-04  0.10201887968E+01  0.10199125141E+01 0.  0.
     999903    2    3    3    0    0 -0.10539052619E+00 -0.71276043689E-01  0.19495096748E-01  0.12929773020E+00  0.12264046008E-01 0.  0.
         14    1    1    2    0    0 -0.19438888259E-01  0.13629861346E-01  0.35074067770E-04  0.23741203155E-01  0.00000000000E+00 0.  1.
     999901    1    3    3    0    0  0.12482941445E+00  0.57646182343E-01 -0.19530170816E-01  0.89089106664E+00  0.88000000000E+00 0. -1.
        -11    1    4    4    0    0 -0.32962110159E-01 -0.28973090038E-01  0.84524923188E-02  0.44695037755E-01  0.51100000000E-03 0.  1.
         11    1    4    4    0    0 -0.72428416028E-01 -0.42302953651E-01  0.11042604429E-01  0.84602692448E-01  0.51100000000E-03 0. -1.
</event>
<event>
 8    1  0.1030163E+005  0.1043930E+01  0.7957747E-01            NaN
         13   -1    0    0    0    0  0.00000000000E+00  0.00000000000E+00  0.74505805969E-08  0.10566000000E+00  0.10566000000E+00 0.  1.
     999900   -1    0    0    0    0 -0.00000000000E+00 -0.00000000000E+00 -0.74505805969E-08  0.93827000000E+00  0.93827000000E+00 0. -1.
     999902    2    1    2    0    0 -0.48690115953E-02  0.11401865564E-02  0.22970443435E-01  0.10204215213E+01  0.10201506911E+01 0.  0.
     999903    2    3    3    0    0  0.94452171352E-01 -0.61572747146E-01  0.64749958264E-01  0.13163406791E+00  0.20556139615E-01 0.  0.
         14    1    1    2    0    0  0.48690115953E-02 -0.11401865564E-02 -0.22970443435E-01  0.23508478702E-01  0.00000000000E+00 0. -1.
     999901    1    3    3    0    0 -0.99321182947E-01  0.62712933702E-01 -0.41779514830E-01  0.88878745339E+00  0.88000000000E+00 0. -1.
        -11    1    4    4    0    0  0.61310971263E-01 -0.31419629667E-01  0.31056821149E-01  0.75571261645E-01  0.51100000000E-03 0.  1.
         11    1    4    4    0    0  0.33141200088E-01 -0.30153117479E-01  0.33693137115E-01  0.56062806268E-01  0.51100000000E-03 0. -1.
</event>
<event>
 8    1  0.1030163E+005  0.1043930E+01  0.7957747E-01            NaN
         13   -1    0    0    0    0  0.00000000000E+00  0.00000000000E+00  0.74505805969E-08  0.10566000000E+00  0.10566000000E+00 0. -1.
     999900   -1    0    0    0    0 -0.00000000000E+00 -0.00000000000E+00 -0.74505805969E-08  0.93827000000E+00  0.93827000000E+00 0. -1.
     999902    2    1    2    0    0  0.87368176550E-02 -0.18877199421E-01 -0.11898852583E-01  0.10199662079E+01  0.10196846580E+01 0.  0.
     999903    2    3    3    0    0 -0.99790020293E-01  0.57065291645E-01 -0.54833036951E-01  0.12901801594E+00  0.20603175377E-01 0.  0.
         14    1    1    2    0    0 -0.87368176550E-02  0.18877199421E-01  0.11898852583E-01  0.23963792135E-01  0.00000000000E+00 0. -1.
     999901    1    3    3    0    0  0.10852683795E+00 -0.75942491067E-01  0.42934184368E-01  0.89094819192E+00  0.88000000000E+00 0.  1.
        -11    1    4    4    0    0 -0.24339424692E-02  0.67500443733E-02 -0.32022806083E-02  0.78741918366E-02  0.51100000000E-03 0. -1.
         11    1    4    4    0    0 -0.97356077823E-01  0.50315247272E-01 -0.51630756342E-01  0.12114382410E+00  0.51100000000E-03 0.  1.
</event>
<event>
 8    1  0.1030163E+005  0.1043930E+01  0.7957747E-01            NaN
         13   -1    0    0    0    0  0.00000000000E+00  0.00000000000E+00  0.74505805969E-08  0.10566000000E+00  0.10566000000E+00 0. -1.
     999900   -1    0    0    0    0 -0.00000000000E+00 -0.00000000000E+00 -0.74505805969E-08  0.93827000000E+00  0.93827000000E+00 0. -1.
     999902    2    1    2    0    0 -0.10111083260E-01 -0.10090114024E-01 -0.19458965435E-01  0.10197909084E+01  0.10195051747E+01 0.  0.
     999903    2    3    3    0    0  0.17349991473E-01 -0.87448264058E-01  0.91223603700E-01  0.12906703141E+00  0.19706131861E-01 0.  0.
         14    1    1    2    0    0  0.10111083260E-01  0.10090114024E-01  0.19458965435E-01  0.24139091563E-01  0.00000000000E+00 0. -1.
     999901    1    3    3    0    0 -0.27461074732E-01  0.77358150034E-01 -0.11068256914E+00  0.89072387703E+00  0.88000000000E+00 0. -1.
        -11    1    4    4    0    0  0.83327191687E-02 -0.77137614452E-01  0.76849643075E-01  0.10920519463E+00  0.51100000000E-03 0. -1.
         11    1    4    4    0    0  0.90172723041E-02 -0.10310649606E-01  0.14373960626E-01  0.19861836778E-01  0.51100000000E-03 0.  1.
</event>
<event>
 8    1  0.1030163E+005  0.1043930E+01  0.7957747E-01            NaN
         13   -1    0    0    0    0  0.00000000000E+00  0.00000000000E+00  0.74505805969E-08  0.10566000000E+00  0.10566000000E+00 0. -1.
     999900   -1    0    0    0    0 -0.00000000000E+00 -0.00000000000E+00 -0.74505805969E-08  0.93827000000E+00  0.93827000000E+00 0.  1.
     999902    2    1    2    0    0 -0.19402649079E-01  0.14231480127E-01 -0.14650547846E-01  0.10157584475E+01  0.10153677104E+01 0.  0.
     999903    2    3    3    0    0  0.16652003863E-01  0.12134724877E+00  0.29358887858E-01  0.12743949784E+00  0.19401992103E-01 0.  0.
         14    1    1    2    0    0  0.19402649079E-01 -0.14231480127E-01  0.14650547846E-01  0.28171552497E-01  0.00000000000E+00 0. -1.
     999901    1    3    3    0    0 -0.36054652942E-01 -0.10711576864E+00 -0.44009435704E-01  0.88831894966E+00  0.88000000000E+00 0.  1.
        -11    1    4    4    0    0 -0.36655117264E-02  0.32101172562E-01  0.47764452730E-02  0.32664917059E-01  0.51100000000E-03 0.  1.
         11    1    4    4    0    0  0.20317515590E-01  0.89246076210E-01  0.24582442585E-01  0.94774580786E-01  0.51100000000E-03 0. -1.
</event>
<event>
 8    1  0.1030163E+005  0.1043930E+01  0.7957747E-01            NaN
         13   -1    0    0    0    0  0.00000000000E+00  0.00000000000E+00  0.74505805969E-08  0.10566000000E+00  0.10566000000E+00 0.  1.
     999900   -1    0    0    0    0 -0.00000000000E+00 -0.00000000000E+00 -0.74505805969E-08  0.93827000000E+00  0.93827000000E+00 0.  1.
     999902    2    1    2    0    0 -0.37408921271E-02 -0.11769927695E-01 -0.15778446957E-01  0.10238929129E+01  0.10236968361E+01 0.  0.
     999903    2    3    3    0    0  0.49031596321E-01 -0.59991298084E-01  0.10585611730E+00  0.13265489567E+00  0.19716756632E-01 0.  0.
         14    1    1    2    0    0  0.37408921271E-02  0.11769927695E-01  0.15778446957E-01  0.20037087120E-01  0.00000000000E+00 0.  1.
     999901    1    3    3    0    0 -0.52772488448E-01  0.48221370389E-01 -0.12163456426E+00  0.89123801721E+00  0.88000000000E+00 0.  1.
        -11    1    4    4    0    0  0.28702200257E-01 -0.23650707532E-01  0.61024101603E-01  0.71465896509E-01  0.51100000000E-03 0.  1.
         11    1    4    4    0    0  0.20329396064E-01 -0.36340590552E-01  0.44832015695E-01  0.61188999161E-01  0.51100000000E-03 0. -1.
</event>
<event>
 8    1  0.1030163E+005  0.1043930E+01  0.7957747E-01            NaN
         13   -1    0    0    0    0  0.00000000000E+00  0.00000000000E+00  0.74505805969E-08  0.10566000000E+00  0.10566000000E+00 0. -1.
     999900   -1    0    0    0    0 -0.00000000000E+00 -0.00000000000E+00 -0.74505805969E-08  0.93827000000E+00  0.93827000000E+00 0. -1.
     999902    2    1    2    0    0  0.57269196281E-03  0.72305502687E-02  0.25117760997E-01  0.10177859615E+01  0.10174501229E+01 0.  0.
     999903    2    3    3    0    0  0.11647040746E+00  0.82378345668E-02  0.52717480960E-01  0.12975722341E+00  0.20605496755E-01 0.  0.
         14    1    1    2    0    0 -0.57269196281E-03 -0.72305502687E-02 -0.25117760997E-01  0.26144038532E-01  0.00000000000E+00 0.  1.
     999901    1    3    3    0    0 -0.11589771549E+00 -0.10072842981E-02 -0.27599719962E-01  0.88802873806E+00  0.88000000000E+00 0. -1.
        -11    1    4    4    0    0  0.47727074493E-01  0.34393040492E-02  0.10666475967E-01  0.49027923499E-01  0.51100000000E-03 0. -1.
         11    1    4    4    0    0  0.68743332962E-01  0.47985305176E-02  0.42051004993E-01  0.80729299909E-01  0.51100000000E-03 0.  1.
</event>
<event>
 8    1  0.1030163E+005  0.1043930E+01  0.7957747E-01            NaN
         13   -1    0    0    0    0  0.00000000000E+00  0.00000000000E+00  0.74505805969E-08  0.10566000000E+00  0.10566000000E+00 0.  1.
     999900   -1    0    0    0    0 -0.00000000000E+00 -0.00000000000E+00 -0.74505805969E-08  0.93827000000E+00  0.93827000000E+00 0. -1.
     999902    2    1    2    0    0  0.23559214330E-01  0.24463086977E-02  0.13776383428E-02  0.10202040881E+01  0.10199281654E+01 0.  0.
     999903    2    3    3    0    0 -0.10099967534E+00 -0.16329335667E-01 -0.74859017046E-01  0.12797123208E+00  0.17469464326E-01 0.  0.
         14    1    1    2    0    0 -0.23559214330E-01 -0.24463086977E-02 -0.13776383428E-02  0.23725911858E-01  0.00000000000E+00 0. -1.
     999901    1    3    3    0    0  0.12455888967E+00  0.18775644365E-01  0.76236655389E-01  0.89223285607E+00  0.88000000000E+00 0.  1.
        -11    1    4    4    0    0 -0.29014265935E-01 -0.12804298449E-01 -0.22727226615E-01  0.39020067108E-01  0.51100000000E-03 0. -1.
         11    1    4    4    0    0 -0.71985409406E-01 -0.35250372184E-02 -0.52131790431E-01  0.88951164969E-01  0.51100000000E-03 0.  1.
</event>
<event>
 8    1  0.1030163E+005  0.1043930E+01  0.7957747E-01            NaN
         13   -1    0    0    0    0  0.00000000000E+00  0.00000000000E+00  0.74505805969E-08  0.10566000000E+00  0.10566000000E+00 0.  1.
     999900   -1    0    0    0    0 -0.00000000000E+00 -0.00000000000E+00 -0.74505805969E-08  0.93827000000E+00  0.93827000000E+00 0. -1.
     999902    2    1    2    0    0 -0.14886050692E-01  0.18342263016E-01  0.65438115022E-03  0.10202982135E+01  0.10200245013E+01 0.  0.
     999903    2    3    3    0    0  0.80306751289E-01 -0.93012883990E-01  0.28907726049E-01  0.12774015388E+00  0.19527401221E-01 0.  0.
         14    1    1    2    0    0  0.14886050692E-01 -0.18342263016E-01 -0.65438115022E-03  0.23631786485E-01  0.00000000000E+00 0. -1.
     999901    1    3    3    0    0 -0.95192801982E-01  0.11135514701E+00 -0.28253344898E-01  0.89255805963E+00  0.88000000000E+00 0. -1.
        -11    1    4    4    0    0  0.25730398505E-01 -0.17198617991E-01  0.88647937011E-02  0.32197694892E-01  0.51100000000E-03 0.  1.
         11    1    4    4    0    0  0.54576352784E-01 -0.75814265999E-01  0.20042932348E-01  0.95542458992E-01  0.51100000000E-03 0. -1.
</event>
<event>
 8    1  0.1030163E+005  0.1043930E+01  0.7957747E-01            NaN
         13   -1    0    0    0    0  0.00000000000E+00  0.00000000000E+00  0.74505805969E-08  0.10566000000E+00  0.10566000000E+00 0. -1.
     999900   -1    0    0    0    0 -0.00000000000E+00 -0.00000000000E+00 -0.74505805969E-08  0.93827000000E+00  0.93827000000E+00 0. -1.
     999902    2    1    2    0    0  0.86596230150E-02  0.13700476645E-01  0.15961170083E-01  0.10211824489E+01  0.10209290587E+01 0.  0.
     999903    2    3    3    0    0 -0.76162206410E-01 -0.10249311155E+00 -0.26753742561E-02  0.12930632887E+00  0.20185377304E-01 0.  0.
         14    1    1    2    0    0 -0.86596230150E-02 -0.13700476645E-01 -0.15961170083E-01  0.22747551110E-01  0.00000000000E+00 0.  1.
     999901    1    3    3    0    0  0.84821829425E-01  0.11619358819E+00  0.18636544339E-01  0.89187612002E+00  0.88000000000E+00 0.  1.
        -11    1    4    4    0    0 -0.49478726584E-01 -0.50123308020E-01  0.62906752222E-03  0.70435411820E-01  0.51100000000E-03 0. -1.
         11    1    4    4    0    0 -0.26683479826E-01 -0.52369803530E-01 -0.33044417783E-02  0.58870917046E-01  0.51100000000E-03 0.  1.
</event>
<event>
 8    1  0.1030163E+005  0.1043930E+01  0.7957747E-01            NaN
         13   -1    0    0    0    0  0.00000000000E+00  0.00000000000E+00  0.74505805969E-08  0.10566000000E+00  0.10566000000E+00 0.  1.
     999900   -1    0    0    0    0 -0.00000000000E+00 -0.00000000000E+00 -0.74505805969E-08  0.93827000000E+00  0.93827000000E+00 0. -1.
     999902    2    1    2    0    0  0.30635261593E-02 -0.61875035824E-02 -0.22984351799E-01  0.10199310246E+01  0.10196486376E+01 0.  0.
     999903    2    3    3    0    0 -0.81852479481E-01  0.51265860279E-01 -0.87069741118E-01  0.13166386086E+00  0.20644989980E-01 0.  0.
         14    1    1    2    0    0 -0.30635261593E-02  0.61875035824E-02  0.22984351799E-01  0.23998975410E-01  0.00000000000E+00 0.  1.
     999901    1    3    3    0    0  0.84916005641E-01 -0.57453363862E-01  0.64085389319E-01  0.88826716373E+00  0.88000000000E+00 0.  1.
        -11    1    4    4    0    0 -0.44301181250E-01  0.39642666818E-01 -0.52231023953E-01  0.79135811594E-01  0.51100000000E-03 0.  1.
         11    1    4    4    0    0 -0.37551298232E-01  0.11623193461E-01 -0.34838717166E-01  0.52528049268E-01  0.51100000000E-03 0. -1.
</event>
<event>
 8    1  0.1030163E+005  0.1043930E+01  0.7957747E-01            NaN
         13   -1    0    0    0    0  0.00000000000E+00  0.00000000000E+00  0.74505805969E-08  0.10566000000E+00  0.10566000000E+00 0. -1.
     999900   -1    0    0    0    0 -0.00000000000E+00 -0.00000000000E+00 -0.74505805969E-08  0.93827000000E+00  0.93827000000E+00 0. -1.
     999902    2    1    2    0    0 -0.42723783223E-02  0.23309476197E-01  0.26970816384E-02  0.10200792317E+01  0.10198003628E+01 0.  0.
     999903    2    3    3    0    0 -0.88649996524E-01  0.91210196316E-01 -0.32217792230E-01  0.13275226908E+00  0.20175654015E-01 0.  0.
         14    1    1    2    0    0  0.42723783223E-02 -0.23309476197E-01 -0.26970816384E-02  0.23850768257E-01  0.00000000000E+00 0. -1.
     999901    1    3    3    0    0  0.84377618201E-01 -0.67900720119E-01  0.34914873868E-01  0.88732696266E+00  0.88000000000E+00 0.  1.
        -11    1    4    4    0    0 -0.33347893410E-01  0.44800500173E-01 -0.21097096112E-01  0.59703562674E-01  0.51100000000E-03 0.  1.
         11    1    4    4    0    0 -0.55302103114E-01  0.46409696143E-01 -0.11120696118E-01  0.73048706409E-01  0.51100000000E-03 0. -1.
</event>
<event>
 8    1  0.1030163E+005  0.1043930E+01  0.7957747E-01            NaN
         13   -1    0    0    0    0  0.00000000000E+00  0.00000000000E+00  0.74505805969E-08  0.10566000000E+00  0.10566000000E+00 0.  1.
     999900   -1    0    0    0    0 -0.00000000000E+00 -0.00000000000E+00 -0.74505805969E-08  0.93827000000E+00  0.93827000000E+00 0. -1.
     999902    2    1    2    0    0 -0.11124538647E-01 -0.76867154453E-02  0.17892793890E-01  0.10215024939E+01  0.10212562617E+01 0.  0.
     999903    2    3    3    0    0 -0.93949604998E-01  0.88364518103E-01 -0.13923495256E-01  0.13184070016E+00  0.23522120621E-01 0.  0.
         14    1    1    2    0    0  0.11124538647E-01  0.76867154453E-02 -0.17892793890E-01  0.22427506050E-01  0.00000000000E+00 0. -1.
     999901    1    3    3    0    0  0.82825066351E-01 -0.96051233549E-01  0.31816289146E-01  0.88966179379E+00  0.88000000000E+00 0.  1.
        -11    1    4    4    0    0 -0.62079577151E-01  0.44441959361E-01 -0.25468511873E-02  0.76391813849E-01  0.51100000000E-03 0.  1.
         11    1    4    4    0    0 -0.31870027846E-01  0.43922558743E-01 -0.11376644069E-01  0.55448886307E-01  0.51100000000E-03 0. -1.
</event>
<event>
 8    1  0.1030163E+005  0.1043930E+01  0.7957747E-01            NaN
         13   -1    0    0    0    0  0.00000000000E+00  0.00000000000E+00  0.74505805969E-08  0.10566000000E+00  0.10566000000E+00 0.  1.
     999900   -1    0    0    0    0 -0.00000000000E+00 -0.00000000000E+00 -0.74505805969E-08  0.93827000000E+00  0.93827000000E+00 0.  1.
     999902    2    1    2    0    0 -0.13433481867E-01 -0.19687160454E-01  0.16099824666E-02  0.10200420372E+01  0.10197622875E+01 0.  0.
     999903    2    3    3    0    0 -0.10826002028E+00  0.47554394935E-01  0.52459140606E-01  0.13094185387E+00  0.20301605687E-01 0.  0.
         14    1    1    2    0    0  0.13433481867E-01  0.19687160454E-01 -0.16099824666E-02  0.23887962771E-01  0.00000000000E+00 0.  1.
     999901    1    3    3    0    0  0.94826538416E-01 -0.67241555388E-01 -0.50849158139E-01  0.88910018336E+00  0.88000000000E+00 0.  1.
        -11    1    4    4    0    0 -0.68617866122E-01  0.25655780156E-01  0.22492204877E-01  0.76634137353E-01  0.51100000000E-03 0.  1.
         11    1    4    4    0    0 -0.39642154161E-01  0.21898614779E-01  0.29966935728E-01  0.54307716521E-01  0.51100000000E-03 0. -1.
</event>
<event>
 8    1  0.1030163E+005  0.1043930E+01  0.7957747E-01            NaN
         13   -1    0    0    0    0  0.00000000000E+00  0.00000000000E+00  0.74505805969E-08  0.10566000000E+00  0.10566000000E+00 0. -1.
     999900   -1    0    0    0    0 -0.00000000000E+00 -0.00000000000E+00 -0.74505805969E-08  0.93827000000E+00  0.93827000000E+00 0. -1.
     999902    2    1    2    0    0  0.83574918247E-02  0.48418907210E-02 -0.25016854356E-01  0.10171133153E+01  0.10167597364E+01 0.  0.
     999903    2    3    3    0    0 -0.35673389156E-01  0.10773335687E+00 -0.58877989921E-01  0.12937914971E+00  0.19831283562E-01 0.  0.
         14    1    1    2    0    0 -0.83574918247E-02 -0.48418907210E-02  0.25016854356E-01  0.26816684680E-01  0.00000000000E+00 0. -1.
     999901    1    3    3    0    0  0.44030880981E-01 -0.10289146615E+00  0.33861135566E-01  0.88773416561E+00  0.88000000000E+00 0.  1.
        -11    1    4    4    0    0 -0.24686174024E-01  0.44781089758E-01 -0.22766921341E-01  0.55976307632E-01  0.51100000000E-03 0.  1.
         11    1    4    4    0    0 -0.10987215132E-01  0.62952267108E-01 -0.36111068580E-01  0.73402842080E-01  0.51100000000E-03 0. -1.
</event>
<event>
 8    1  0.1030163E+005  0.1043930E+01  0.7957747E-01            NaN
         13   -1    0    0    0    0  0.00000000000E+00  0.00000000000E+00  0.74505805969E-08  0.10566000000E+00  0.10566000000E+00 0.  1.
     999900   -1    0    0    0    0 -0.00000000000E+00 -0.00000000000E+00 -0.74505805969E-08  0.93827000000E+00  0.93827000000E+00 0.  1.
     999902    2    1    2    0    0  0.20608088268E-01  0.10342967116E-01 -0.92735365053E-02  0.10190770575E+01  0.10187739594E+01 0.  0.
     999903    2    3    3    0    0  0.20347084440E-01 -0.11767068640E+00  0.41752058762E-01  0.12835197368E+00  0.21693327392E-01 0.  0.
         14    1    1    2    0    0 -0.20608088268E-01 -0.10342967116E-01  0.92735365053E-02  0.24852942484E-01  0.00000000000E+00 0. -1.
     999901    1    3    3    0    0  0.26100382817E-03  0.12801365351E+00 -0.51025595267E-01  0.89072508384E+00  0.88000000000E+00 0.  1.
        -11    1    4    4    0    0  0.48628746319E-02 -0.85721495304E-01  0.29118606638E-01  0.90664087049E-01  0.51100000000E-03 0. -1.
         11    1    4    4    0    0  0.15484209808E-01 -0.31949191093E-01  0.12633452125E-01  0.37687886628E-01  0.51100000000E-03 0.  1.
</event>
<event>
 8    1  0.1030163E+005  0.1043930E+01  0.7957747E-01            NaN
         13   -1    0    0    0    0  0.00000000000E+00  0.00000000000E+00  0.74505805969E-08  0.10566000000E+00  0.10566000000E+00 0. -1.
     999900   -1    0    0    0    0 -0.00000000000E+00 -0.00000000000E+00 -0.74505805969E-08  0.93827000000E+00  0.93827000000E+00 0. -1.
     999902    2    1    2    0    0  0.17582235626E-01  0.45082800498E-02 -0.13419993107E-01  0.10213566570E+01  0.10211071761E+01 0.  0.
     999903    2    3    3    0    0 -0.75843356131E-01 -0.60134952301E-01  0.82805584537E-01  0.12885094248E+00  0.19426100731E-01 0.  0.
         14    1    1    2    0    0 -0.17582235626E-01 -0.45082800498E-02  0.13419993107E-01  0.22573342987E-01  0.00000000000E+00 0. -1.
     999901    1    3    3    0    0  0.93425591757E-01  0.64643232351E-01 -0.96225577643E-01  0.89250571453E+00  0.88000000000E+00 0.  1.
        -11    1    4    4    0    0 -0.10049591326E-01 -0.77474721985E-02  0.20762280698E-01  0.24338262717E-01  0.51100000000E-03 0.  1.
         11    1    4    4    0    0 -0.65793764805E-01 -0.52387480103E-01  0.62043303838E-01  0.10451267976E+00  0.51100000000E-03 0. -1.
</event>
<event>
 8    1  0.1030163E+005  0.1043930E+01  0.7957747E-01            NaN
         13   -1    0    0    0    0  0.00000000000E+00  0.00000000000E+00  0.74505805969E-08  0.10566000000E+00  0.10566000000E+00 0.  1.
     999900   -1    0    0    0    0 -0.00000000000E+00 -0.00000000000E+00 -0.74505805969E-08  0.93827000000E+00  0.93827000000E+00 0.  1.
     999902    2    1    2    0    0 -0.80713976245E-02 -0.22175420188E-01 -0.37232085862E-02  0.10200394370E+01  0.10197596256E+01 0.  0.
     999903    2    3    3    0    0  0.23297485792E-01  0.11239949996E+00 -0.53262119351E-01  0.12787996710E+00  0.18439419566E-01 0.  0.
         14    1    1    2    0    0  0.80713976245E-02  0.22175420188E-01  0.37232085862E-02  0.23890563039E-01  0.00000000000E+00 0.  1.
     999901    1    3    3    0    0 -0.31368883416E-01 -0.13457492014E+00  0.49538910764E-01  0.89215946986E+00  0.88000000000E+00 0.  1.
        -11    1    4    4    0    0  0.13236923959E-01  0.83583238624E-01 -0.31112287604E-01  0.90164347143E-01  0.51100000000E-03 0. -1.
         11    1    4    4    0    0  0.10060561832E-01  0.28816261332E-01 -0.22149831747E-01  0.37715619960E-01  0.51100000000E-03 0.  1.
</event>
<event>
 8    1  0.1030163E+005  0.1043930E+01  0.7957747E-01            NaN
         13   -1    0    0    0    0  0.00000000000E+00  0.00000000000E+00  0.74505805969E-08  0.10566000000E+00  0.10566000000E+00 0. -1.
     999900   -1    0    0    0    0 -0.00000000000E+00 -0.00000000000E+00 -0.74505805969E-08  0.93827000000E+00  0.93827000000E+00 0.  1.
     999902    2    1    2    0    0  0.88006195949E-02  0.16346538965E-01  0.12265015618E-01  0.10216793629E+01  0.10214370415E+01 0.  0.
     999903    2    3    3    0    0  0.68965845314E-01  0.27300152224E-01  0.10995285030E+00  0.13416443401E+00  0.20220779744E-01 0.  0.
         14    1    1    2    0    0 -0.88006195949E-02 -0.16346538965E-01 -0.12265015618E-01  0.22250637058E-01  0.00000000000E+00 0.  1.
     999901    1    3    3    0    0 -0.60165225719E-01 -0.10953613259E-01 -0.97687834681E-01  0.88751492893E+00  0.88000000000E+00 0. -1.
        -11    1    4    4    0    0  0.15006158160E-01  0.11058622552E-02  0.11778370973E-01  0.19115408911E-01  0.51100000000E-03 0.  1.
         11    1    4    4    0    0  0.53959687154E-01  0.26194289968E-01  0.98174479326E-01  0.11504902510E+00  0.51100000000E-03 0. -1.
</event>
<event>
 8    1  0.1030163E+005  0.1043930E+01  0.7957747E-01            NaN
         13   -1    0    0    0    0  0.00000000000E+00  0.00000000000E+00  0.74505805969E-08  0.10566000000E+00  0.10566000000E+00 0. -1.
     999900   -1    0    0    0    0 -0.00000000000E+00 -0.00000000000E+00 -0.74505805969E-08  0.93827000000E+00  0.93827000000E+00 0. -1.
     999902    2    1    2    0    0  0.22628491367E-01  0.44284739243E-02 -0.88827664978E-02  0.10192204160E+01  0.10189208472E+01 0.  0.
     999903    2    3    3    0    0  0.99864223138E-01  0.28993108227E-01  0.76560006968E-01  0.13137513267E+00  0.24177002075E-01 0.  0.
         14    1    1    2    0    0 -0.22628491367E-01 -0.44284739243E-02  0.88827664978E-02  0.24709584041E-01  0.00000000000E+00 0.  1.
     999901    1    3    3    0    0 -0.77235731771E-01 -0.24564634302E-01 -0.85442773466E-01  0.88784528329E+00  0.88000000000E+00 0. -1.
        -11    1    4    4    0    0  0.17856583028E-01 -0.31578192924E-02  0.18284450163E-01  0.25756778115E-01  0.51100000000E-03 0.  1.
         11    1    4    4    0    0  0.82007640111E-01  0.32150927519E-01  0.58275556806E-01  0.10561835455E+00  0.51100000000E-03 0. -1.
</event>
<event>
 8    1  0.1030163E+005  0.1043930E+01  0.7957747E-01            NaN
         13   -1    0    0    0    0  0.00000000000E+00  0.00000000000E+00  0.74505805969E-08  0.10566000000E+00  0.10566000000E+00 0. -1.
     999900   -1    0    0    0    0 -0.00000000000E+00 -0.00000000000E+00 -0.74505805969E-08  0.93827000000E+00  0.93827000000E+00 0.  1.
     999902    2    1    2    0    0  0.13940252968E-01 -0.17879065286E-01  0.41854065963E-02  0.10208755155E+01  0.10206151620E+01 0.  0.
     999903    2    3    3    0    0 -0.46992101930E-01  0.11269910492E+00  0.34723065224E-01  0.12863341884E+00  0.20773042433E-01 0.  0.
         14    1    1    2    0    0 -0.13940252968E-01  0.17879065286E-01 -0.41854065963E-02  0.23054484524E-01  0.00000000000E+00 0. -1.
     999901    1    3    3    0    0  0.60932354897E-01 -0.13057817020E+00 -0.30537658628E-01  0.89224209663E+00  0.88000000000E+00 0.  1.
        -11    1    4    4    0    0 -0.31024920511E-01  0.57800946436E-01  0.10077662437E-01  0.66372550824E-01  0.51100000000E-03 0.  1.
         11    1    4    4    0    0 -0.15967181419E-01  0.54898158481E-01  0.24645402787E-01  0.62260868020E-01  0.51100000000E-03 0. -1.
</event>
<event>
 8    1  0.1030163E+005  0.1043930E+01  0.7957747E-01            NaN
         13   -1    0    0    0    0  0.00000000000E+00  0.00000000000E+00  0.74505805969E-08  0.10566000000E+00  0.10566000000E+00 0.  1.
     999900   -1    0    0    0    0 -0.00000000000E+00 -0.00000000000E+00 -0.74505805969E-08  0.93827000000E+00  0.93827000000E+00 0. -1.
     999902    2    1    2    0    0 -0.18628377528E-01 -0.34040434869E-02  0.13489440012E-01  0.10206798612E+01  0.10204150186E+01 0.  0.
     999903    2    3    3    0    0 -0.80091374658E-01  0.50803177544E-01 -0.88539298397E-01  0.13100239928E+00  0.18078443319E-01 0.  0.
         14    1    1    2    0    0  0.18628377528E-01  0.34040434869E-02 -0.13489440012E-01  0.23250138778E-01  0.00000000000E+00 0. -1.
     999901    1    3    3    0    0  0.61462997130E-01 -0.54207221031E-01  0.10202873841E+00  0.88967746194E+00  0.88000000000E+00 0.  1.
        -11    1    4    4    0    0 -0.63865456721E-01  0.48263995883E-01 -0.75274142151E-01  0.10988479175E+00  0.51100000000E-03 0.  1.
         11    1    4    4    0    0 -0.16225917938E-01  0.25391816611E-02 -0.13265156246E-01  0.21117607527E-01  0.51100000000E-03 0. -1.
</event>
<event>
 8    1  0.1030163E+005  0.1043930E+01  0.7957747E-01            NaN
         13   -1    0    0    0    0  0.00000000000E+00  0.00000000000E+00  0.74505805969E-08  0.10566000000E+00  0.10566000000E+00 0.  1.
     999900   -1    0    0    0    0 -0.00000000000E+00 -0.00000000000E+00 -0.74505805969E-08  0.93827000000E+00  0.93827000000E+00 0.  1.
     999902    2    1    2    0    0  0.10035320438E-01  0.67492359544E-02  0.21346996495E-01  0.10193952471E+01  0.10190999537E+01 0.  0.
     999903    2    3    3    0    0 -0.32402553443E-01  0.48141616911E-01  0.11709459109E+00  0.13221888116E+00  0.20078558876E-01 0.  0.
         14    1    1    2    0    0 -0.10035320438E-01 -0.67492359544E-02 -0.21346996495E-01  0.24534752936E-01  0.00000000000E+00 0. -1.
     999901    1    3    3    0    0  0.42437873881E-01 -0.41392380957E-01 -0.95747594590E-01  0.88717636590E+00  0.88000000000E+00 0.  1.
        -11    1    4    4    0    0 -0.19489724165E-01  0.42157838510E-01  0.80318945609E-01  0.92782147209E-01  0.51100000000E-03 0. -1.
         11    1    4    4    0    0 -0.12912829278E-01  0.59837784006E-02  0.36775645476E-01  0.39436733956E-01  0.51100000000E-03 0.  1.
</event>
<event>
 8    1  0.1030163E+005  0.1043930E+01  0.7957747E-01            NaN
         13   -1    0    0    0    0  0.00000000000E+00  0.00000000000E+00  0.74505805969E-08  0.10566000000E+00  0.10566000000E+00 0. -1.
     999900   -1    0    0    0    0 -0.00000000000E+00 -0.00000000000E+00 -0.74505805969E-08  0.93827000000E+00  0.93827000000E+00 0. -1.
     999902    2    1    2    0    0 -0.21416866063E-01  0.42374085800E-02 -0.98592877592E-02  0.10199749726E+01  0.10196936311E+01 0.  0.
     999903    2    3    3    0    0 -0.41907915038E-01 -0.11081945754E+00 -0.52721429884E-01  0.13121452749E+00  0.20011935054E-01 0.  0.
         14    1    1    2    0    0  0.21416866063E-01 -0.42374085800E-02  0.98592877592E-02  0.23955027417E-01  0.00000000000E+00 0. -1.
     999901    1    3    3    0    0  0.20491048975E-01  0.11505686612E+00  0.42862142125E-01  0.88876044509E+00  0.88000000000E+00 0.  1.
        -11    1    4    4    0    0  0.16348182774E-03 -0.17229301625E-01 -0.10974122812E-01  0.20434481967E-01  0.51100000000E-03 0.  1.
         11    1    4    4    0    0 -0.42071396866E-01 -0.93590155912E-01 -0.41747307072E-01  0.11078004553E+00  0.51100000000E-03 0. -1.
</event>
<event>
 8    1  0.1030163E+005  0.1043930E+01  0.7957747E-01            NaN
         13   -1    0    0    0    0  0.00000000000E+00  0.00000000000E+00  0.74505805969E-08  0.10566000000E+00  0.10566000000E+00 0.  1.
     999900   -1    0    0    0    0 -0.00000000000E+00 -0.00000000000E+00 -0.74505805969E-08  0.93827000000E+00  0.93827000000E+00 0.  1.
     999902    2    1    2    0    0 -0.42353883103E-02 -0.22478343014E-01 -0.43768802358E-02  0.10206411293E+01  0.10203753933E+01 0.  0.
     999903    2    3    3    0    0  0.53723188857E-01 -0.11600734696E+00 -0.32317869096E-01  0.13334886058E+00  0.19839062108E-01 0.  0.
         14    1    1    2    0    0  0.42353883103E-02  0.22478343014E-01  0.43768802358E-02  0.23288870719E-01  0.00000000000E+00 0.  1.
     999901    1    3    3    0    0 -0.57958577167E-01  0.93529003941E-01  0.27940988860E-01  0.88729226871E+00  0.88000000000E+00 0.  1.
        -11    1    4    4    0    0  0.36024934609E-01 -0.90500496818E-01 -0.17592655203E-01  0.98984334497E-01  0.51100000000E-03 0. -1.
         11    1    4    4    0    0  0.17698254248E-01 -0.25506850138E-01 -0.14725213893E-01  0.34364526078E-01  0.51100000000E-03 0.  1.
</event>
<event>
 8    1  0.1030163E+005  0.1043930E+01  0.7957747E-01            NaN
         13   -1    0    0    0    0  0.00000000000E+00  0.00000000000E+00  0.74505805969E-08  0.10566000000E+00  0.10566000000E+00 0. -1.
     999900   -1    0    0    0    0 -0.00000000000E+00 -0.00000000000E+00 -0.74505805969E-08  0.93827000000E+00  0.93827000000E+00 0. -1.
     999902    2    1    2    0    0 -0.10956696413E-01 -0.16883072643E-01 -0.87766893689E-02  0.10219728232E+01  0.10217369200E+01 0.  0.
     999903    2    3    3    0    0 -0.43352131285E-01  0.51710582980E-01  0.11014838145E+00  0.13073900073E+00  0.20165036473E-01 0.  0.
         14    1    1    2    0    0  0.10956696413E-01  0.16883072643E-01  0.87766893689E-02  0.21957176832E-01  0.00000000000E+00 0. -1.
     999901    1    3    3    0    0  0.32395434872E-01 -0.68593655624E-01 -0.11892507082E+00  0.89123382244E+00  0.88000000000E+00 0. -1.
        -11    1    4    4    0    0 -0.10316118685E-02  0.12438130226E-01  0.23551571534E-01  0.26659125066E-01  0.51100000000E-03 0.  1.
         11    1    4    4    0    0 -0.42320519416E-01  0.39272452755E-01  0.86596809917E-01  0.10407987566E+00  0.51100000000E-03 0. -1.
</event>
<event>
 8    1  0.1030163E+005  0.1043930E+01  0.7957747E-01            NaN
         13   -1    0    0    0    0  0.00000000000E+00  0.00000000000E+00  0.74505805969E-08  0.10566000000E+00  0.10566000000E+00 0. -1.
     999900   -1    0    0    0    0 -0.00000000000E+00 -0.00000000000E+00 -0.74505805969E-08  0.93827000000E+00  0.93827000000E+00 0.  1.
     999902    2    1    2    0    0 -0.14024302009E-01 -0.16763339329E-01 -0.14912908894E-01  0.10174708722E+01  0.10171267818E+01 0.  0.
     999903    2    3    3    0    0 -0.10450049289E-01 -0.12687340833E+00  0.17140050533E-01  0.13002262312E+00  0.20150333003E-01 0.  0.
         14    1    1    2    0    0  0.14024302009E-01  0.16763339329E-01  0.14912908894E-01  0.26459127801E-01  0.00000000000E+00 0. -1.
     999901    1    3    3    0    0 -0.35742527193E-02  0.11011006900E+00 -0.32052959427E-01  0.88744824907E+00  0.88000000000E+00 0. -1.
        -11    1    4    4    0    0 -0.15538485797E-01 -0.11162384533E+00  0.13274439487E-01  0.11348039149E+00  0.51100000000E-03 0.  1.
         11    1    4    4    0    0  0.50884365074E-02 -0.15249563000E-01  0.38656110453E-02  0.16542231637E-01  0.51100000000E-03 0. -1.
</event>
<event>
 8    1  0.1030163E+005  0.1043930E+01  0.7957747E-01            NaN
         13   -1    0    0    0    0  0.00000000000E+00  0.00000000000E+00  0.74505805969E-08  0.10566000000E+00  0.10566000000E+00 0. -1.
     999900   -1    0    0    0    0 -0.00000000000E+00 -0.00000000000E+00 -0.74505805969E-08  0.93827000000E+00  0.93827000000E+00 0. -1.
     999902    2    1    2    0    0  0.11552506098E-01 -0.43533420792E-02 -0.11043391935E-01  0.10273659277E+01  0.10272323890E+01 0.  0.
     999903    2    3    3    0    0 -0.33555110598E-01  0.11836714272E+00  0.52912107389E-01  0.13541003176E+00  0.19986487211E-01 0.  0.
         14    1    1    2    0    0 -0.11552506098E-01  0.43533420792E-02  0.11043391935E-01  0.16564072260E-01  0.00000000000E+00 0. -1.
     999901    1    3    3    0    0  0.45107616696E-01 -0.12272048480E+00 -0.63955499325E-01  0.89195589598E+00  0.88000000000E+00 0.  1.
        -11    1    4    4    0    0 -0.32204310063E-01  0.91367475001E-01  0.47244200785E-01  0.10778408372E+00  0.51100000000E-03 0.  1.
         11    1    4    4    0    0 -0.13508005351E-02  0.26999667719E-01  0.56679066040E-02  0.27625948043E-01  0.51100000000E-03 0. -1.
</event>
<event>
 8    1  0.1030163E+005  0.1043930E+01  0.7957747E-01            NaN
         13   -1    0    0    0    0  0.00000000000E+00  0.00000000000E+00  0.74505805969E-08  0.10566000000E+00  0.10566000000E+00 0.  1.
     999900   -1    0    0    0    0 -0.00000000000E+00 -0.00000000000E+00 -0.74505805969E-08  0.93827000000E+00  0.93827000000E+00 0. -1.
     999902    2    1    2    0    0  0.12573964423E-02  0.19642529418E-01  0.13308281736E-01  0.10201703626E+01  0.10198936456E+01 0.  0.
     999903    2    3    3    0    0 -0.30662215585E-02  0.13068175002E+00  0.18006134181E-01  0.13316953281E+00  0.17966137561E-01 0.  0.
         14    1    1    2    0    0 -0.12573964423E-02 -0.19642529418E-01 -0.13308281736E-01  0.23759637424E-01  0.00000000000E+00 0. -1.
     999901    1    3    3    0    0  0.43236180009E-02 -0.11103922060E+00 -0.46978524448E-02  0.88700082976E+00  0.88000000000E+00 0.  1.
        -11    1    4    4    0    0  0.28094124168E-03  0.26792832761E-01  0.11066053391E-01  0.28994024798E-01  0.51100000000E-03 0. -1.
         11    1    4    4    0    0 -0.33471628002E-02  0.10388891726E+00  0.69400807906E-02  0.10417550801E+00  0.51100000000E-03 0.  1.
</event>
<event>
 8    1  0.1030163E+005  0.1043930E+01  0.7957747E-01            NaN
         13   -1    0    0    0    0  0.00000000000E+00  0.00000000000E+00  0.74505805969E-08  0.10566000000E+00  0.10566000000E+00 0. -1.
     999900   -1    0    0    0    0 -0.00000000000E+00 -0.00000000000E+00 -0.74505805969E-08  0.93827000000E+00  0.93827000000E+00 0.  1.
     999902    2    1    2    0    0  0.10153848509E-01 -0.19858722996E-01  0.89933136780E-02  0.10198811079E+01  0.10195975309E+01 0.  0.
     999903    2    3    3    0    0 -0.15786943482E-01 -0.70234397512E-01 -0.10690165236E+00  0.13047553317E+00  0.20342155772E-01 0.  0.
         14    1    1    2    0    0 -0.10153848509E-01  0.19858722996E-01 -0.89933136780E-02  0.24048892064E-01  0.00000000000E+00 0. -1.
     999901    1    3    3    0    0  0.25940791991E-01  0.50375674516E-01  0.11589496603E+00  0.88940557477E+00  0.88000000000E+00 0. -1.
        -11    1    4    4    0    0 -0.14575438357E-01 -0.30489239773E-01 -0.37460724290E-01  0.50453980324E-01  0.51100000000E-03 0. -1.
         11    1    4    4    0    0 -0.12115051257E-02 -0.39745157739E-01 -0.69440928066E-01  0.80021552847E-01  0.51100000000E-03 0.  1.
</event>
<event>
 8    1  0.1030163E+005  0.1043930E+01  0.7957747E-01            NaN
         13   -1    0    0    0    0  0.00000000000E+00  0.00000000000E+00  0.74505805969E-08  0.10566000000E+00  0.10566000000E+00 0. -1.
     999900   -1    0    0    0    0 -0.00000000000E+00 -0.00000000000E+00 -0.74505805969E-08  0.93827000000E+00  0.93827000000E+00 0. -1.
     999902    2    1    2    0    0 -0.15599934401E-03  0.21805967377E-01 -0.44571161150E-02  0.10216726319E+01  0.10214301623E+01 0.  0.
     999903    2    3    3    0    0 -0.71574001834E-01  0.95310926531E-01  0.57014084631E-01  0.13359480955E+00  0.19747324797E-01 0.  0.
         14    1    1    2    0    0  0.15599934401E-03 -0.21805967377E-01  0.44571161150E-02  0.22257368063E-01  0.00000000000E+00 0. -1.
     999901    1    3    3    0    0  0.71418002490E-01 -0.73504959154E-01 -0.61471200746E-01  0.88807782239E+00  0.88000000000E+00 0. -1.
        -11    1    4    4    0    0 -0.47984345073E-01  0.56077624500E-01  0.44296748025E-01  0.86079383991E-01  0.51100000000E-03 0. -1.
         11    1    4    4    0    0 -0.23589656761E-01  0.39233302031E-01  0.12717336606E-01  0.47515425555E-01  0.51100000000E-03 0.  1.
</event>
<event>
 8    1  0.1030163E+005  0.1043930E+01  0.7957747E-01            NaN
         13   -1    0    0    0    0  0.00000000000E+00  0.00000000000E+00  0.74505805969E-08  0.10566000000E+00  0.10566000000E+00 0.  1.
     999900   -1    0    0    0    0 -0.00000000000E+00 -0.00000000000E+00 -0.74505805969E-08  0.93827000000E+00  0.93827000000E+00 0.  1.
     999902    2    1    2    0    0  0.17712182126E-01  0.18844329552E-02 -0.16240162882E-01  0.10198257395E+01  0.10195408396E+01 0.  0.
     999903    2    3    3    0    0 -0.40972249802E-01 -0.12049627606E+00 -0.11370787374E-01  0.12940751682E+00  0.20467848102E-01 0.  0.
         14    1    1    2    0    0 -0.17712182126E-01 -0.18844329552E-02  0.16240162882E-01  0.24104260488E-01  0.00000000000E+00 0.  1.
     999901    1    3    3    0    0  0.58684431928E-01  0.12238070901E+00 -0.48693755080E-02  0.89041822269E+00  0.88000000000E+00 0.  1.
        -11    1    4    4    0    0 -0.10647903218E-01 -0.49917974046E-01 -0.12612589391E-01  0.52578707743E-01  0.51100000000E-03 0.  1.
         11    1    4    4    0    0 -0.30324346584E-01 -0.70578302011E-01  0.12418020174E-02  0.76828809074E-01  0.51100000000E-03 0. -1.
</event>
<event>
 8    1  0.1030163E+005  0.1043930E+01  0.7957747E-01            NaN
         13   -1    0    0    0    0  0.00000000000E+00  0.00000000000E+00  0.74505805969E-08  0.10566000000E+00  0.10566000000E+00 0. -1.
     999900   -1    0    0    0    0 -0.00000000000E+00 -0.00000000000E+00 -0.74505805969E-08  0.93827000000E+00  0.93827000000E+00 0. -1.
     999902    2    1    2    0    0 -0.73569896917E-02 -0.12674993164E-01  0.11347380616E-01  0.10253950655E+01  0.10252275341E+01 0.  0.
     999903    2    3    3    0    0 -0.74346154630E-01  0.28748455658E-01  0.10897752425E+00  0.13649963001E+00  0.20055517755E-01 0.  0.
         14    1    1    2    0    0  0.73569896917E-02  0.12674993164E-01 -0.11347380616E-01  0.18534934472E-01  0.00000000000E+00 0.  1.
     999901    1    3    3    0    0  0.66989164938E-01 -0.41423448822E-01 -0.97630143630E-01  0.88889543551E+00  0.88000000000E+00 0.  1.
        -11    1    4    4    0    0 -0.32143337046E-01  0.11681080665E-01  0.63639443257E-01  0.72248748231E-01  0.51100000000E-03 0.  1.
         11    1    4    4    0    0 -0.42202817584E-01  0.17067374993E-01  0.45338080989E-01  0.64250881784E-01  0.51100000000E-03 0. -1.
</event>
<event>
 8    1  0.1030163E+005  0.1043930E+01  0.7957747E-01            NaN
         13   -1    0    0    0    0  0.00000000000E+00  0.00000000000E+00  0.74505805969E-08  0.10566000000E+00  0.10566000000E+00 0.  1.
     999900   -1    0    0    0    0 -0.00000000000E+00 -0.00000000000E+00 -0.74505805969E-08  0.93827000000E+00  0.93827000000E+00 0.  1.
     999902    2    1    2    0    0  0.10146238658E-01  0.19923410697E-01 -0.51872203559E-02  0.10209779694E+01  0.10207199510E+01 0.  0.
     999903    2    3    3    0    0 -0.44165673568E-01  0.10467962167E+00 -0.66293761232E-01  0.13313372157E+00  0.20525475059E-01 0.  0.
         14    1    1    2    0    0 -0.10146238658E-01 -0.19923410697E-01  0.51872203559E-02  0.22952030579E-01  0.00000000000E+00 0. -1.
     999901    1    3    3    0    0  0.54311912226E-01 -0.84756210970E-01  0.61106540876E-01  0.88784424785E+00  0.88000000000E+00 0. -1.
        -11    1    4    4    0    0 -0.22551582580E-01  0.76017780171E-01 -0.49704400759E-01  0.93584535874E-01  0.51100000000E-03 0.  1.
         11    1    4    4    0    0 -0.21614090988E-01  0.28661841495E-01 -0.16589360473E-01  0.39549185694E-01  0.51100000000E-03 0. -1.
</event>
<event>
 8    1  0.1030163E+005  0.1043930E+01  0.7957747E-01            NaN
         13   -1    0    0    0    0  0.00000000000E+00  0.00000000000E+00  0.74505805969E-08  0.10566000000E+00  0.10566000000E+00 0. -1.
     999900   -1    0    0    0    0 -0.00000000000E+00 -0.00000000000E+00 -0.74505805969E-08  0.93827000000E+00  0.93827000000E+00 0. -1.
     999902    2    1    2    0    0  0.14244922119E-01  0.13240902414E-01  0.82013953618E-02  0.10228230772E+01  0.10226052734E+01 0.  0.
     999903    2    3    3    0    0 -0.61748807379E-01  0.89974785925E-01 -0.72493657924E-01  0.13255636021E+00  0.20186155632E-01 0.  0.
         14    1    1    2    0    0 -0.14244922119E-01 -0.13240902414E-01 -0.82013953618E-02  0.21106922770E-01  0.00000000000E+00 0.  1.
     999901    1    3    3    0    0  0.75993729498E-01 -0.76733883511E-01  0.80695053285E-01  0.89026671702E+00  0.88000000000E+00 0.  1.
        -11    1    4    4    0    0 -0.37646830747E-01  0.62512325402E-01 -0.58109501741E-01  0.93284779070E-01  0.51100000000E-03 0.  1.
         11    1    4    4    0    0 -0.24101976632E-01  0.27462460523E-01 -0.14384156182E-01  0.39271581144E-01  0.51100000000E-03 0. -1.
</event>
<event>
 8    1  0.1030163E+005  0.1043930E+01  0.7957747E-01            NaN
         13   -1    0    0    0    0  0.00000000000E+00  0.00000000000E+00  0.74505805969E-08  0.10566000000E+00  0.10566000000E+00 0.  1.
     999900   -1    0    0    0    0 -0.00000000000E+00 -0.00000000000E+00 -0.74505805969E-08  0.93827000000E+00  0.93827000000E+00 0. -1.
     999902    2    1    2    0    0  0.10356552317E-01 -0.49808834921E-02 -0.20125716131E-01  0.10207543268E+01  0.10204911974E+01 0.  0.
     999903    2    3    3    0    0 -0.43851065263E-01  0.12011252052E+00 -0.14968462116E-01  0.13024131583E+00  0.19718315817E-01 0.  0.
         14    1    1    2    0    0 -0.10356552317E-01  0.49808834921E-02  0.20125716131E-01  0.23175673152E-01  0.00000000000E+00 0.  1.
     999901    1    3    3    0    0  0.54207617580E-01 -0.12509340402E+00 -0.51572540151E-02  0.89051301102E+00  0.88000000000E+00 0. -1.
        -11    1    4    4    0    0 -0.27076361316E-01  0.74207280670E-01  0.43235030863E-03  0.78995556168E-01  0.51100000000E-03 0. -1.
         11    1    4    4    0    0 -0.16774703948E-01  0.45905239853E-01 -0.15400812425E-01  0.51245759657E-01  0.51100000000E-03 0.  1.
</event>
<event>
 8    1  0.1030163E+005  0.1043930E+01  0.7957747E-01            NaN
         13   -1    0    0    0    0  0.00000000000E+00  0.00000000000E+00  0.74505805969E-08  0.10566000000E+00  0.10566000000E+00 0. -1.
     999900   -1    0    0    0    0 -0.00000000000E+00 -0.00000000000E+00 -0.74505805969E-08  0.93827000000E+00  0.93827000000E+00 0. -1.
     999902    2    1    2    0    0 -0.50762880665E-02 -0.47663688072E-02  0.22072477698E-01  0.10207852113E+01  0.10205227907E+01 0.  0.
     999903    2    3    3    0    0 -0.11505090270E+00  0.40659426053E-01  0.46287498551E-01  0.13244727676E+00  0.22579846340E-01 0.  0.
         14    1    1    2    0    0  0.50762880665E-02  0.47663688072E-02 -0.22072477698E-01  0.23144788698E-01  0.00000000000E+00 0.  1.
     999901    1    3    3    0    0  0.10997461464E+00 -0.45425794860E-01 -0.24215020853E-01  0.88833793454E+00  0.88000000000E+00 0. -1.
        -11    1    4    4    0    0 -0.33774570253E-01  0.21880859577E-02  0.16976162557E-01  0.37867671332E-01  0.51100000000E-03 0.  1.
         11    1    4    4    0    0 -0.81276332449E-01  0.38471340095E-01  0.29311335994E-01  0.94579605433E-01  0.51100000000E-03 0. -1.
</event>
<event>
 8    1  0.1030163E+005  0.1043930E+01  0.7957747E-01            NaN
         13   -1    0    0    0    0  0.00000000000E+00  0.00000000000E+00  0.74505805969E-08  0.10566000000E+00  0.10566000000E+00 0.  1.
     999900   -1    0    0    0    0 -0.00000000000E+00 -0.00000000000E+00 -0.74505805969E-08  0.93827000000E+00  0.93827000000E+00 0.  1.
     999902    2    1    2    0    0  0.25171033142E-02  0.22616623085E-01 -0.64897719063E-02  0.10202664291E+01  0.10199919714E+01 0.  0.
     999903    2    3    3    0    0  0.77896744893E-01 -0.57786607933E-01 -0.84158901231E-01  0.12999722061E+00  0.20232691063E-01 0.  0.
         14    1    1    2    0    0 -0.25171033142E-02 -0.22616623085E-01  0.64897719063E-02  0.23663570911E-01  0.00000000000E+00 0. -1.
     999901    1    3    3    0    0 -0.75379641578E-01  0.80403231018E-01  0.77669129325E-01  0.89026920848E+00  0.88000000000E+00 0.  1.
        -11    1    4    4    0    0  0.28382147125E-01 -0.27112187340E-01 -0.22807373706E-01  0.45398836925E-01  0.51100000000E-03 0. -1.
         11    1    4    4    0    0  0.49514597768E-01 -0.30674420593E-01 -0.61351527525E-01  0.84598383682E-01  0.51100000000E-03 0.  1.
</event>
<event>
 8    1  0.1030163E+005  0.1043930E+01  0.7957747E-01            NaN
         13   -1    0    0    0    0  0.00000000000E+00  0.00000000000E+00  0.74505805969E-08  0.10566000000E+00  0.10566000000E+00 0. -1.
     999900   -1    0    0    0    0 -0.00000000000E+00 -0.00000000000E+00 -0.74505805969E-08  0.93827000000E+00  0.93827000000E+00 0. -1.
     999902    2    1    2    0    0 -0.23232355858E-01 -0.62428051626E-02  0.86958787501E-02  0.10183500609E+01  0.10180287390E+01 0.  0.
     999903    2    3    3    0    0 -0.13261930282E-01  0.77498621573E-01  0.10094552670E+00  0.12951822449E+00  0.20076253980E-01 0.  0.
         14    1    1    2    0    0  0.23232355858E-01  0.62428051626E-02 -0.86958787501E-02  0.25579939058E-01  0.00000000000E+00 0. -1.
     999901    1    3    3    0    0 -0.99704255756E-02 -0.83741426736E-01 -0.92249647953E-01  0.88883183645E+00  0.88000000000E+00 0. -1.
        -11    1    4    4    0    0  0.76209529978E-03  0.22357504545E-01  0.42013761978E-01  0.47601009603E-01  0.51100000000E-03 0. -1.
         11    1    4    4    0    0 -0.14024025582E-01  0.55141117028E-01  0.58931764725E-01  0.81917214889E-01  0.51100000000E-03 0.  1.
</event>
<event>
 8    1  0.1030163E+005  0.1043930E+01  0.7957747E-01            NaN
         13   -1    0    0    0    0  0.00000000000E+00  0.00000000000E+00  0.74505805969E-08  0.10566000000E+00  0.10566000000E+00 0. -1.
     999900   -1    0    0    0    0 -0.00000000000E+00 -0.00000000000E+00 -0.74505805969E-08  0.93827000000E+00  0.93827000000E+00 0. -1.
     999902    2    1    2    0    0  0.18835353368E-01  0.13915318698E-01  0.15287801134E-04  0.10205119116E+01  0.10202431842E+01 0.  0.
     999903    2    3    3    0    0  0.14131465951E-01  0.12839988899E+00  0.22933320382E-01  0.13278781053E+00  0.20504526770E-01 0.  0.
         14    1    1    2    0    0 -0.18835353368E-01 -0.13915318698E-01 -0.15287801134E-04  0.23418088408E-01  0.00000000000E+00 0. -1.
     999901    1    3    3    0    0  0.47038874165E-02 -0.11448457029E+00 -0.22918032581E-01  0.88772410106E+00  0.88000000000E+00 0. -1.
        -11    1    4    4    0    0  0.14557065792E-01  0.43400254469E-01  0.72128589797E-02  0.46344111904E-01  0.51100000000E-03 0.  1.
         11    1    4    4    0    0 -0.42559984087E-03  0.84999634522E-01  0.15720461403E-01  0.86443698625E-01  0.51100000000E-03 0. -1.
</event>
<event>
 8    1  0.1030163E+005  0.1043930E+01  0.7957747E-01            NaN
         13   -1    0    0    0    0  0.00000000000E+00  0.00000000000E+00  0.74505805969E-08  0.10566000000E+00  0.10566000000E+00 0. -1.
     999900   -1    0    0    0    0 -0.00000000000E+00 -0.00000000000E+00 -0.74505805969E-08  0.93827000000E+00  0.93827000000E+00 0.  1.
     999902    2    1    2    0    0 -0.14158967941E-01  0.13043324019E-01  0.10882027773E-01  0.10218161310E+01  0.10215768118E+01 0.  0.
     999903    2    3    3    0    0 -0.12340136799E+00 -0.45301954619E-01  0.69264623266E-02  0.13313524337E+00  0.19921155363E-01 0.  0.
         14    1    1    2    0    0  0.14158967941E-01 -0.13043324019E-01 -0.10882027773E-01  0.22113869021E-01  0.00000000000E+00 0. -1.
     999901    1    3    3    0    0  0.10924240005E+00  0.58345278639E-01  0.39555654461E-02  0.88868088761E+00  0.88000000000E+00 0. -1.
        -11    1    4    4    0    0 -0.49973631753E-01 -0.14856644732E-01 -0.64204448600E-02  0.52531580944E-01  0.51100000000E-03 0.  1.
         11    1    4    4    0    0 -0.73427736241E-01 -0.30445309887E-01  0.13346907187E-01  0.80603662423E-01  0.51100000000E-03 0. -1.
</event>
<event>
 8    1  0.1030163E+005  0.1043930E+01  0.7957747E-01            NaN
         13   -1    0    0    0    0  0.00000000000E+00  0.00000000000E+00  0.74505805969E-08  0.10566000000E+00  0.10566000000E+00 0. -1.
     999900   -1    0    0    0    0 -0.00000000000E+00 -0.00000000000E+00 -0.74505805969E-08  0.93827000000E+00  0.93827000000E+00 0. -1.
     999902    2    1    2    0    0  0.13590899304E-01 -0.47766675551E-02 -0.18533006751E-01  0.10204565802E+01  0.10201865666E+01 0.  0.
     999903    2    3    3    0    0 -0.10553499568E+00  0.56203767076E-01 -0.47095710425E-01  0.12988068772E+00  0.18827861180E-01 0.  0.
         14    1    1    2    0    0 -0.13590899304E-01  0.47766675551E-02  0.18533006751E-01  0.23473419777E-01  0.00000000000E+00 0. -1.
     999901    1    3    3    0    0  0.11912589498E+00 -0.60980434632E-01  0.28562703674E-01  0.89057589250E+00  0.88000000000E+00 0.  1.
        -11    1    4    4    0    0 -0.67570623323E-01  0.37144484211E-01 -0.20602405278E-01  0.79813670933E-01  0.51100000000E-03 0.  1.
         11    1    4    4    0    0 -0.37964372354E-01  0.19059282865E-01 -0.26493305146E-01  0.50067016789E-01  0.51100000000E-03 0. -1.
</event>
<event>
 8    1  0.1030163E+005  0.1043930E+01  0.7957747E-01            NaN
         13   -1    0    0    0    0  0.00000000000E+00  0.00000000000E+00  0.74505805969E-08  0.10566000000E+00  0.10566000000E+00 0. -1.
     999900   -1    0    0    0    0 -0.00000000000E+00 -0.00000000000E+00 -0.74505805969E-08  0.93827000000E+00  0.93827000000E+00 0. -1.
     999902    2    1    2    0    0 -0.48284406188E-03  0.11305226185E-01  0.21543904630E-01  0.10195952285E+01  0.10193047870E+01 0.  0.
     999903    2    3    3    0    0  0.50854532542E-01  0.72646937176E-01 -0.91154182551E-01  0.12880951319E+00  0.20470582061E-01 0.  0.
         14    1    1    2    0    0  0.48284406188E-03 -0.11305226185E-01 -0.21543904630E-01  0.24334771504E-01  0.00000000000E+00 0.  1.
     999901    1    3    3    0    0 -0.51337376603E-01 -0.61341710991E-01  0.11269808718E+00  0.89078571531E+00  0.88000000000E+00 0.  1.
        -11    1    4    4    0    0  0.35680969629E-01  0.33241611051E-01 -0.47798718345E-01  0.68287003854E-01  0.51100000000E-03 0. -1.
         11    1    4    4    0    0  0.15173562913E-01  0.39405326124E-01 -0.43355464206E-01  0.60522509333E-01  0.51100000000E-03 0.  1.
</event>
<event>
 8    1  0.1030163E+005  0.1043930E+01  0.7957747E-01            NaN
         13   -1    0    0    0    0  0.00000000000E+00  0.00000000000E+00  0.74505805969E-08  0.10566000000E+00  0.10566000000E+00 0.  1.
     999900   -1    0    0    0    0 -0.00000000000E+00 -0.00000000000E+00 -0.74505805969E-08  0.93827000000E+00  0.93827000000E+00 0. -1.
     999902    2    1    2    0    0 -0.12660309775E-01 -0.19606674879E-01 -0.65374355698E-02  0.10196927723E+01  0.10194046825E+01 0.  0.
     999903    2    3    3    0    0 -0.20065516842E-01  0.37438187402E-01  0.11999585067E+00  0.12878333473E+00  0.19542269118E-01 0.  0.
         14    1    1    2    0    0  0.12660309775E-01  0.19606674879E-01  0.65374355698E-02  0.24237227714E-01  0.00000000000E+00 0.  1.
     999901    1    3    3    0    0  0.74052070671E-02 -0.57044862281E-01 -0.12653328624E+00  0.89090943756E+00  0.88000000000E+00 0. -1.
        -11    1    4    4    0    0 -0.91471884720E-02  0.22860021387E-01  0.93060068631E-01  0.96263643861E-01  0.51100000000E-03 0.  1.
         11    1    4    4    0    0 -0.10918328370E-01  0.14578166014E-01  0.26935782043E-01  0.32519690866E-01  0.51100000000E-03 0. -1.
</event>
<event>
 8    1  0.1030163E+005  0.1043930E+01  0.7957747E-01            NaN
         13   -1    0    0    0    0  0.00000000000E+00  0.00000000000E+00  0.74505805969E-08  0.10566000000E+00  0.10566000000E+00 0. -1.
     999900   -1    0    0    0    0 -0.00000000000E+00 -0.00000000000E+00 -0.74505805969E-08  0.93827000000E+00  0.93827000000E+00 0. -1.
     999902    2    1    2    0    0 -0.50017961616E-02 -0.22057463069E-01  0.68326645523E-02  0.10203030039E+01  0.10200294039E+01 0.  0.
     999903    2    3    3    0    0 -0.11435291837E+00 -0.15978754812E-01  0.60470020121E-01  0.13189342234E+00  0.20182690046E-01 0.  0.
         14    1    1    2    0    0  0.50017961616E-02  0.22057463069E-01 -0.68326645523E-02  0.23626996143E-01  0.00000000000E+00 0.  1.
     999901    1    3    3    0    0  0.10935112221E+00 -0.60787082564E-02 -0.53637355569E-01  0.88840958152E+00  0.88000000000E+00 0. -1.
        -11    1    4    4    0    0 -0.39564185115E-01  0.17826445665E-02  0.13686000911E-01  0.41905492568E-01  0.51100000000E-03 0.  1.
         11    1    4    4    0    0 -0.74788733255E-01 -0.17761399379E-01  0.46784019210E-01  0.89987929769E-01  0.51100000000E-03 0. -1.
</event>
<event>
 8    1  0.1030163E+005  0.1043930E+01  0.7957747E-01            NaN
         13   -1    0    0    0    0  0.00000000000E+00  0.00000000000E+00  0.74505805969E-08  0.10566000000E+00  0.10566000000E+00 0.  1.
     999900   -1    0    0    0    0 -0.00000000000E+00 -0.00000000000E+00 -0.74505805969E-08  0.93827000000E+00  0.93827000000E+00 0. -1.
     999902    2    1    2    0    0 -0.16106447734E-01 -0.91032820791E-02  0.15686612145E-01  0.10196739244E+01  0.10193853809E+01 0.  0.
     999903    2    3    3    0    0 -0.63383387822E-01  0.34964137952E-01 -0.10625135727E+00  0.12891811332E+00  0.95175745465E-02 0.  0.
         14    1    1    2    0    0  0.16106447734E-01  0.91032820791E-02 -0.15686612145E-01  0.24256075607E-01  0.00000000000E+00 0. -1.
     999901    1    3    3    0    0  0.47276940088E-01 -0.44067420032E-01  0.12193796942E+00  0.89075581107E+00  0.88000000000E+00 0.  1.
        -11    1    4    4    0    0 -0.38136652378E-01  0.20848281642E-01 -0.55434480081E-01  0.70443578877E-01  0.51100000000E-03 0. -1.
         11    1    4    4    0    0 -0.25246735444E-01  0.14115856310E-01 -0.50816877192E-01  0.58474534445E-01  0.51100000000E-03 0.  1.
</event>
<event>
 8    1  0.1030163E+005  0.1043930E+01  0.7957747E-01            NaN
         13   -1    0    0    0    0  0.00000000000E+00  0.00000000000E+00  0.74505805969E-08  0.10566000000E+00  0.10566000000E+00 0. -1.
     999900   -1    0    0    0    0 -0.00000000000E+00 -0.00000000000E+00 -0.74505805969E-08  0.93827000000E+00  0.93827000000E+00 0. -1.
     999902    2    1    2    0    0  0.11935443274E-01 -0.89493802304E-02  0.20476064355E-01  0.10185959237E+01  0.10182808258E+01 0.  0.
     999903    2    3    3    0    0 -0.19279479152E-01  0.12470849359E+00  0.49158325106E-02  0.12782046405E+00  0.19748390619E-01 0.  0.
         14    1    1    2    0    0 -0.11935443274E-01  0.89493802304E-02 -0.20476064355E-01  0.25334076343E-01  0.00000000000E+00 0.  1.
     999901    1    3    3    0    0  0.31214922426E-01 -0.13365787382E+00  0.15560231844E-01  0.89077545960E+00  0.88000000000E+00 0. -1.
        -11    1    4    4    0    0 -0.73789782529E-03  0.22192077924E-01 -0.61701708827E-02  0.23051354526E-01  0.51100000000E-03 0.  1.
         11    1    4    4    0    0 -0.18541581327E-01  0.10251641567E+00  0.11086003393E-01  0.10476910953E+00  0.51100000000E-03 0. -1.
</event>
<event>
 8    1  0.1030163E+005  0.1043930E+01  0.7957747E-01            NaN
         13   -1    0    0    0    0  0.00000000000E+00  0.00000000000E+00  0.74505805969E-08  0.10566000000E+00  0.10566000000E+00 0. -1.
     999900   -1    0    0    0    0 -0.00000000000E+00 -0.00000000000E+00 -0.74505805969E-08  0.93827000000E+00  0.93827000000E+00 0.  1.
     999902    2    1    2    0    0 -0.71790964597E-02 -0.90944052258E-02  0.17672282935E-01  0.10227980996E+01  0.10225797745E+01 0.  0.
     999903    2    3    3    0    0 -0.12287446260E+00  0.40332542083E-01 -0.24174317562E-01  0.13286575446E+00  0.18548950576E-01 0.  0.
         14    1    1    2    0    0  0.71790964597E-02  0.90944052258E-02 -0.17672282935E-01  0.21131900448E-01  0.00000000000E+00 0.  1.
     999901    1    3    3    0    0  0.11569536614E+00 -0.49426947309E-01  0.41846600498E-01  0.88993234509E+00  0.88000000000E+00 0. -1.
        -11    1    4    4    0    0 -0.58753179569E-01  0.22926523826E-01 -0.20509993551E-01  0.66321056691E-01  0.51100000000E-03 0.  1.
         11    1    4    4    0    0 -0.64121283036E-01  0.17406018257E-01 -0.36643240113E-02  0.66544697769E-01  0.51100000000E-03 0. -1.
</event>
<event>
 8    1  0.1030163E+005  0.1043930E+01  0.7957747E-01            NaN
         13   -1    0    0    0    0  0.00000000000E+00  0.00000000000E+00  0.74505805969E-08  0.10566000000E+00  0.10566000000E+00 0. -1.
     999900   -1    0    0    0    0 -0.00000000000E+00 -0.00000000000E+00 -0.74505805969E-08  0.93827000000E+00  0.93827000000E+00 0. -1.
     999902    2    1    2    0    0 -0.75896112267E-02 -0.20348791191E-01 -0.87618450735E-02  0.10205110882E+01  0.10202423416E+01 0.  0.
     999903    2    3    3    0    0 -0.29024507635E-01  0.32584156241E-01  0.12012069224E+00  0.12929166507E+00  0.19575614196E-01 0.  0.
         14    1    1    2    0    0  0.75896112267E-02  0.20348791191E-01  0.87618450735E-02  0.23418911815E-01  0.00000000000E+00 0. -1.
     999901    1    3    3    0    0  0.21434896408E-01 -0.52932947432E-01 -0.12888253732E+00  0.89121942311E+00  0.88000000000E+00 0. -1.
        -11    1    4    4    0    0 -0.25934558178E-01  0.22327411284E-01  0.10702999537E+00  0.11236901545E+00  0.51100000000E-03 0. -1.
         11    1    4    4    0    0 -0.30899494569E-02  0.10256744957E-01  0.13090696870E-01  0.16922649624E-01  0.51100000000E-03 0.  1.
</event>
<event>
 8    1  0.1030163E+005  0.1043930E+01  0.7957747E-01            NaN
         13   -1    0    0    0    0  0.00000000000E+00  0.00000000000E+00  0.74505805969E-08  0.10566000000E+00  0.10566000000E+00 0.  1.
     999900   -1    0    0    0    0 -0.00000000000E+00 -0.00000000000E+00 -0.74505805969E-08  0.93827000000E+00  0.93827000000E+00 0.  1.
     999902    2    1    2    0    0  0.74617427475E-02  0.12570389160E-01 -0.17897300347E-01  0.10208214378E+01  0.10205598474E+01 0.  0.
     999903    2    3    3    0    0 -0.33550448446E-01  0.12740415276E-01 -0.12718118320E+00  0.13311371798E+00  0.16008053639E-01 0.  0.
         14    1    1    2    0    0 -0.74617427475E-02 -0.12570389160E-01  0.17897300347E-01  0.23108562227E-01  0.00000000000E+00 0.  1.
     999901    1    3    3    0    0  0.41012191194E-01 -0.17002611559E-03  0.10928388285E+00  0.88770771980E+00  0.88000000000E+00 0. -1.
        -11    1    4    4    0    0 -0.20953680567E-01  0.14638785218E-01 -0.69839860345E-01  0.74372158608E-01  0.51100000000E-03 0. -1.
         11    1    4    4    0    0 -0.12596767879E-01 -0.18983699420E-02 -0.57341322854E-01  0.58741559369E-01  0.51100000000E-03 0.  1.
</event>
<event>
 8    1  0.1030163E+005  0.1043930E+01  0.7957747E-01            NaN
         13   -1    0    0    0    0  0.00000000000E+00  0.00000000000E+00  0.74505805969E-08  0.10566000000E+00  0.10566000000E+00 0.  1.
     999900   -1    0    0    0    0 -0.00000000000E+00 -0.00000000000E+00 -0.74505805969E-08  0.93827000000E+00  0.93827000000E+00 0. -1.
     999902    2    1    2    0    0  0.21543409246E-01  0.56356454301E-02 -0.87964946860E-02  0.10199872078E+01  0.10197061570E+01 0.  0.
     999903    2    3    3    0    0  0.34840714429E-01 -0.11804066581E+00  0.38540626610E-01  0.12997965086E+00  0.16181952084E-01 0.  0.
         14    1    1    2    0    0 -0.21543409246E-01 -0.56356454301E-02  0.87964946860E-02  0.23942792237E-01  0.00000000000E+00 0.  1.
     999901    1    3    3    0    0 -0.13297305183E-01  0.12367631124E+00 -0.47337121296E-01  0.89000755690E+00  0.88000000000E+00 0. -1.
        -11    1    4    4    0    0  0.48663347804E-02 -0.39161032429E-01  0.16412104637E-01  0.42742086691E-01  0.51100000000E-03 0.  1.
         11    1    4    4    0    0  0.29974379648E-01 -0.78879633377E-01  0.22128521973E-01  0.87237564172E-01  0.51100000000E-03 0. -1.
</event>
<event>
 8    1  0.1030163E+005  0.1043930E+01  0.7957747E-01            NaN
         13   -1    0    0    0    0  0.00000000000E+00  0.00000000000E+00  0.74505805969E-08  0.10566000000E+00  0.10566000000E+00 0. -1.
     999900   -1    0    0    0    0 -0.00000000000E+00 -0.00000000000E+00 -0.74505805969E-08  0.93827000000E+00  0.93827000000E+00 0. -1.
     999902    2    1    2    0    0  0.14118910485E-01  0.10027530616E-01  0.15520428416E-01  0.10206753510E+01  0.10204104044E+01 0.  0.
     999903    2    3    3    0    0  0.70869319251E-01 -0.33205338361E-01  0.10597977698E+00  0.13316614899E+00  0.19402453448E-01 0.  0.
         14    1    1    2    0    0 -0.14118910485E-01 -0.10027530616E-01 -0.15520428416E-01  0.23254649035E-01  0.00000000000E+00 0. -1.
     999901    1    3    3    0    0 -0.56750408766E-01  0.43232868977E-01 -0.90459348566E-01  0.88750920198E+00  0.88000000000E+00 0. -1.
        -11    1    4    4    0    0  0.17888990512E-01 -0.35753163707E-04  0.19599754509E-01  0.26541076799E-01  0.51100000000E-03 0.  1.
         11    1    4    4    0    0  0.52980328739E-01 -0.33169585198E-01  0.86380022472E-01  0.10662507219E+00  0.51100000000E-03 0. -1.
</event>
<event>
 8    1  0.1030163E+005  0.1043930E+01  0.7957747E-01            NaN
         13   -1    0    0    0    0  0.00000000000E+00  0.00000000000E+00  0.74505805969E-08  0.10566000000E+00  0.10566000000E+00 0.  1.
     999900   -1    0    0    0    0 -0.00000000000E+00 -0.00000000000E+00 -0.74505805969E-08  0.93827000000E+00  0.93827000000E+00 0.  1.
     999902    2    1    2    0    0 -0.21825187103E-01  0.78187014685E-02 -0.59111247262E-02  0.10200048609E+01  0.10197242294E+01 0.  0.
     999903    2    3    3    0    0  0.20089141253E-01 -0.70217429510E-01  0.10406787492E+00  0.12874629629E+00  0.20283619345E-01 0.  0.
         14    1    1    2    0    0  0.21825187103E-01 -0.78187014685E-02  0.59111247262E-02  0.23925139086E-01  0.00000000000E+00 0. -1.
     999901    1    3    3    0    0 -0.41914328357E-01  0.78036130979E-01 -0.10997899965E+00  0.89125856463E+00  0.88000000000E+00 0.  1.
        -11    1    4    4    0    0  0.13694386958E-01 -0.33569899988E-01  0.35551551019E-01  0.50780393069E-01  0.51100000000E-03 0.  1.
         11    1    4    4    0    0  0.63947542950E-02 -0.36647529522E-01  0.68516323901E-01  0.77965903217E-01  0.51100000000E-03 0. -1.
</event>
<event>
 7    1  0.1030163E+005  0.1043930E+01  0.7957747E-01            NaN
         13   -1    0    0    0    0  0.00000000000E+00  0.00000000000E+00  0.74505805969E-08  0.10566000000E+00  0.10566000000E+00 0. -1.
     999900   -1    0    0    0    0 -0.00000000000E+00 -0.00000000000E+00 -0.74505805969E-08  0.93827000000E+00  0.93827000000E+00 0. -1.
     999903    2    1    2    0    0 -0.63011502895E-01 -0.94175173538E-01 -0.34492918749E-01  0.12009938589E+00  0.19866762183E-01 0.  0.
         14    1    1    2    0    0  0.12280878168E-01  0.33580312223E-01 -0.15290699780E-01  0.38887823767E-01  0.00000000000E+00 0.  1.
     999901    1    1    2    0    0  0.50730624727E-01  0.60594861315E-01  0.49783618528E-01  0.88494279034E+00  0.88000000000E+00 0.  1.
        -11    1    3    3    0    0 -0.51853467063E-01 -0.80735105523E-01 -0.36166623113E-01  0.10254377143E+00  0.51100000000E-03 0.  1.
         11    1    3    3    0    0 -0.11158035832E-01 -0.13440068015E-01  0.16737043648E-02  0.17555614463E-01  0.51100000000E-03 0. -1.
</event>
<event>
 8    1  0.1030163E+005  0.1043930E+01  0.7957747E-01            NaN
         13   -1    0    0    0    0  0.00000000000E+00  0.00000000000E+00  0.74505805969E-08  0.10566000000E+00  0.10566000000E+00 0.  1.
     999900   -1    0    0    0    0 -0.00000000000E+00 -0.00000000000E+00 -0.74505805969E-08  0.93827000000E+00  0.93827000000E+00 0.  1.
     999902    2    1    2    0    0  0.23924131723E-01  0.71086447208E-02 -0.58969204900E-02  0.10182849112E+01  0.10179619294E+01 0.  0.
     999903    2    3    3    0    0 -0.28018295096E-01 -0.69256759166E-01  0.10067931415E+00  0.12705644194E+00  0.20627447533E-01 0.  0.
         14    1    1    2    0    0 -0.23924131723E-01 -0.71086447208E-02  0.58969204900E-02  0.25645088804E-01  0.00000000000E+00 0.  1.
     999901    1    3    3    0    0  0.51942426820E-01  0.76365403887E-01 -0.10657623464E+00  0.89122846925E+00  0.88000000000E+00 0.  1.
        -11    1    4    4    0    0 -0.10811988824E-01 -0.23837182213E-01  0.52378489482E-01  0.58556619093E-01  0.51100000000E-03 0. -1.
         11    1    4    4    0    0 -0.17206306272E-01 -0.45419576953E-01  0.48300824667E-01  0.68499822851E-01  0.51100000000E-03 0.  1.
</event>
<event>
 8    1  0.1030163E+005  0.1043930E+01  0.7957747E-01            NaN
         13   -1    0    0    0    0  0.00000000000E+00  0.00000000000E+00  0.74505805969E-08  0.10566000000E+00  0.10566000000E+00 0.  1.
     999900   -1    0    0    0    0 -0.00000000000E+00 -0.00000000000E+00 -0.74505805969E-08  0.93827000000E+00  0.93827000000E+00 0. -1.
     999902    2    1    2    0    0  0.35492545434E-02 -0.87511640895E-02 -0.26060673481E-01  0.10162110754E+01  0.10158329641E+01 0.  0.
     999903    2    3    3    0    0 -0.10564123104E+00  0.77584836169E-02 -0.69587784905E-01  0.12824162767E+00  0.19575277670E-01 0.  0.
         14    1    1    2    0    0 -0.35492545434E-02  0.87511640895E-02  0.26060673481E-01  0.27718924636E-01  0.00000000000E+00 0.  1.
     999901    1    3    3    0    0  0.10919048558E+00 -0.16509647706E-01  0.43527111424E-01  0.88796944769E+00  0.88000000000E+00 0.  1.
        -11    1    4    4    0    0 -0.92776345666E-01  0.11877572703E-01 -0.55711967915E-01  0.10886969982E+00  0.51100000000E-03 0. -1.
         11    1    4    4    0    0 -0.12864885374E-01 -0.41190890861E-02 -0.13875816989E-01  0.19371927852E-01  0.51100000000E-03 0.  1.
</event>
<event>
 8    1  0.1030163E+005  0.1043930E+01  0.7957747E-01            NaN
         13   -1    0    0    0    0  0.00000000000E+00  0.00000000000E+00  0.74505805969E-08  0.10566000000E+00  0.10566000000E+00 0. -1.
     999900   -1    0    0    0    0 -0.00000000000E+00 -0.00000000000E+00 -0.74505805969E-08  0.93827000000E+00  0.93827000000E+00 0.  1.
     999902    2    1    2    0    0 -0.17696472613E-01  0.98117466456E-02 -0.12920302434E-01  0.10199222985E+01  0.10196397037E+01 0.  0.
     999903    2    3    3    0    0  0.11517292477E+00 -0.65893997773E-02  0.50524858954E-01  0.12753865744E+00  0.20127716730E-01 0.  0.
         14    1    1    2    0    0  0.17696472613E-01 -0.98117466456E-02  0.12920302434E-01  0.24007701476E-01  0.00000000000E+00 0. -1.
     999901    1    3    3    0    0 -0.13286939738E+00  0.16401146423E-01 -0.63445161388E-01  0.89238364108E+00  0.88000000000E+00 0.  1.
        -11    1    4    4    0    0  0.27139968756E-01  0.13883884500E-02  0.34742250069E-02  0.27401403010E-01  0.51100000000E-03 0.  1.
         11    1    4    4    0    0  0.88032956014E-01 -0.79777882273E-02  0.47050633947E-01  0.10013725443E+00  0.51100000000E-03 0. -1.
</event>
<event>
 8    1  0.1279808E+005  0.1043930E+01  0.7957747E-01            NaN
         13   -1    0    0    0    0  0.00000000000E+00  0.00000000000E+00  0.74505805969E-08  0.10566000000E+00  0.10566000000E+00 0.  1.
     999900   -1    0    0    0    0 -0.00000000000E+00 -0.00000000000E+00 -0.74505805969E-08  0.93827000000E+00  0.93827000000E+00 0. -1.
     999902    2    1    2    0    0 -0.65529190654E-02 -0.22345940353E-01  0.11147589281E-01  0.10181123598E+01  0.10177849609E+01 0.  0.
     999903    2    3    3    0    0 -0.40075266111E-01  0.20783012327E-01  0.11971437811E+00  0.12975961345E+00  0.21634796106E-01 0.  0.
         14    1    1    2    0    0  0.65529190654E-02  0.22345940353E-01 -0.11147589281E-01  0.25817640196E-01  0.00000000000E+00 0. -1.
     999901    1    3    3    0    0  0.33522347046E-01 -0.43128952679E-01 -0.10856678883E+00  0.88835274635E+00  0.88000000000E+00 0. -1.
        -11    1    4    4    0    0 -0.61025674097E-02  0.12380826818E-01  0.48196238869E-01  0.50136461421E-01  0.51100000000E-03 0. -1.
         11    1    4    4    0    0 -0.33972698701E-01  0.84021855083E-02  0.71518139240E-01  0.79623152033E-01  0.51100000000E-03 0.  1.
</event>
<event>
 8    1  0.1030163E+005  0.1043930E+01  0.7957747E-01            NaN
         13   -1    0    0    0    0  0.00000000000E+00  0.00000000000E+00  0.74505805969E-08  0.10566000000E+00  0.10566000000E+00 0. -1.
     999900   -1    0    0    0    0 -0.00000000000E+00 -0.00000000000E+00 -0.74505805969E-08  0.93827000000E+00  0.93827000000E+00 0. -1.
     999902    2    1    2    0    0 -0.16521351521E-01 -0.10462903338E-01  0.98407110145E-02  0.10220378326E+01  0.10218033393E+01 0.  0.
     999903    2    3    3    0    0 -0.56678248744E-02 -0.13205798797E+00 -0.20253516748E-03  0.13355371314E+00  0.19108030963E-01 0.  0.
         14    1    1    2    0    0  0.16521351521E-01  0.10462903338E-01 -0.98407110145E-02  0.21892167449E-01  0.00000000000E+00 0.  1.
     999901    1    3    3    0    0 -0.10853526647E-01  0.12159508463E+00  0.10043246182E-01  0.88848411941E+00  0.88000000000E+00 0. -1.
        -11    1    4    4    0    0 -0.25260585598E-02 -0.12926412972E+00 -0.68011282686E-03  0.12929160792E+00  0.51100000000E-03 0. -1.
         11    1    4    4    0    0 -0.31417663146E-02 -0.27938582565E-02  0.47757765939E-03  0.42621052255E-02  0.51100000000E-03 0.  1.
</event>
<event>
 8    1  0.1030163E+005  0.1043930E+01  0.7957747E-01            NaN
         13   -1    0    0    0    0  0.00000000000E+00  0.00000000000E+00  0.74505805969E-08  0.10566000000E+00  0.10566000000E+00 0.  1.
     999900   -1    0    0    0    0 -0.00000000000E+00 -0.00000000000E+00 -0.74505805969E-08  0.93827000000E+00  0.93827000000E+00 0.  1.
     999902    2    1    2    0    0 -0.89821000921E-02  0.18602309630E-01 -0.11542431266E-01  0.10202667000E+01  0.10199922487E+01 0.  0.
     999903    2    3    3    0    0 -0.88367571164E-01 -0.74411080236E-02 -0.96031686488E-01  0.13228091926E+00  0.20296774801E-01 0.  0.
         14    1    1    2    0    0  0.89821000921E-02 -0.18602309630E-01  0.11542431266E-01  0.23663299964E-01  0.00000000000E+00 0.  1.
     999901    1    3    3    0    0  0.79385471072E-01  0.26043417654E-01  0.84489255222E-01  0.88798578078E+00  0.88000000000E+00 0. -1.
        -11    1    4    4    0    0 -0.42641782025E-01 -0.31734453966E-02 -0.61103792631E-01  0.74581009144E-01  0.51100000000E-03 0.  1.
         11    1    4    4    0    0 -0.45725789138E-01 -0.42676626269E-02 -0.34927893857E-01  0.57699910112E-01  0.51100000000E-03 0. -1.
</event>
<event>
 8    1  0.1030163E+005  0.1043930E+01  0.7957747E-01            NaN
         13   -1    0    0    0    0  0.00000000000E+00  0.00000000000E+00  0.74505805969E-08  0.10566000000E+00  0.10566000000E+00 0. -1.
     999900   -1    0    0    0    0 -0.00000000000E+00 -0.00000000000E+00 -0.74505805969E-08  0.93827000000E+00  0.93827000000E+00 0. -1.
     999902    2    1    2    0    0  0.64317295098E-02  0.15172252500E-01 -0.19065903105E-01  0.10187293442E+01  0.10184175979E+01 0.  0.
     999903    2    3    3    0    0 -0.97059016062E-01  0.51980618623E-01  0.62473231421E-01  0.12815996417E+00  0.19990859397E-01 0.  0.
         14    1    1    2    0    0 -0.64317295098E-02 -0.15172252500E-01  0.19065903105E-01  0.25200655778E-01  0.00000000000E+00 0. -1.
     999901    1    3    3    0    0  0.10349074557E+00 -0.36808366123E-01 -0.81539134526E-01  0.89056938006E+00  0.88000000000E+00 0. -1.
        -11    1    4    4    0    0 -0.27126000255E-01  0.25091792003E-01  0.19470866774E-01  0.41770727665E-01  0.51100000000E-03 0. -1.
         11    1    4    4    0    0 -0.69933015807E-01  0.26888826620E-01  0.43002364647E-01  0.86389236500E-01  0.51100000000E-03 0.  1.
</event>
<event>
 8    1  0.1030163E+005  0.1043930E+01  0.7957747E-01            NaN
         13   -1    0    0    0    0  0.00000000000E+00  0.00000000000E+00  0.74505805969E-08  0.10566000000E+00  0.10566000000E+00 0.  1.
     999900   -1    0    0    0    0 -0.00000000000E+00 -0.00000000000E+00 -0.74505805969E-08  0.93827000000E+00  0.93827000000E+00 0.  1.
     999902    2    1    2    0    0 -0.54973604431E-02 -0.23823100758E-02  0.22337158970E-01  0.10208032829E+01  0.10205412766E+01 0.  0.
     999903    2    3    3    0    0  0.84068643260E-01 -0.87131791504E-01 -0.42283089450E-01  0.12985978293E+00  0.20401414157E-01 0.  0.
         14    1    1    2    0    0  0.54973604431E-02  0.23823100758E-02 -0.22337158970E-01  0.23126717103E-01  0.00000000000E+00 0. -1.
     999901    1    3    3    0    0 -0.89566003703E-01  0.84749481429E-01  0.64620248420E-01  0.89094349996E+00  0.88000000000E+00 0. -1.
        -11    1    4    4    0    0  0.12038381869E-01 -0.20652066570E-01 -0.23819246737E-02  0.24028424372E-01  0.51100000000E-03 0.  1.
         11    1    4    4    0    0  0.72030261391E-01 -0.66479724934E-01 -0.39901164777E-01  0.10583135856E+00  0.51100000000E-03 0. -1.
</event>
<event>
 8    1  0.1030163E+005  0.1043930E+01  0.7957747E-01            NaN
         13   -1    0    0    0    0  0.00000000000E+00  0.00000000000E+00  0.74505805969E-08  0.10566000000E+00  0.10566000000E+00 0.  1.
     999900   -1    0    0    0    0 -0.00000000000E+00 -0.00000000000E+00 -0.74505805969E-08  0.93827000000E+00  0.93827000000E+00 0. -1.
     999902    2    1    2    0    0  0.17575428204E-01 -0.10403346174E-02 -0.16244973908E-01  0.10199742669E+01  0.10196929086E+01 0.  0.
     999903    2    3    3    0    0  0.75361001913E-01 -0.71092967243E-01  0.76919151585E-01  0.13040914944E+00  0.18881201654E-01 0.  0.
         14    1    1    2    0    0 -0.17575428204E-01  0.10403346174E-02  0.16244973908E-01  0.23955733134E-01  0.00000000000E+00 0.  1.
     999901    1    3    3    0    0 -0.57785573709E-01  0.70052632626E-01 -0.93164125493E-01  0.88956511743E+00  0.88000000000E+00 0. -1.
        -11    1    4    4    0    0  0.12643121301E-01 -0.15090713703E-01  0.24054308799E-01  0.31087763655E-01  0.51100000000E-03 0. -1.
         11    1    4    4    0    0  0.62717880612E-01 -0.56002253540E-01  0.52864842785E-01  0.99321385783E-01  0.51100000000E-03 0.  1.
</event>
<event>
 8    1  0.1030163E+005  0.1043930E+01  0.7957747E-01            NaN
         13   -1    0    0    0    0  0.00000000000E+00  0.00000000000E+00  0.74505805969E-08  0.10566000000E+00  0.10566000000E+00 0. -1.
     999900   -1    0    0    0    0 -0.00000000000E+00 -0.00000000000E+00 -0.74505805969E-08  0.93827000000E+00  0.93827000000E+00 0.  1.
     999902    2    1    2    0    0  0.18785482168E-01  0.12399125654E-01  0.65115392318E-02  0.10204985510E+01  0.10202295133E+01 0.  0.
     999903    2    3    3    0    0  0.10142318100E+00 -0.71043090270E-01 -0.39400808062E-01  0.13151062294E+00  0.20219741650E-01 0.  0.
         14    1    1    2    0    0 -0.18785482168E-01 -0.12399125654E-01 -0.65115392318E-02  0.23431448962E-01  0.00000000000E+00 0.  1.
     999901    1    3    3    0    0 -0.82637698828E-01  0.83442215924E-01  0.45912347294E-01  0.88898792810E+00  0.88000000000E+00 0. -1.
        -11    1    4    4    0    0  0.48347418245E-01 -0.25633318923E-01 -0.25114041694E-01  0.60212258728E-01  0.51100000000E-03 0. -1.
         11    1    4    4    0    0  0.53075762751E-01 -0.45409771347E-01 -0.14286766369E-01  0.71298364214E-01  0.51100000000E-03 0.  1.
</event>
<event>
 8    1  0.1030163E+005  0.1043930E+01  0.7957747E-01            NaN
         13   -1    0    0    0    0  0.00000000000E+00  0.00000000000E+00  0.74505805969E-08  0.10566000000E+00  0.10566000000E+00 0. -1.
     999900   -1    0    0    0    0 -0.00000000000E+00 -0.00000000000E+00 -0.74505805969E-08  0.93827000000E+00  0.93827000000E+00 0.  1.
     999902    2    1    2    0    0  0.10237540317E-01 -0.18234560537E-01 -0.11084079963E-01  0.10202622317E+01  0.10199876755E+01 0.  0.
     999903    2    3    3    0    0 -0.49925421283E-02 -0.74445307608E-01 -0.10924868700E+00  0.13289089249E+00  0.12557244731E-01 0.  0.
         14    1    1    2    0    0 -0.10237540317E-01  0.18234560537E-01  0.11084079963E-01  0.23667768343E-01  0.00000000000E+00 0.  1.
     999901    1    3    3    0    0  0.15230082445E-01  0.56210747071E-01  0.98164607033E-01  0.88737133917E+00  0.88000000000E+00 0. -1.
        -11    1    4    4    0    0 -0.80374650664E-02 -0.34006495538E-01 -0.54865523089E-01  0.65050206213E-01  0.51100000000E-03 0.  1.
         11    1    4    4    0    0  0.30449229381E-02 -0.40438812070E-01 -0.54383163907E-01  0.67840686279E-01  0.51100000000E-03 0. -1.
</event>
<event>
 8    1  0.1030163E+005  0.1043930E+01  0.7957747E-01            NaN
         13   -1    0    0    0    0  0.00000000000E+00  0.00000000000E+00  0.74505805969E-08  0.10566000000E+00  0.10566000000E+00 0. -1.
     999900   -1    0    0    0    0 -0.00000000000E+00 -0.00000000000E+00 -0.74505805969E-08  0.93827000000E+00  0.93827000000E+00 0. -1.
     999902    2    1    2    0    0 -0.51496976578E-02  0.22323103701E-01 -0.66056331934E-02  0.10200872918E+01  0.10198086135E+01 0.  0.
     999903    2    3    3    0    0  0.76899171785E-01 -0.99927644884E-01  0.20016803010E-02  0.12781415628E+00  0.20819101539E-01 0.  0.
         14    1    1    2    0    0  0.51496976578E-02 -0.22323103701E-01  0.66056331934E-02  0.23842708208E-01  0.00000000000E+00 0. -1.
     999901    1    3    3    0    0 -0.82048869443E-01  0.12225074858E+00 -0.86073134944E-02  0.89227313551E+00  0.88000000000E+00 0. -1.
        -11    1    4    4    0    0  0.13880018605E-01 -0.13997327847E-01  0.75297167008E-02  0.21107767715E-01  0.51100000000E-03 0.  1.
         11    1    4    4    0    0  0.63019153180E-01 -0.85930317037E-01 -0.55280363998E-02  0.10670638857E+00  0.51100000000E-03 0. -1.
</event>
<event>
 8    1  0.1030163E+005  0.1043930E+01  0.7957747E-01            NaN
         13   -1    0    0    0    0  0.00000000000E+00  0.00000000000E+00  0.74505805969E-08  0.10566000000E+00  0.10566000000E+00 0.  1.
     999900   -1    0    0    0    0 -0.00000000000E+00 -0.00000000000E+00 -0.74505805969E-08  0.93827000000E+00  0.93827000000E+00 0.  1.
     999902    2    1    2    0    0 -0.12228203283E-01 -0.76323550140E-02  0.18755103466E-01  0.10202754929E+01  0.10200012479E+01 0.  0.
     999903    2    3    3    0    0  0.83671361625E-01  0.62106938003E-01 -0.71025530394E-01  0.12779532074E+00  0.20708682505E-01 0.  0.
         14    1    1    2    0    0  0.12228203283E-01  0.76323550140E-02 -0.18755103466E-01  0.23654507068E-01  0.00000000000E+00 0. -1.
     999901    1    3    3    0    0 -0.95899564908E-01 -0.69739293017E-01  0.89780633859E-01  0.89248017219E+00  0.88000000000E+00 0. -1.
        -11    1    4    4    0    0  0.54611957188E-01  0.41166428602E-01 -0.34368317858E-01  0.76541381651E-01  0.51100000000E-03 0.  1.
         11    1    4    4    0    0  0.29059404437E-01  0.20940509401E-01 -0.36657212536E-01  0.51253939089E-01  0.51100000000E-03 0. -1.
</event>
<event>
 8    1  0.1030163E+005  0.1043930E+01  0.7957747E-01            NaN
         13   -1    0    0    0    0  0.00000000000E+00  0.00000000000E+00  0.74505805969E-08  0.10566000000E+00  0.10566000000E+00 0.  1.
     999900   -1    0    0    0    0 -0.00000000000E+00 -0.00000000000E+00 -0.74505805969E-08  0.93827000000E+00  0.93827000000E+00 0.  1.
     999902    2    1    2    0    0  0.16808849277E-01 -0.11754366404E-01 -0.12396730986E-01  0.10199637428E+01  0.10196821344E+01 0.  0.
     999903    2    3    3    0    0 -0.11189090832E+00 -0.60669286619E-01 -0.10143517321E-01  0.12925538765E+00  0.20092948730E-01 0.  0.
         14    1    1    2    0    0 -0.16808849277E-01  0.11754366404E-01  0.12396730986E-01  0.23966257169E-01  0.00000000000E+00 0.  1.
     999901    1    3    3    0    0  0.12869975760E+00  0.48914920215E-01 -0.22532136648E-02  0.89070835519E+00  0.88000000000E+00 0. -1.
        -11    1    4    4    0    0 -0.10704025957E+00 -0.61960932200E-01 -0.86038615704E-02  0.12398008648E+00  0.51100000000E-03 0.  1.
         11    1    4    4    0    0 -0.48506487484E-02  0.12916455816E-02 -0.15396557508E-02  0.52753011687E-02  0.51100000000E-03 0. -1.
</event>
<event>
 8    1  0.1082207E+005  0.1043930E+01  0.7957747E-01            NaN
         13   -1    0    0    0    0  0.00000000000E+00  0.00000000000E+00  0.74505805969E-08  0.10566000000E+00  0.10566000000E+00 0.  1.
     999900   -1    0    0    0    0 -0.00000000000E+00 -0.00000000000E+00 -0.74505805969E-08  0.93827000000E+00  0.93827000000E+00 0.  1.
     999902    2    1    2    0    0  0.85735270342E-02 -0.29814245245E-02 -0.21379471422E-01  0.10207033761E+01  0.10204390751E+01 0.  0.
     999903    2    3    3    0    0 -0.12731807981E+00  0.19639596631E-02  0.13702803407E-01  0.12956828444E+00  0.19657642964E-01 0.  0.
         14    1    1    2    0    0 -0.85735270342E-02  0.29814245245E-02  0.21379471422E-01  0.23226623867E-01  0.00000000000E+00 0.  1.
     999901    1    3    3    0    0  0.13589160685E+00 -0.49453841876E-02 -0.35082274829E-01  0.89113509169E+00  0.88000000000E+00 0.  1.
        -11    1    4    4    0    0 -0.60540397977E-01  0.26385581687E-02  0.16235659638E-01  0.62737226121E-01  0.51100000000E-03 0.  1.
         11    1    4    4    0    0 -0.66777681836E-01 -0.67459850558E-03 -0.25328562304E-02  0.66831058321E-01  0.51100000000E-03 0. -1.
</event>
<event>
 8    1  0.1030163E+005  0.1043930E+01  0.7957747E-01            NaN
         13   -1    0    0    0    0  0.00000000000E+00  0.00000000000E+00  0.74505805969E-08  0.10566000000E+00  0.10566000000E+00 0.  1.
     999900   -1    0    0    0    0 -0.00000000000E+00 -0.00000000000E+00 -0.74505805969E-08  0.93827000000E+00  0.93827000000E+00 0. -1.
     999902    2    1    2    0    0  0.70523889325E-02 -0.11935402093E-01 -0.17154829557E-01  0.10218737494E+01  0.10216356893E+01 0.  0.
     999903    2    3    3    0    0 -0.11539768304E+00  0.53240307207E-01  0.16518543906E-01  0.13037176440E+00  0.23932803785E-01 0.  0.
         14    1    1    2    0    0 -0.70523889325E-02  0.11935402093E-01  0.17154829557E-01  0.22056250585E-01  0.00000000000E+00 0.  1.
     999901    1    3    3    0    0  0.12245007197E+00 -0.65175709299E-01 -0.33673373463E-01  0.89150198502E+00  0.88000000000E+00 0. -1.
        -11    1    4    4    0    0 -0.58655940248E-01  0.40088545083E-01  0.78152316443E-02  0.71476917532E-01  0.51100000000E-03 0. -1.
         11    1    4    4    0    0 -0.56741742792E-01  0.13151762124E-01  0.87033122615E-02  0.58894846866E-01  0.51100000000E-03 0.  1.
</event>
<event>
 8    1  0.1030163E+005  0.1043930E+01  0.7957747E-01            NaN
         13   -1    0    0    0    0  0.00000000000E+00  0.00000000000E+00  0.74505805969E-08  0.10566000000E+00  0.10566000000E+00 0. -1.
     999900   -1    0    0    0    0 -0.00000000000E+00 -0.00000000000E+00 -0.74505805969E-08  0.93827000000E+00  0.93827000000E+00 0.  1.
     999902    2    1    2    0    0 -0.32231731450E-02 -0.43866995425E-02  0.21577117063E-01  0.10216768214E+01  0.10214344440E+01 0.  0.
     999903    2    3    3    0    0  0.29348215335E-01 -0.12395843198E+00  0.32752931568E-01  0.13292309094E+00  0.19203722948E-01 0.  0.
         14    1    1    2    0    0  0.32231731450E-02  0.43866995425E-02 -0.21577117063E-01  0.22253178622E-01  0.00000000000E+00 0.  1.
     999901    1    3    3    0    0 -0.32571388479E-01  0.11957173244E+00 -0.11175814505E-01  0.88875373044E+00  0.88000000000E+00 0. -1.
        -11    1    4    4    0    0  0.85926429651E-02 -0.61391860145E-01  0.23766341510E-01  0.66391973272E-01  0.51100000000E-03 0.  1.
         11    1    4    4    0    0  0.20755572369E-01 -0.62566571836E-01  0.89865900582E-02  0.66531117664E-01  0.51100000000E-03 0. -1.
</event>
<event>
 8    1  0.1030163E+005  0.1043930E+01  0.7957747E-01            NaN
         13   -1    0    0    0    0  0.00000000000E+00  0.00000000000E+00  0.74505805969E-08  0.10566000000E+00  0.10566000000E+00 0.  1.
     999900   -1    0    0    0    0 -0.00000000000E+00 -0.00000000000E+00 -0.74505805969E-08  0.93827000000E+00  0.93827000000E+00 0.  1.
     999902    2    1    2    0    0  0.10721905902E-01  0.18006296621E-01  0.18335086218E-01  0.10160846885E+01  0.10157030732E+01 0.  0.
     999903    2    3    3    0    0 -0.81447489173E-01 -0.49322843550E-01 -0.75996411629E-01  0.12371321768E+00  0.21519044117E-01 0.  0.
         14    1    1    2    0    0 -0.10721905902E-01 -0.18006296621E-01 -0.18335086218E-01  0.27845311469E-01  0.00000000000E+00 0.  1.
     999901    1    3    3    0    0  0.92169395074E-01  0.67329140171E-01  0.94331497847E-01  0.89237147085E+00  0.88000000000E+00 0. -1.
        -11    1    4    4    0    0 -0.36749940693E-01 -0.13689163281E-01 -0.21465381299E-01  0.44709898765E-01  0.51100000000E-03 0. -1.
         11    1    4    4    0    0 -0.44697548479E-01 -0.35633680269E-01 -0.54531030330E-01  0.79003318913E-01  0.51100000000E-03 0.  1.
</event>
<event>
 8    1  0.1030163E+005  0.1043930E+01  0.7957747E-01            NaN
         13   -1    0    0    0    0  0.00000000000E+00  0.00000000000E+00  0.74505805969E-08  0.10566000000E+00  0.10566000000E+00 0.  1.
     999900   -1    0    0    0    0 -0.00000000000E+00 -0.00000000000E+00 -0.74505805969E-08  0.93827000000E+00  0.93827000000E+00 0.  1.
     999902    2    1    2    0    0  0.11896184570E-01  0.17001813298E-01 -0.11228106876E-01  0.10203365423E+01  0.10200637276E+01 0.  0.
     999903    2    3    3    0    0  0.11940362101E-01 -0.10656445218E+00  0.67431153812E-01  0.12822897971E+00  0.19928773608E-01 0.  0.
         14    1    1    2    0    0 -0.11896184570E-01 -0.17001813298E-01  0.11228106876E-01  0.23593457711E-01  0.00000000000E+00 0.  1.
     999901    1    3    3    0    0 -0.44177530228E-04  0.12356626548E+00 -0.78659260688E-01  0.89210756258E+00  0.88000000000E+00 0.  1.
        -11    1    4    4    0    0  0.21907802157E-02 -0.47984996693E-01  0.19235707100E-01  0.51745849826E-01  0.51100000000E-03 0.  1.
         11    1    4    4    0    0  0.97495818848E-02 -0.58579455488E-01  0.48195446712E-01  0.76483129885E-01  0.51100000000E-03 0. -1.
</event>
<event>
 8    1  0.1030163E+005  0.1043930E+01  0.7957747E-01            NaN
         13   -1    0    0    0    0  0.00000000000E+00  0.00000000000E+00  0.74505805969E-08  0.10566000000E+00  0.10566000000E+00 0.  1.
     999900   -1    0    0    0    0 -0.00000000000E+00 -0.00000000000E+00 -0.74505805969E-08  0.93827000000E+00  0.93827000000E+00 0.  1.
     999902    2    1    2    0    0  0.90269090646E-03  0.13221308774E-01 -0.19301545341E-01  0.10205170226E+01  0.10202484139E+01 0.  0.
     999903    2    3    3    0    0  0.93907546521E-01 -0.18675982483E-01 -0.88766268100E-01  0.13232071096E+00  0.21491872470E-01 0.  0.
         14    1    1    2    0    0 -0.90269090646E-03 -0.13221308774E-01  0.19301545341E-01  0.23412977365E-01  0.00000000000E+00 0.  1.
     999901    1    3    3    0    0 -0.93004855615E-01  0.31897291257E-01  0.69464722759E-01  0.88819631167E+00  0.88000000000E+00 0. -1.
        -11    1    4    4    0    0  0.68828288692E-01 -0.58797333377E-02 -0.54650450436E-01  0.88084263306E-01  0.51100000000E-03 0. -1.
         11    1    4    4    0    0  0.25079257829E-01 -0.12796249145E-01 -0.34115817665E-01  0.44236447657E-01  0.51100000000E-03 0.  1.
</event>
<event>
 8    1  0.1030163E+005  0.1043930E+01  0.7957747E-01            NaN
         13   -1    0    0    0    0  0.00000000000E+00  0.00000000000E+00  0.74505805969E-08  0.10566000000E+00  0.10566000000E+00 0.  1.
     999900   -1    0    0    0    0 -0.00000000000E+00 -0.00000000000E+00 -0.74505805969E-08  0.93827000000E+00  0.93827000000E+00 0. -1.
     999902    2    1    2    0    0  0.94162933714E-02 -0.45972051975E-02 -0.21356153640E-01  0.10201416378E+01  0.10198642434E+01 0.  0.
     999903    2    3    3    0    0  0.12687516816E+00 -0.71097213950E-02 -0.32025229091E-01  0.13226961486E+00  0.17938207317E-01 0.  0.
         14    1    1    2    0    0 -0.94162933714E-02  0.45972051975E-02  0.21356153640E-01  0.23788362171E-01  0.00000000000E+00 0.  1.
     999901    1    3    3    0    0 -0.11745887479E+00  0.25125161976E-02  0.10669075451E-01  0.88787202297E+00  0.88000000000E+00 0. -1.
        -11    1    4    4    0    0  0.86703541178E-01  0.86100492997E-03 -0.15400846136E-01  0.88066409970E-01  0.51100000000E-03 0. -1.
         11    1    4    4    0    0  0.40171626984E-01 -0.79707263250E-02 -0.16624382955E-01  0.44203204887E-01  0.51100000000E-03 0.  1.
</event>
<event>
 8    1  0.1030163E+005  0.1043930E+01  0.7957747E-01            NaN
         13   -1    0    0    0    0  0.00000000000E+00  0.00000000000E+00  0.74505805969E-08  0.10566000000E+00  0.10566000000E+00 0. -1.
     999900   -1    0    0    0    0 -0.00000000000E+00 -0.00000000000E+00 -0.74505805969E-08  0.93827000000E+00  0.93827000000E+00 0. -1.
     999902    2    1    2    0    0  0.12639365527E-01  0.17107406856E-01  0.79822259783E-02  0.10212114423E+01  0.10209587049E+01 0.  0.
     999903    2    3    3    0    0  0.53386995059E-01 -0.94148151051E-01 -0.66218044440E-01  0.13017617447E+00  0.29102601283E-01 0.  0.
         14    1    1    2    0    0 -0.12639365527E-01 -0.17107406856E-01 -0.79822259783E-02  0.22718557653E-01  0.00000000000E+00 0.  1.
     999901    1    3    3    0    0 -0.40747629531E-01  0.11125555791E+00  0.74200270418E-01  0.89103526788E+00  0.88000000000E+00 0.  1.
        -11    1    4    4    0    0  0.17447576083E-01 -0.11176250225E-01 -0.61481919469E-02  0.21619155059E-01  0.51100000000E-03 0.  1.
         11    1    4    4    0    0  0.35939418976E-01 -0.82971900825E-01 -0.60069852493E-01  0.10855701941E+00  0.51100000000E-03 0. -1.
</event>
<event>
 8    1  0.1030163E+005  0.1043930E+01  0.7957747E-01            NaN
         13   -1    0    0    0    0  0.00000000000E+00  0.00000000000E+00  0.74505805969E-08  0.10566000000E+00  0.10566000000E+00 0.  1.
     999900   -1    0    0    0    0 -0.00000000000E+00 -0.00000000000E+00 -0.74505805969E-08  0.93827000000E+00  0.93827000000E+00 0. -1.
     999902    2    1    2    0    0 -0.21330196310E-01  0.18643697301E-02 -0.11224606288E-01  0.10197547040E+01  0.10194681022E+01 0.  0.
     999903    2    3    3    0    0  0.99192810040E-01 -0.65768206982E-02  0.76297955776E-01  0.12719812452E+00  0.21806345194E-01 0.  0.
         14    1    1    2    0    0  0.21330196310E-01 -0.18643697301E-02  0.11224606288E-01  0.24175295974E-01  0.00000000000E+00 0.  1.
     999901    1    3    3    0    0 -0.12052300635E+00  0.84411904283E-02 -0.87522562064E-01  0.89255657951E+00  0.88000000000E+00 0. -1.
        -11    1    4    4    0    0  0.49337581296E-01 -0.11375296067E-01  0.47469787334E-01  0.69406311812E-01  0.51100000000E-03 0.  1.
         11    1    4    4    0    0  0.49855228744E-01  0.47984753685E-02  0.28828168442E-01  0.57791812704E-01  0.51100000000E-03 0. -1.
</event>
<event>
 8    1  0.1030163E+005  0.1043930E+01  0.7957747E-01            NaN
         13   -1    0    0    0    0  0.00000000000E+00  0.00000000000E+00  0.74505805969E-08  0.10566000000E+00  0.10566000000E+00 0.  1.
     999900   -1    0    0    0    0 -0.00000000000E+00 -0.00000000000E+00 -0.74505805969E-08  0.93827000000E+00  0.93827000000E+00 0.  1.
     999902    2    1    2    0    0 -0.14405395764E-01  0.10372162108E-01  0.17429489450E-01  0.10190526152E+01  0.10187489132E+01 0.  0.
     999903    2    3    3    0    0 -0.33605345385E-01  0.92855696929E-01  0.85724373249E-01  0.13235291248E+00  0.20423652522E-01 0.  0.
         14    1    1    2    0    0  0.14405395764E-01 -0.10372162108E-01 -0.17429489450E-01  0.24877384839E-01  0.00000000000E+00 0. -1.
     999901    1    3    3    0    0  0.19199949621E-01 -0.82483534821E-01 -0.68294883799E-01  0.88669970268E+00  0.88000000000E+00 0.  1.
        -11    1    4    4    0    0 -0.14245117517E-01  0.43242813566E-01  0.52878115182E-01  0.69779799974E-01  0.51100000000E-03 0.  1.
         11    1    4    4    0    0 -0.19360227868E-01  0.49612883363E-01  0.32846258067E-01  0.62573112506E-01  0.51100000000E-03 0. -1.
</event>
<event>
 8    1  0.1030163E+005  0.1043930E+01  0.7957747E-01            NaN
         13   -1    0    0    0    0  0.00000000000E+00  0.00000000000E+00  0.74505805969E-08  0.10566000000E+00  0.10566000000E+00 0. -1.
     999900   -1    0    0    0    0 -0.00000000000E+00 -0.00000000000E+00 -0.74505805969E-08  0.93827000000E+00  0.93827000000E+00 0. -1.
     999902    2    1    2    0    0  0.10442588814E-01  0.16227272429E-01 -0.14534164760E-01  0.10197718962E+01  0.10194857068E+01 0.  0.
     999903    2    3    3    0    0 -0.10240520036E+00  0.65707112320E-01  0.40634089944E-01  0.12947620694E+00  0.17570123147E-01 0.  0.
         14    1    1    2    0    0 -0.10442588814E-01 -0.16227272429E-01  0.14534164760E-01  0.24158103752E-01  0.00000000000E+00 0. -1.
     999901    1    3    3    0    0  0.11284778917E+00 -0.49479839891E-01 -0.55168254704E-01  0.89029568931E+00  0.88000000000E+00 0. -1.
        -11    1    4    4    0    0 -0.30855598261E-01  0.17182845601E-01  0.20015373924E-01  0.40597961049E-01  0.51100000000E-03 0.  1.
         11    1    4    4    0    0 -0.71549602098E-01  0.48524266719E-01  0.20618716020E-01  0.88878245889E-01  0.51100000000E-03 0. -1.
</event>
<event>
 8    1  0.1030163E+005  0.1043930E+01  0.7957747E-01            NaN
         13   -1    0    0    0    0  0.00000000000E+00  0.00000000000E+00  0.74505805969E-08  0.10566000000E+00  0.10566000000E+00 0. -1.
     999900   -1    0    0    0    0 -0.00000000000E+00 -0.00000000000E+00 -0.74505805969E-08  0.93827000000E+00  0.93827000000E+00 0.  1.
     999902    2    1    2    0    0  0.86936533959E-02  0.25729691109E-01  0.92718678384E-02  0.10152321926E+01  0.10148265077E+01 0.  0.
     999903    2    3    3    0    0 -0.12323477933E+00  0.11912118644E-02  0.72272650715E-02  0.12505724988E+00  0.19971293481E-01 0.  0.
         14    1    1    2    0    0 -0.86936533959E-02 -0.25729691109E-01 -0.92718678384E-02  0.28697807357E-01  0.00000000000E+00 0.  1.
     999901    1    3    3    0    0  0.13192843273E+00  0.24538479244E-01  0.20446027669E-02  0.89017494277E+00  0.88000000000E+00 0. -1.
        -11    1    4    4    0    0 -0.42649328805E-01 -0.89890220300E-02  0.11879220079E-02  0.43605504747E-01  0.51100000000E-03 0. -1.
         11    1    4    4    0    0 -0.80585450530E-01  0.10180233894E-01  0.60393430636E-02  0.81451745131E-01  0.51100000000E-03 0.  1.
</event>
<event>
 8    1  0.1030163E+005  0.1043930E+01  0.7957747E-01            NaN
         13   -1    0    0    0    0  0.00000000000E+00  0.00000000000E+00  0.74505805969E-08  0.10566000000E+00  0.10566000000E+00 0. -1.
     999900   -1    0    0    0    0 -0.00000000000E+00 -0.00000000000E+00 -0.74505805969E-08  0.93827000000E+00  0.93827000000E+00 0. -1.
     999902    2    1    2    0    0 -0.10119240013E-01 -0.55569437108E-03  0.21169198561E-01  0.10204599599E+01  0.10201900249E+01 0.  0.
     999903    2    3    3    0    0  0.17273869266E-01 -0.12653746638E+00 -0.15211876222E-01  0.13032212118E+00  0.21031812427E-01 0.  0.
         14    1    1    2    0    0  0.10119240013E-01  0.55569437108E-03 -0.21169198561E-01  0.23470040102E-01  0.00000000000E+00 0.  1.
     999901    1    3    3    0    0 -0.27393109279E-01  0.12598177201E+00  0.36381074783E-01  0.89013783872E+00  0.88000000000E+00 0.  1.
        -11    1    4    4    0    0  0.49197845916E-02 -0.49729524181E-01 -0.16150003379E-01  0.52519649521E-01  0.51100000000E-03 0. -1.
         11    1    4    4    0    0  0.12354084674E-01 -0.76807942198E-01  0.93812715754E-03  0.77802471660E-01  0.51100000000E-03 0.  1.
</event>
<event>
 8    1  0.1030163E+005  0.1043930E+01  0.7957747E-01            NaN
         13   -1    0    0    0    0  0.00000000000E+00  0.00000000000E+00  0.74505805969E-08  0.10566000000E+00  0.10566000000E+00 0. -1.
     999900   -1    0    0    0    0 -0.00000000000E+00 -0.00000000000E+00 -0.74505805969E-08  0.93827000000E+00  0.93827000000E+00 0. -1.
     999902    2    1    2    0    0 -0.19306665921E-01  0.53501226002E-02  0.98458371497E-02  0.10216071044E+01  0.10213631891E+01 0.  0.
     999903    2    3    3    0    0 -0.25624015007E-01 -0.58275758004E-01 -0.11314967135E+00  0.13075579426E+00  0.15542698932E-01 0.  0.
         14    1    1    2    0    0  0.19306665921E-01 -0.53501226002E-02 -0.98458371497E-02  0.22322895646E-01  0.00000000000E+00 0. -1.
     999901    1    3    3    0    0  0.63173490862E-02  0.63625880605E-01  0.12299550850E+00  0.89085131009E+00  0.88000000000E+00 0.  1.
        -11    1    4    4    0    0 -0.78392327247E-02 -0.34524916607E-01 -0.69083341835E-01  0.77628555806E-01  0.51100000000E-03 0. -1.
         11    1    4    4    0    0 -0.17784782283E-01 -0.23750841397E-01 -0.44066329517E-01  0.53127238456E-01  0.51100000000E-03 0.  1.
</event>
<event>
 8    1  0.1030163E+005  0.1043930E+01  0.7957747E-01            NaN
         13   -1    0    0    0    0  0.00000000000E+00  0.00000000000E+00  0.74505805969E-08  0.10566000000E+00  0.10566000000E+00 0. -1.
     999900   -1    0    0    0    0 -0.00000000000E+00 -0.00000000000E+00 -0.74505805969E-08  0.93827000000E+00  0.93827000000E+00 0.  1.
     999902    2    1    2    0    0 -0.18530075612E-02 -0.10818124813E-01 -0.21450487326E-01  0.10198345882E+01  0.10195499000E+01 0.  0.
     999903    2    3    3    0    0  0.57430448416E-01 -0.45182939672E-01  0.10371164757E+00  0.12834088177E+00  0.19378381020E-01 0.  0.
         14    1    1    2    0    0  0.18530075612E-02  0.10818124813E-01  0.21450487326E-01  0.24095411762E-01  0.00000000000E+00 0. -1.
     999901    1    3    3    0    0 -0.59283455977E-01  0.34364814859E-01 -0.12516213489E+00  0.89149370646E+00  0.88000000000E+00 0.  1.
        -11    1    4    4    0    0  0.24058469567E-01 -0.30590725289E-01  0.58791571558E-01  0.70507534625E-01  0.51100000000E-03 0.  1.
         11    1    4    4    0    0  0.33371978849E-01 -0.14592214384E-01  0.44920076009E-01  0.57833347150E-01  0.51100000000E-03 0. -1.
</event>
<event>
 8    1  0.1030163E+005  0.1043930E+01  0.7957747E-01            NaN
         13   -1    0    0    0    0  0.00000000000E+00  0.00000000000E+00  0.74505805969E-08  0.10566000000E+00  0.10566000000E+00 0. -1.
     999900   -1    0    0    0    0 -0.00000000000E+00 -0.00000000000E+00 -0.74505805969E-08  0.93827000000E+00  0.93827000000E+00 0. -1.
     999902    2    1    2    0    0  0.23455296507E-01  0.65288988793E-02  0.58560112445E-02  0.10188886278E+01  0.10185808586E+01 0.  0.
     999903    2    3    3    0    0  0.49874045691E-01 -0.88667738559E-01 -0.77560117627E-01  0.12944014662E+00  0.19743135918E-01 0.  0.
         14    1    1    2    0    0 -0.23455296507E-01 -0.65288988793E-02 -0.58560112445E-02  0.25041372217E-01  0.00000000000E+00 0.  1.
     999901    1    3    3    0    0 -0.26418749184E-01  0.95196637438E-01  0.83416128871E-01  0.88944848116E+00  0.88000000000E+00 0. -1.
        -11    1    4    4    0    0  0.39367824890E-01 -0.59694602391E-01 -0.44424537936E-01  0.84184748518E-01  0.51100000000E-03 0.  1.
         11    1    4    4    0    0  0.10506220801E-01 -0.28973136168E-01 -0.33135579690E-01  0.45255398102E-01  0.51100000000E-03 0. -1.
</event>
<event>
 8    1  0.1030163E+005  0.1043930E+01  0.7957747E-01            NaN
         13   -1    0    0    0    0  0.00000000000E+00  0.00000000000E+00  0.74505805969E-08  0.10566000000E+00  0.10566000000E+00 0.  1.
     999900   -1    0    0    0    0 -0.00000000000E+00 -0.00000000000E+00 -0.74505805969E-08  0.93827000000E+00  0.93827000000E+00 0.  1.
     999902    2    1    2    0    0 -0.23355340518E-01  0.71234669081E-02 -0.13759487020E-02  0.10194737340E+01  0.10191803498E+01 0.  0.
     999903    2    3    3    0    0  0.63490876306E-01  0.10983587550E+00  0.12348683835E-01  0.12914768710E+00  0.20775566695E-01 0.  0.
         14    1    1    2    0    0  0.23355340518E-01 -0.71234669081E-02  0.13759487020E-02  0.24456265994E-01  0.00000000000E+00 0. -1.
     999901    1    3    3    0    0 -0.86846216825E-01 -0.10271240859E+00 -0.13724632537E-01  0.89032604690E+00  0.88000000000E+00 0. -1.
        -11    1    4    4    0    0  0.70269887674E-02  0.31826577665E-02 -0.71480980784E-03  0.77640167218E-02  0.51100000000E-03 0.  1.
         11    1    4    4    0    0  0.56463887539E-01  0.10665321773E+00  0.13063493643E-01  0.12138367038E+00  0.51100000000E-03 0. -1.
</event>
<event>
 8    1  0.1030163E+005  0.1043930E+01  0.7957747E-01            NaN
         13   -1    0    0    0    0  0.00000000000E+00  0.00000000000E+00  0.74505805969E-08  0.10566000000E+00  0.10566000000E+00 0.  1.
     999900   -1    0    0    0    0 -0.00000000000E+00 -0.00000000000E+00 -0.74505805969E-08  0.93827000000E+00  0.93827000000E+00 0.  1.
     999902    2    1    2    0    0 -0.14196092583E-01 -0.11138612703E-01  0.18842087342E-01  0.10178412669E+01  0.10175068662E+01 0.  0.
     999903    2    3    3    0    0  0.69115511801E-02 -0.56101389086E-01  0.11761824271E+00  0.13092305607E+00  0.10566938834E-01 0.  0.
         14    1    1    2    0    0  0.14196092583E-01  0.11138612703E-01 -0.18842087342E-01  0.26088733066E-01  0.00000000000E+00 0. -1.
     999901    1    3    3    0    0 -0.21107643763E-01  0.44962776382E-01 -0.98776155369E-01  0.88691821086E+00  0.88000000000E+00 0. -1.
        -11    1    4    4    0    0 -0.25916579172E-02 -0.16471714797E-01  0.31365997242E-01  0.35526342101E-01  0.51100000000E-03 0. -1.
         11    1    4    4    0    0  0.95032090973E-02 -0.39629674289E-01  0.86252245469E-01  0.95396713973E-01  0.51100000000E-03 0.  1.
</event>
<event>
 8    1  0.1030163E+005  0.1043930E+01  0.7957747E-01            NaN
         13   -1    0    0    0    0  0.00000000000E+00  0.00000000000E+00  0.74505805969E-08  0.10566000000E+00  0.10566000000E+00 0.  1.
     999900   -1    0    0    0    0 -0.00000000000E+00 -0.00000000000E+00 -0.74505805969E-08  0.93827000000E+00  0.93827000000E+00 0.  1.
     999902    2    1    2    0    0  0.16526661218E-01 -0.94576199005E-02  0.16085125018E-01  0.10190039423E+01  0.10186990361E+01 0.  0.
     999903    2    3    3    0    0 -0.83889715887E-01  0.15759799466E-01  0.95123063699E-01  0.12941619353E+00  0.20354316224E-01 0.  0.
         14    1    1    2    0    0 -0.16526661218E-01  0.94576199005E-02 -0.16085125018E-01  0.24926057691E-01  0.00000000000E+00 0. -1.
     999901    1    3    3    0    0  0.10041637710E+00 -0.25217419367E-01 -0.79037938681E-01  0.88958774878E+00  0.88000000000E+00 0.  1.
        -11    1    4    4    0    0 -0.35899010483E-01  0.14581706348E-01  0.52248083557E-01  0.65049892160E-01  0.51100000000E-03 0.  1.
         11    1    4    4    0    0 -0.47990705404E-01  0.11780931183E-02  0.42874980142E-01  0.64366301368E-01  0.51100000000E-03 0. -1.
</event>
<event>
 8    1  0.1030163E+005  0.1043930E+01  0.7957747E-01            NaN
         13   -1    0    0    0    0  0.00000000000E+00  0.00000000000E+00  0.74505805969E-08  0.10566000000E+00  0.10566000000E+00 0. -1.
     999900   -1    0    0    0    0 -0.00000000000E+00 -0.00000000000E+00 -0.74505805969E-08  0.93827000000E+00  0.93827000000E+00 0.  1.
     999902    2    1    2    0    0  0.14485163960E-01 -0.17729151967E-01  0.34291242243E-02  0.10207804493E+01  0.10205179195E+01 0.  0.
     999903    2    3    3    0    0  0.89598448619E-01 -0.84216640587E-01  0.49415124670E-01  0.13388851456E+00  0.19077610935E-01 0.  0.
         14    1    1    2    0    0 -0.14485163960E-01  0.17729151967E-01 -0.34291242243E-02  0.23149550695E-01  0.00000000000E+00 0. -1.
     999901    1    3    3    0    0 -0.75113284659E-01  0.66487488619E-01 -0.45986000446E-01  0.88689193474E+00  0.88000000000E+00 0.  1.
        -11    1    4    4    0    0  0.43363908411E-01 -0.51733416480E-01  0.32376988127E-01  0.74868587636E-01  0.51100000000E-03 0.  1.
         11    1    4    4    0    0  0.46234540208E-01 -0.32483224106E-01  0.17038136543E-01  0.59019926926E-01  0.51100000000E-03 0. -1.
</event>
<event>
 8    1  0.1030163E+005  0.1043930E+01  0.7957747E-01            NaN
         13   -1    0    0    0    0  0.00000000000E+00  0.00000000000E+00  0.74505805969E-08  0.10566000000E+00  0.10566000000E+00 0. -1.
     999900   -1    0    0    0    0 -0.00000000000E+00 -0.00000000000E+00 -0.74505805969E-08  0.93827000000E+00  0.93827000000E+00 0.  1.
     999902    2    1    2    0    0 -0.83440911225E-02 -0.17013270036E-01  0.14651635107E-01  0.10199770122E+01  0.10196957192E+01 0.  0.
     999903    2    3    3    0    0 -0.51955241655E-01  0.11218032992E+00 -0.28244629703E-01  0.12844293642E+00  0.20397432477E-01 0.  0.
         14    1    1    2    0    0  0.83440911225E-02  0.17013270036E-01 -0.14651635107E-01  0.23952987815E-01  0.00000000000E+00 0. -1.
     999901    1    3    3    0    0  0.43611150533E-01 -0.12919359996E+00  0.42896264809E-01  0.89153407577E+00  0.88000000000E+00 0. -1.
        -11    1    4    4    0    0 -0.36782602839E-01  0.97201538959E-01 -0.24687180550E-01  0.10682142600E+00  0.51100000000E-03 0.  1.
         11    1    4    4    0    0 -0.15172638817E-01  0.14978790962E-01 -0.35574491526E-02  0.21621510420E-01  0.51100000000E-03 0. -1.
</event>
<event>
 8    1  0.1030163E+005  0.1043930E+01  0.7957747E-01            NaN
         13   -1    0    0    0    0  0.00000000000E+00  0.00000000000E+00  0.74505805969E-08  0.10566000000E+00  0.10566000000E+00 0.  1.
     999900   -1    0    0    0    0 -0.00000000000E+00 -0.00000000000E+00 -0.74505805969E-08  0.93827000000E+00  0.93827000000E+00 0.  1.
     999902    2    1    2    0    0  0.58056782751E-02 -0.52334261377E-02  0.21860196369E-01  0.10207144269E+01  0.10204503802E+01 0.  0.
     999903    2    3    3    0    0  0.10746500037E-01  0.11661372920E+00 -0.50945880075E-01  0.12932681998E+00  0.20388589190E-01 0.  0.
         14    1    1    2    0    0 -0.58056782751E-02  0.52334261377E-02 -0.21860196369E-01  0.23215573107E-01  0.00000000000E+00 0. -1.
     999901    1    3    3    0    0 -0.49408217623E-02 -0.12184715534E+00  0.72806076444E-01  0.89138760691E+00  0.88000000000E+00 0. -1.
        -11    1    4    4    0    0 -0.59145515798E-02  0.21671195879E-01 -0.10102410831E-01  0.24636202565E-01  0.51100000000E-03 0. -1.
         11    1    4    4    0    0  0.16661051617E-01  0.94942533323E-01 -0.40843469243E-01  0.10469061742E+00  0.51100000000E-03 0.  1.
</event>
<event>
 8    1  0.1030163E+005  0.1043930E+01  0.7957747E-01            NaN
         13   -1    0    0    0    0  0.00000000000E+00  0.00000000000E+00  0.74505805969E-08  0.10566000000E+00  0.10566000000E+00 0.  1.
     999900   -1    0    0    0    0 -0.00000000000E+00 -0.00000000000E+00 -0.74505805969E-08  0.93827000000E+00  0.93827000000E+00 0. -1.
     999902    2    1    2    0    0 -0.17710436784E-01 -0.14601671883E-01 -0.35610226869E-02  0.10207018000E+01  0.10204374627E+01 0.  0.
     999903    2    3    3    0    0 -0.26059199743E-01  0.50244151641E-01 -0.11647683993E+00  0.13108128289E+00  0.20295118125E-01 0.  0.
         14    1    1    2    0    0  0.17710436784E-01  0.14601671883E-01  0.35610226869E-02  0.23228200004E-01  0.00000000000E+00 0. -1.
     999901    1    3    3    0    0  0.83487629591E-02 -0.64845823523E-01  0.11291581724E+00  0.88962051711E+00  0.88000000000E+00 0.  1.
        -11    1    4    4    0    0 -0.16035496729E-01  0.11238376023E-01 -0.44048762253E-01  0.48207808787E-01  0.51100000000E-03 0. -1.
         11    1    4    4    0    0 -0.10023703014E-01  0.39005775618E-01 -0.72428077673E-01  0.82873474104E-01  0.51100000000E-03 0.  1.
</event>
<event>
 8    1  0.1030163E+005  0.1043930E+01  0.7957747E-01            NaN
         13   -1    0    0    0    0  0.00000000000E+00  0.00000000000E+00  0.74505805969E-08  0.10566000000E+00  0.10566000000E+00 0. -1.
     999900   -1    0    0    0    0 -0.00000000000E+00 -0.00000000000E+00 -0.74505805969E-08  0.93827000000E+00  0.93827000000E+00 0.  1.
     999902    2    1    2    0    0  0.86013635404E-02 -0.15628551087E-01  0.13622643275E-01  0.10214842549E+01  0.10212376176E+01 0.  0.
     999903    2    3    3    0    0  0.11960710401E+00  0.23279997779E-01 -0.45013739377E-01  0.13172340221E+00  0.21840337232E-01 0.  0.
         14    1    1    2    0    0 -0.86013635404E-02  0.15628551087E-01 -0.13622643275E-01  0.22445745111E-01  0.00000000000E+00 0.  1.
     999901    1    3    3    0    0 -0.11100574047E+00 -0.38908548866E-01  0.58636382651E-01  0.88976085268E+00  0.88000000000E+00 0. -1.
        -11    1    4    4    0    0  0.44139949024E-01  0.86513789032E-02 -0.28013643891E-01  0.52992516659E-01  0.51100000000E-03 0.  1.
         11    1    4    4    0    0  0.75467154986E-01  0.14628618876E-01 -0.17000095486E-01  0.78730885549E-01  0.51100000000E-03 0. -1.
</event>
<event>
 8    1  0.1030163E+005  0.1043930E+01  0.7957747E-01            NaN
         13   -1    0    0    0    0  0.00000000000E+00  0.00000000000E+00  0.74505805969E-08  0.10566000000E+00  0.10566000000E+00 0. -1.
     999900   -1    0    0    0    0 -0.00000000000E+00 -0.00000000000E+00 -0.74505805969E-08  0.93827000000E+00  0.93827000000E+00 0. -1.
     999902    2    1    2    0    0 -0.18831625886E-01  0.28085272196E-02 -0.14541363995E-01  0.10199723452E+01  0.10196909412E+01 0.  0.
     999903    2    3    3    0    0 -0.66861693260E-02 -0.79530881584E-01  0.99489299665E-01  0.12872025814E+00  0.17346991744E-01 0.  0.
         14    1    1    2    0    0  0.18831625886E-01 -0.28085272196E-02  0.14541363995E-01  0.23957654841E-01  0.00000000000E+00 0.  1.
     999901    1    3    3    0    0 -0.12145456560E-01  0.82339408804E-01 -0.11403066366E+00  0.89125208702E+00  0.88000000000E+00 0. -1.
        -11    1    4    4    0    0 -0.48617873716E-02 -0.25782210904E-01  0.21187996808E-01  0.33727610429E-01  0.51100000000E-03 0. -1.
         11    1    4    4    0    0 -0.18243819543E-02 -0.53748670681E-01  0.78301302857E-01  0.94992647713E-01  0.51100000000E-03 0.  1.
</event>
<event>
 8    1  0.1099784E+005  0.1043930E+01  0.7957747E-01            NaN
         13   -1    0    0    0    0  0.00000000000E+00  0.00000000000E+00  0.74505805969E-08  0.10566000000E+00  0.10566000000E+00 0.  1.
     999900   -1    0    0    0    0 -0.00000000000E+00 -0.00000000000E+00 -0.74505805969E-08  0.93827000000E+00  0.93827000000E+00 0. -1.
     999902    2    1    2    0    0  0.23070832391E-01  0.13829476652E-02 -0.10131160974E-02  0.10207955613E+01  0.10205333780E+01 0.  0.
     999903    2    3    3    0    0  0.77114813192E-01  0.52975118000E-02  0.10535599887E+00  0.13273561718E+00  0.23325941002E-01 0.  0.
         14    1    1    2    0    0 -0.23070832391E-01 -0.13829476652E-02  0.10131160974E-02  0.23134438738E-01  0.00000000000E+00 0. -1.
     999901    1    3    3    0    0 -0.54043980800E-01 -0.39145641348E-02 -0.10636911497E+00  0.88805994409E+00  0.88000000000E+00 0. -1.
        -11    1    4    4    0    0  0.25199650492E-01 -0.61959711834E-02  0.47686754763E-01  0.54292726443E-01  0.51100000000E-03 0. -1.
         11    1    4    4    0    0  0.51915162700E-01  0.11493482983E-01  0.57669244109E-01  0.78442890732E-01  0.51100000000E-03 0.  1.
</event>
<event>
 8    1  0.1030163E+005  0.1043930E+01  0.7957747E-01            NaN
         13   -1    0    0    0    0  0.00000000000E+00  0.00000000000E+00  0.74505805969E-08  0.10566000000E+00  0.10566000000E+00 0. -1.
     999900   -1    0    0    0    0 -0.00000000000E+00 -0.00000000000E+00 -0.74505805969E-08  0.93827000000E+00  0.93827000000E+00 0. -1.
     999902    2    1    2    0    0 -0.26237517753E-02  0.70247052540E-02 -0.22141741637E-01  0.10205529326E+01  0.10202851567E+01 0.  0.
     999903    2    3    3    0    0 -0.91821837605E-01 -0.45219023971E-01  0.76219627776E-01  0.12905943024E+00  0.19258631484E-01 0.  0.
         14    1    1    2    0    0  0.26237517753E-02 -0.70247052540E-02  0.22141741637E-01  0.23377067395E-01  0.00000000000E+00 0. -1.
     999901    1    3    3    0    0  0.89198085830E-01  0.52243729225E-01 -0.98361369412E-01  0.89149350236E+00  0.88000000000E+00 0. -1.
        -11    1    4    4    0    0 -0.26029493974E-01 -0.89847402970E-02  0.30644879327E-01  0.41202304119E-01  0.51100000000E-03 0.  1.
         11    1    4    4    0    0 -0.65792343631E-01 -0.36234283674E-01  0.45574748449E-01  0.87857126125E-01  0.51100000000E-03 0. -1.
</event>
<event>
 8    1  0.1030163E+005  0.1043930E+01  0.7957747E-01            NaN
         13   -1    0    0    0    0  0.00000000000E+00  0.00000000000E+00  0.74505805969E-08  0.10566000000E+00  0.10566000000E+00 0. -1.
     999900   -1    0    0    0    0 -0.00000000000E+00 -0.00000000000E+00 -0.74505805969E-08  0.93827000000E+00  0.93827000000E+00 0.  1.
     999902    2    1    2    0    0  0.16173581873E-01  0.15646962955E-01  0.49486732644E-02  0.10208886987E+01  0.10206286462E+01 0.  0.
     999903    2    3    3    0    0  0.42299163555E-01  0.11108498104E+00  0.58440934844E-01  0.13372897045E+00  0.18412018407E-01 0.  0.
         14    1    1    2    0    0 -0.16173581873E-01 -0.15646962955E-01 -0.49486732644E-02  0.23041301339E-01  0.00000000000E+00 0. -1.
     999901    1    3    3    0    0 -0.26125581683E-01 -0.95438018083E-01 -0.53492261580E-01  0.88715972821E+00  0.88000000000E+00 0.  1.
        -11    1    4    4    0    0  0.19732641809E-01  0.36785751367E-01  0.12840090388E-01  0.43677198841E-01  0.51100000000E-03 0.  1.
         11    1    4    4    0    0  0.22566521746E-01  0.74299229671E-01  0.45600844456E-01  0.90051771607E-01  0.51100000000E-03 0. -1.
</event>
<event>
 8    1  0.1030163E+005  0.1043930E+01  0.7957747E-01            NaN
         13   -1    0    0    0    0  0.00000000000E+00  0.00000000000E+00  0.74505805969E-08  0.10566000000E+00  0.10566000000E+00 0. -1.
     999900   -1    0    0    0    0 -0.00000000000E+00 -0.00000000000E+00 -0.74505805969E-08  0.93827000000E+00  0.93827000000E+00 0. -1.
     999902    2    1    2    0    0  0.76444686368E-02  0.21167686880E-01 -0.82750133176E-02  0.10199511611E+01  0.10196692534E+01 0.  0.
     999903    2    3    3    0    0  0.51558464448E-01  0.10339036888E+00  0.61159795310E-01  0.13230810160E+00  0.20422280832E-01 0.  0.
         14    1    1    2    0    0 -0.76444686368E-02 -0.21167686880E-01  0.82750133176E-02  0.23978838879E-01  0.00000000000E+00 0.  1.
     999901    1    3    3    0    0 -0.43913995812E-01 -0.82222681997E-01 -0.69434808627E-01  0.88764305952E+00  0.88000000000E+00 0. -1.
        -11    1    4    4    0    0  0.41115261085E-01  0.70381362030E-01  0.51278828645E-01  0.96300468345E-01  0.51100000000E-03 0. -1.
         11    1    4    4    0    0  0.10443203363E-01  0.33009006847E-01  0.98809666643E-02  0.36007633257E-01  0.51100000000E-03 0.  1.
</event>
<event>
 8    1  0.1030163E+005  0.1043930E+01  0.7957747E-01            NaN
         13   -1    0    0    0    0  0.00000000000E+00  0.00000000000E+00  0.74505805969E-08  0.10566000000E+00  0.10566000000E+00 0.  1.
     999900   -1    0    0    0    0 -0.00000000000E+00 -0.00000000000E+00 -0.74505805969E-08  0.93827000000E+00  0.93827000000E+00 0.  1.
     999902    2    1    2    0    0 -0.66057985325E-02  0.93076745922E-02 -0.20771803290E-01  0.10202290044E+01  0.10199536677E+01 0.  0.
     999903    2    3    3    0    0 -0.55181425850E-01 -0.11525500652E+00  0.88580605602E-02  0.12963741342E+00  0.19967158907E-01 0.  0.
         14    1    1    2    0    0  0.66057985325E-02 -0.93076745922E-02  0.20771803290E-01  0.23700995601E-01  0.00000000000E+00 0.  1.
     999901    1    3    3    0    0  0.48575627317E-01  0.12456268111E+00 -0.29629863850E-01  0.89059159098E+00  0.88000000000E+00 0. -1.
        -11    1    4    4    0    0 -0.28634733380E-01 -0.58112214924E-01  0.14455030386E-01  0.66379111952E-01  0.51100000000E-03 0.  1.
         11    1    4    4    0    0 -0.26546692470E-01 -0.57142791593E-01 -0.55969698255E-02  0.63258301466E-01  0.51100000000E-03 0. -1.
</event>
<event>
 8    1  0.1030163E+005  0.1043930E+01  0.7957747E-01            NaN
         13   -1    0    0    0    0  0.00000000000E+00  0.00000000000E+00  0.74505805969E-08  0.10566000000E+00  0.10566000000E+00 0. -1.
     999900   -1    0    0    0    0 -0.00000000000E+00 -0.00000000000E+00 -0.74505805969E-08  0.93827000000E+00  0.93827000000E+00 0. -1.
     999902    2    1    2    0    0  0.10721036830E-01 -0.66800394196E-02  0.21432183479E-01  0.10190522580E+01  0.10187485473E+01 0.  0.
     999903    2    3    3    0    0  0.10896354656E+00  0.59500590530E-01 -0.31489368532E-01  0.12953994379E+00  0.19381484806E-01 0.  0.
         14    1    1    2    0    0 -0.10721036830E-01  0.66800394196E-02 -0.21432183479E-01  0.24877741980E-01  0.00000000000E+00 0.  1.
     999901    1    3    3    0    0 -0.98242509734E-01 -0.66180629950E-01  0.52921552011E-01  0.88951231423E+00  0.88000000000E+00 0.  1.
        -11    1    4    4    0    0  0.59053930738E-01  0.38401476989E-01 -0.25940302194E-01  0.75067972994E-01  0.51100000000E-03 0.  1.
         11    1    4    4    0    0  0.49909615827E-01  0.21099113541E-01 -0.55490663382E-02  0.54471970796E-01  0.51100000000E-03 0. -1.
</event>
<event>
 8    1  0.1030163E+005  0.1043930E+01  0.7957747E-01            NaN
         13   -1    0    0    0    0  0.00000000000E+00  0.00000000000E+00  0.74505805969E-08  0.10566000000E+00  0.10566000000E+00 0.  1.
     999900   -1    0    0    0    0 -0.00000000000E+00 -0.00000000000E+00 -0.74505805969E-08  0.93827000000E+00  0.93827000000E+00 0. -1.
     999902    2    1    2    0    0 -0.13142038913E-01 -0.18882722511E-01  0.40890862379E-02  0.10205635492E+01  0.10202960193E+01 0.  0.
     999903    2    3    3    0    0  0.22885042312E-01 -0.11442790972E+00  0.60425429190E-01  0.13286956088E+00  0.19637108521E-01 0.  0.
         14    1    1    2    0    0  0.13142038913E-01  0.18882722511E-01 -0.40890862379E-02  0.23366450789E-01  0.00000000000E+00 0.  1.
     999901    1    3    3    0    0 -0.36027081225E-01  0.95545187210E-01 -0.56336342952E-01  0.88769398833E+00  0.88000000000E+00 0. -1.
        -11    1    4    4    0    0  0.11680339936E-01 -0.75741784282E-01  0.29632009949E-01  0.82167909563E-01  0.51100000000E-03 0.  1.
         11    1    4    4    0    0  0.11204702376E-01 -0.38686125439E-01  0.30793419241E-01  0.50701651318E-01  0.51100000000E-03 0. -1.
</event>
<event>
 8    1  0.1030163E+005  0.1043930E+01  0.7957747E-01            NaN
         13   -1    0    0    0    0  0.00000000000E+00  0.00000000000E+00  0.74505805969E-08  0.10566000000E+00  0.10566000000E+00 0. -1.
     999900   -1    0    0    0    0 -0.00000000000E+00 -0.00000000000E+00 -0.74505805969E-08  0.93827000000E+00  0.93827000000E+00 0. -1.
     999902    2    1    2    0    0 -0.10445929833E-02  0.23290926877E-01 -0.48280802446E-02  0.10201209931E+01  0.10198431114E+01 0.  0.
     999903    2    3    3    0    0  0.10224060824E+00 -0.75610007461E-01  0.23063100039E-02  0.12854927581E+00  0.18697113236E-01 0.  0.
         14    1    1    2    0    0  0.10445929833E-02 -0.23290926877E-01  0.48280802446E-02  0.23809006870E-01  0.00000000000E+00 0. -1.
     999901    1    3    3    0    0 -0.10328520122E+00  0.98900934338E-01 -0.71343902485E-02  0.89157171732E+00  0.88000000000E+00 0.  1.
        -11    1    4    4    0    0  0.30101711524E-01 -0.33317220322E-01  0.70090570924E-03  0.44909938727E-01  0.51100000000E-03 0.  1.
         11    1    4    4    0    0  0.72138896716E-01 -0.42292787139E-01  0.16054042947E-02  0.83639337081E-01  0.51100000000E-03 0. -1.
</event>
<event>
 8    1  0.1030163E+005  0.1043930E+01  0.7957747E-01            NaN
         13   -1    0    0    0    0  0.00000000000E+00  0.00000000000E+00  0.74505805969E-08  0.10566000000E+00  0.10566000000E+00 0. -1.
     999900   -1    0    0    0    0 -0.00000000000E+00 -0.00000000000E+00 -0.74505805969E-08  0.93827000000E+00  0.93827000000E+00 0. -1.
     999902    2    1    2    0    0 -0.23158908468E-01 -0.67977482046E-02 -0.45051831392E-03  0.10197898387E+01  0.10195040793E+01 0.  0.
     999903    2    3    3    0    0  0.67963111321E-01  0.66418857304E-01  0.83576987340E-01  0.12809229157E+00  0.19800839366E-01 0.  0.
         14    1    1    2    0    0  0.23158908468E-01  0.67977482046E-02  0.45051831392E-03  0.24140161326E-01  0.00000000000E+00 0. -1.
     999901    1    3    3    0    0 -0.91122019790E-01 -0.73216605508E-01 -0.84027505654E-01  0.89169754711E+00  0.88000000000E+00 0. -1.
        -11    1    4    4    0    0  0.27886660054E-01  0.38098552538E-01  0.49081495905E-01  0.68105945964E-01  0.51100000000E-03 0. -1.
         11    1    4    4    0    0  0.40076451267E-01  0.28320304766E-01  0.34495491435E-01  0.59986345601E-01  0.51100000000E-03 0.  1.
</event>
<event>
 8    1  0.1030163E+005  0.1043930E+01  0.7957747E-01            NaN
         13   -1    0    0    0    0  0.00000000000E+00  0.00000000000E+00  0.74505805969E-08  0.10566000000E+00  0.10566000000E+00 0.  1.
     999900   -1    0    0    0    0 -0.00000000000E+00 -0.00000000000E+00 -0.74505805969E-08  0.93827000000E+00  0.93827000000E+00 0.  1.
     999902    2    1    2    0    0  0.21489180506E-01 -0.67274451612E-02 -0.24842234009E-02  0.10212757562E+01  0.10210244637E+01 0.  0.
     999903    2    3    3    0    0 -0.10100912706E+00 -0.55928895893E-01 -0.56204455818E-01  0.12980927813E+00  0.18990068192E-01 0.  0.
         14    1    1    2    0    0 -0.21489180506E-01  0.67274451612E-02  0.24842234009E-02  0.22654243821E-01  0.00000000000E+00 0.  1.
     999901    1    3    3    0    0  0.12249830757E+00  0.49201450732E-01  0.53720232417E-01  0.89146647805E+00  0.88000000000E+00 0. -1.
        -11    1    4    4    0    0 -0.78180829905E-01 -0.42963480313E-01 -0.51877049981E-01  0.10319686158E+00  0.51100000000E-03 0. -1.
         11    1    4    4    0    0 -0.22828297155E-01 -0.12965415580E-01 -0.43274058367E-02  0.26612416547E-01  0.51100000000E-03 0.  1.
</event>
<event>
 8    1  0.1030163E+005  0.1043930E+01  0.7957747E-01            NaN
         13   -1    0    0    0    0  0.00000000000E+00  0.00000000000E+00  0.74505805969E-08  0.10566000000E+00  0.10566000000E+00 0.  1.
     999900   -1    0    0    0    0 -0.00000000000E+00 -0.00000000000E+00 -0.74505805969E-08  0.93827000000E+00  0.93827000000E+00 0.  1.
     999902    2    1    2    0    0 -0.21815748463E-01 -0.11054204864E-01  0.41143688906E-02  0.10191297912E+01  0.10188279938E+01 0.  0.
     999903    2    3    3    0    0 -0.72275608329E-01 -0.93351643684E-01 -0.55437392236E-01  0.13184997165E+00  0.19308485902E-01 0.  0.
         14    1    1    2    0    0  0.21815748463E-01  0.11054204864E-01 -0.41143688906E-02  0.24800208821E-01  0.00000000000E+00 0. -1.
     999901    1    3    3    0    0  0.50459859865E-01  0.82297438820E-01  0.59551761127E-01  0.88727981953E+00  0.88000000000E+00 0. -1.
        -11    1    4    4    0    0 -0.30099918807E-01 -0.48733964932E-01 -0.35051174640E-01  0.67155419847E-01  0.51100000000E-03 0. -1.
         11    1    4    4    0    0 -0.42175689522E-01 -0.44617678751E-01 -0.20386217596E-01  0.64694551801E-01  0.51100000000E-03 0.  1.
</event>
<event>
 8    1  0.1030163E+005  0.1043930E+01  0.7957747E-01            NaN
         13   -1    0    0    0    0  0.00000000000E+00  0.00000000000E+00  0.74505805969E-08  0.10566000000E+00  0.10566000000E+00 0. -1.
     999900   -1    0    0    0    0 -0.00000000000E+00 -0.00000000000E+00 -0.74505805969E-08  0.93827000000E+00  0.93827000000E+00 0.  1.
     999902    2    1    2    0    0 -0.24130216424E-02  0.16212177827E-01 -0.17195901083E-01  0.10201738135E+01  0.10198971778E+01 0.  0.
     999903    2    3    3    0    0  0.17557053444E-02  0.12791934697E+00 -0.30766852968E-01  0.13299849786E+00  0.19379354011E-01 0.  0.
         14    1    1    2    0    0  0.24130216424E-02 -0.16212177827E-01  0.17195901083E-01  0.23756186508E-01  0.00000000000E+00 0. -1.
     999901    1    3    3    0    0 -0.41687269868E-02 -0.11170716914E+00  0.13570951885E-01  0.88717531563E+00  0.88000000000E+00 0. -1.
        -11    1    4    4    0    0  0.77789910957E-02  0.24119652734E-01 -0.77410336384E-02  0.26503869025E-01  0.51100000000E-03 0.  1.
         11    1    4    4    0    0 -0.60232857513E-02  0.10379969424E+00 -0.23025819330E-01  0.10649462884E+00  0.51100000000E-03 0. -1.
</event>
<event>
 8    1  0.1030163E+005  0.1043930E+01  0.7957747E-01            NaN
         13   -1    0    0    0    0  0.00000000000E+00  0.00000000000E+00  0.74505805969E-08  0.10566000000E+00  0.10566000000E+00 0.  1.
     999900   -1    0    0    0    0 -0.00000000000E+00 -0.00000000000E+00 -0.74505805969E-08  0.93827000000E+00  0.93827000000E+00 0.  1.
     999902    2    1    2    0    0  0.17654567590E-01  0.44276003644E-02  0.16143387304E-01  0.10196010799E+01  0.10193107797E+01 0.  0.
     999903    2    3    3    0    0 -0.74024680397E-01 -0.10276643725E+00  0.25244681545E-02  0.12826437514E+00  0.20119221084E-01 0.  0.
         14    1    1    2    0    0 -0.17654567590E-01 -0.44276003644E-02 -0.16143387304E-01  0.24328920145E-01  0.00000000000E+00 0.  1.
     999901    1    3    3    0    0  0.91679247986E-01  0.10719403762E+00  0.13618919149E-01  0.89133670471E+00  0.88000000000E+00 0.  1.
        -11    1    4    4    0    0 -0.41276131347E-01 -0.48234796619E-01  0.97976570067E-02  0.64238382822E-01  0.51100000000E-03 0. -1.
         11    1    4    4    0    0 -0.32748549049E-01 -0.54531640636E-01 -0.72731888521E-02  0.64025992318E-01  0.51100000000E-03 0.  1.
</event>
<event>
 8    1  0.1030163E+005  0.1043930E+01  0.7957747E-01            NaN
         13   -1    0    0    0    0  0.00000000000E+00  0.00000000000E+00  0.74505805969E-08  0.10566000000E+00  0.10566000000E+00 0. -1.
     999900   -1    0    0    0    0 -0.00000000000E+00 -0.00000000000E+00 -0.74505805969E-08  0.93827000000E+00  0.93827000000E+00 0. -1.
     999902    2    1    2    0    0 -0.17090590185E-02  0.36566500657E-02 -0.24059099692E-01  0.10195346674E+01  0.10192427610E+01 0.  0.
     999903    2    3    3    0    0  0.25267214941E-01  0.75059882813E-02 -0.12874437576E+00  0.13291099091E+00  0.19885804084E-01 0.  0.
         14    1    1    2    0    0  0.17090590185E-02 -0.36566500657E-02  0.24059099692E-01  0.24395332554E-01  0.00000000000E+00 0. -1.
     999901    1    3    3    0    0 -0.26976273960E-01 -0.38493382156E-02  0.10468527607E+00  0.88662367653E+00  0.88000000000E+00 0.  1.
        -11    1    4    4    0    0  0.14064553908E-01 -0.61210936304E-02 -0.62359874477E-01  0.64220670580E-01  0.51100000000E-03 0.  1.
         11    1    4    4    0    0  0.11202661033E-01  0.13627081912E-01 -0.66384501285E-01  0.68690320334E-01  0.51100000000E-03 0. -1.
</event>
<event>
 8    1  0.1030163E+005  0.1043930E+01  0.7957747E-01            NaN
         13   -1    0    0    0    0  0.00000000000E+00  0.00000000000E+00  0.74505805969E-08  0.10566000000E+00  0.10566000000E+00 0. -1.
     999900   -1    0    0    0    0 -0.00000000000E+00 -0.00000000000E+00 -0.74505805969E-08  0.93827000000E+00  0.93827000000E+00 0. -1.
     999902    2    1    2    0    0 -0.35066263516E-02 -0.22792914885E-01 -0.99231551305E-02  0.10188245742E+01  0.10185152088E+01 0.  0.
     999903    2    3    3    0    0 -0.10231751338E+00  0.68250407193E-01  0.28012268966E-01  0.12781864026E+00  0.20637973762E-01 0.  0.
         14    1    1    2    0    0  0.35066263516E-02  0.22792914885E-01  0.99231551305E-02  0.25105425810E-01  0.00000000000E+00 0. -1.
     999901    1    3    3    0    0  0.98810887024E-01 -0.91043322079E-01 -0.37935424096E-01  0.89100593393E+00  0.88000000000E+00 0. -1.
        -11    1    4    4    0    0 -0.83726739926E-01  0.45940210819E-01  0.18699741055E-01  0.97317066259E-01  0.51100000000E-03 0.  1.
         11    1    4    4    0    0 -0.18590773450E-01  0.22310196374E-01  0.93125279109E-02  0.30501574005E-01  0.51100000000E-03 0. -1.
</event>
<event>
 8    1  0.1030163E+005  0.1043930E+01  0.7957747E-01            NaN
         13   -1    0    0    0    0  0.00000000000E+00  0.00000000000E+00  0.74505805969E-08  0.10566000000E+00  0.10566000000E+00 0. -1.
     999900   -1    0    0    0    0 -0.00000000000E+00 -0.00000000000E+00 -0.74505805969E-08  0.93827000000E+00  0.93827000000E+00 0.  1.
     999902    2    1    2    0    0  0.23103114228E-01  0.28830557287E-02  0.52085636398E-02  0.10200721914E+01  0.10197931558E+01 0.  0.
     999903    2    3    3    0    0 -0.11297249494E+00  0.21058755965E-01  0.49990678351E-01  0.12830295817E+00  0.27501369748E-01 0.  0.
         14    1    1    2    0    0 -0.23103114228E-01 -0.28830557287E-02 -0.52085636398E-02  0.23857808628E-01  0.00000000000E+00 0.  1.
     999901    1    3    3    0    0  0.13607560916E+00 -0.18175700236E-01 -0.44782114711E-01  0.89176923320E+00  0.88000000000E+00 0.  1.
        -11    1    4    4    0    0 -0.72977445066E-01  0.26188930939E-01  0.28500196657E-01  0.82608049987E-01  0.51100000000E-03 0.  1.
         11    1    4    4    0    0 -0.39995049870E-01 -0.51301749738E-02  0.21490481694E-01  0.45694908183E-01  0.51100000000E-03 0. -1.
</event>
<event>
 8    1  0.1030163E+005  0.1043930E+01  0.7957747E-01            NaN
         13   -1    0    0    0    0  0.00000000000E+00  0.00000000000E+00  0.74505805969E-08  0.10566000000E+00  0.10566000000E+00 0. -1.
     999900   -1    0    0    0    0 -0.00000000000E+00 -0.00000000000E+00 -0.74505805969E-08  0.93827000000E+00  0.93827000000E+00 0.  1.
     999902    2    1    2    0    0  0.56360624956E-02 -0.24386151025E-02  0.22704670478E-01  0.10204094961E+01  0.10201383855E+01 0.  0.
     999903    2    3    3    0    0  0.17345040800E-01  0.56411682034E-02  0.13113599184E+00  0.13364022814E+00  0.18176605959E-01 0.  0.
         14    1    1    2    0    0 -0.56360624956E-02  0.24386151025E-02 -0.22704670478E-01  0.23520503940E-01  0.00000000000E+00 0.  1.
     999901    1    3    3    0    0 -0.11708978304E-01 -0.80797833059E-02 -0.10843132136E+00  0.88676926792E+00  0.88000000000E+00 0.  1.
        -11    1    4    4    0    0  0.95468920271E-02  0.10487116327E-01  0.49686766043E-01  0.51673577359E-01  0.51100000000E-03 0. -1.
         11    1    4    4    0    0  0.77981487728E-02 -0.48459481234E-02  0.81449225793E-01  0.81966650784E-01  0.51100000000E-03 0.  1.
</event>
<event>
 8    1  0.1030163E+005  0.1043930E+01  0.7957747E-01            NaN
         13   -1    0    0    0    0  0.00000000000E+00  0.00000000000E+00  0.74505805969E-08  0.10566000000E+00  0.10566000000E+00 0. -1.
     999900   -1    0    0    0    0 -0.00000000000E+00 -0.00000000000E+00 -0.74505805969E-08  0.93827000000E+00  0.93827000000E+00 0.  1.
     999902    2    1    2    0    0  0.13569204279E-01  0.19349983138E-01  0.41390770823E-02  0.10199367278E+01  0.10196544766E+01 0.  0.
     999903    2    3    3    0    0 -0.10238150076E+00  0.60937882538E-01  0.48628054053E-01  0.13024386593E+00  0.20084315918E-01 0.  0.
         14    1    1    2    0    0 -0.13569204279E-01 -0.19349983138E-01 -0.41390770823E-02  0.23993272209E-01  0.00000000000E+00 0. -1.
     999901    1    3    3    0    0  0.11595070504E+00 -0.41587899400E-01 -0.44488976971E-01  0.88969286186E+00  0.88000000000E+00 0. -1.
        -11    1    4    4    0    0 -0.49043815833E-01  0.34350162941E-01  0.34067027784E-01  0.68891603760E-01  0.51100000000E-03 0. -1.
         11    1    4    4    0    0 -0.53337684923E-01  0.26587719598E-01  0.14561026269E-01  0.61352262170E-01  0.51100000000E-03 0.  1.
</event>
<event>
 8    1  0.1030163E+005  0.1043930E+01  0.7957747E-01            NaN
         13   -1    0    0    0    0  0.00000000000E+00  0.00000000000E+00  0.74505805969E-08  0.10566000000E+00  0.10566000000E+00 0.  1.
     999900   -1    0    0    0    0 -0.00000000000E+00 -0.00000000000E+00 -0.74505805969E-08  0.93827000000E+00  0.93827000000E+00 0. -1.
     999902    2    1    2    0    0  0.21417225736E-01 -0.28253458397E-02  0.85044155720E-02  0.10207135140E+01  0.10204494463E+01 0.  0.
     999903    2    3    3    0    0 -0.11008405501E+00 -0.63150394691E-01  0.95688123042E-02  0.12889916601E+00  0.20419630586E-01 0.  0.
         14    1    1    2    0    0 -0.21417225736E-01  0.28253458397E-02 -0.85044155720E-02  0.23216485986E-01  0.00000000000E+00 0.  1.
     999901    1    3    3    0    0  0.13150128075E+00  0.60325048851E-01 -0.10643967322E-02  0.89181434800E+00  0.88000000000E+00 0. -1.
        -11    1    4    4    0    0 -0.24378865130E-01 -0.21597535234E-01  0.84174771091E-02  0.33643686407E-01  0.51100000000E-03 0. -1.
         11    1    4    4    0    0 -0.85705189880E-01 -0.41552859457E-01  0.11513351951E-02  0.95255479607E-01  0.51100000000E-03 0.  1.
</event>
<event>
 8    1  0.1030163E+005  0.1043930E+01  0.7957747E-01            NaN
         13   -1    0    0    0    0  0.00000000000E+00  0.00000000000E+00  0.74505805969E-08  0.10566000000E+00  0.10566000000E+00 0.  1.
     999900   -1    0    0    0    0 -0.00000000000E+00 -0.00000000000E+00 -0.74505805969E-08  0.93827000000E+00  0.93827000000E+00 0. -1.
     999902    2    1    2    0    0 -0.50387709274E-02  0.12787865038E-02 -0.23412258107E-01  0.10199475411E+01  0.10196655472E+01 0.  0.
     999903    2    3    3    0    0 -0.11033476083E+00 -0.58720612892E-01 -0.35780557059E-01  0.13155565217E+00  0.20118934572E-01 0.  0.
         14    1    1    2    0    0  0.50387709274E-02 -0.12787865038E-02  0.23412258107E-01  0.23982458945E-01  0.00000000000E+00 0.  1.
     999901    1    3    3    0    0  0.10529598990E+00  0.59999399396E-01  0.12368298952E-01  0.88839188889E+00  0.88000000000E+00 0. -1.
        -11    1    4    4    0    0 -0.94730023402E-01 -0.45415318416E-01 -0.35966697831E-01  0.11104140198E+00  0.51100000000E-03 0. -1.
         11    1    4    4    0    0 -0.15604737429E-01 -0.13305294476E-01  0.18614077191E-03  0.20514250187E-01  0.51100000000E-03 0.  1.
</event>
<event>
 8    1  0.1030163E+005  0.1043930E+01  0.7957747E-01            NaN
         13   -1    0    0    0    0  0.00000000000E+00  0.00000000000E+00  0.74505805969E-08  0.10566000000E+00  0.10566000000E+00 0. -1.
     999900   -1    0    0    0    0 -0.00000000000E+00 -0.00000000000E+00 -0.74505805969E-08  0.93827000000E+00  0.93827000000E+00 0.  1.
     999902    2    1    2    0    0 -0.15649075865E-01 -0.13036272318E-01 -0.53314968505E-03  0.10235554517E+01  0.10233526471E+01 0.  0.
     999903    2    3    3    0    0  0.75129519613E-01  0.80036361637E-01 -0.69520796677E-01  0.13133206930E+00  0.19097312787E-01 0.  0.
         14    1    1    2    0    0  0.15649075865E-01  0.13036272318E-01  0.53314968505E-03  0.20374548338E-01  0.00000000000E+00 0.  1.
     999901    1    3    3    0    0 -0.90778595479E-01 -0.93072633955E-01  0.68987646992E-01  0.89222338236E+00  0.88000000000E+00 0.  1.
        -11    1    4    4    0    0  0.55485859195E-01  0.70097530197E-01 -0.55909105637E-01  0.10544398287E+00  0.51100000000E-03 0. -1.
         11    1    4    4    0    0  0.19643660418E-01  0.99388314404E-02 -0.13611691040E-01  0.25888086430E-01  0.51100000000E-03 0.  1.
</event>
<event>
 8    1  0.1030163E+005  0.1043930E+01  0.7957747E-01            NaN
         13   -1    0    0    0    0  0.00000000000E+00  0.00000000000E+00  0.74505805969E-08  0.10566000000E+00  0.10566000000E+00 0. -1.
     999900   -1    0    0    0    0 -0.00000000000E+00 -0.00000000000E+00 -0.74505805969E-08  0.93827000000E+00  0.93827000000E+00 0.  1.
     999902    2    1    2    0    0  0.20053237525E-01 -0.36896766135E-02  0.13257771316E-01  0.10196089279E+01  0.10193188173E+01 0.  0.
     999903    2    3    3    0    0  0.13959552925E-01 -0.65678888855E-01 -0.10846644608E+00  0.12904922717E+00  0.19497372900E-01 0.  0.
         14    1    1    2    0    0 -0.20053237525E-01  0.36896766135E-02 -0.13257771316E-01  0.24321072119E-01  0.00000000000E+00 0.  1.
     999901    1    3    3    0    0  0.60936846001E-02  0.61989212242E-01  0.12172421739E+00  0.89055970071E+00  0.88000000000E+00 0. -1.
        -11    1    4    4    0    0 -0.27346407883E-02 -0.12909189180E-01 -0.32302306510E-01  0.34897357384E-01  0.51100000000E-03 0. -1.
         11    1    4    4    0    0  0.16694193714E-01 -0.52769699676E-01 -0.76164139566E-01  0.94151869788E-01  0.51100000000E-03 0.  1.
</event>
<event>
 8    1  0.1030163E+005  0.1043930E+01  0.7957747E-01            NaN
         13   -1    0    0    0    0  0.00000000000E+00  0.00000000000E+00  0.74505805969E-08  0.10566000000E+00  0.10566000000E+00 0. -1.
     999900   -1    0    0    0    0 -0.00000000000E+00 -0.00000000000E+00 -0.74505805969E-08  0.93827000000E+00  0.93827000000E+00 0. -1.
     999902    2    1    2    0    0 -0.13356914843E-01 -0.17519267115E-01 -0.90803534000E-02  0.10201017665E+01  0.10198234304E+01 0.  0.
     999903    2    3    3    0    0 -0.51737599066E-02  0.12616353012E+00  0.11413902464E-01  0.12817591488E+00  0.18835707062E-01 0.  0.
         14    1    1    2    0    0  0.13356914843E-01  0.17519267115E-01  0.90803534000E-02  0.23828233511E-01  0.00000000000E+00 0. -1.
     999901    1    3    3    0    0 -0.81831549366E-02 -0.14368279724E+00 -0.20494255864E-01  0.89192585161E+00  0.88000000000E+00 0. -1.
        -11    1    4    4    0    0 -0.23347182448E-02  0.94973843573E-01  0.49704417739E-03  0.95005210627E-01  0.51100000000E-03 0.  1.
         11    1    4    4    0    0 -0.28390416618E-02  0.31189686551E-01  0.10916858286E-01  0.33170704252E-01  0.51100000000E-03 0. -1.
</event>
<event>
 8    1  0.1030163E+005  0.1043930E+01  0.7957747E-01            NaN
         13   -1    0    0    0    0  0.00000000000E+00  0.00000000000E+00  0.74505805969E-08  0.10566000000E+00  0.10566000000E+00 0.  1.
     999900   -1    0    0    0    0 -0.00000000000E+00 -0.00000000000E+00 -0.74505805969E-08  0.93827000000E+00  0.93827000000E+00 0. -1.
     999902    2    1    2    0    0 -0.13650782429E-01 -0.22071373307E-01 -0.69465445379E-03  0.10179690307E+01  0.10176379393E+01 0.  0.
     999903    2    3    3    0    0  0.73935178604E-01  0.23508789080E-01 -0.98347160874E-01  0.12707910275E+00  0.21397675191E-01 0.  0.
         14    1    1    2    0    0  0.13650782429E-01  0.22071373307E-01  0.69465445379E-03  0.25960969269E-01  0.00000000000E+00 0.  1.
     999901    1    3    3    0    0 -0.87585961033E-01 -0.45580162387E-01  0.97652506421E-01  0.89088992798E+00  0.88000000000E+00 0.  1.
        -11    1    4    4    0    0  0.58617841452E-01  0.96203320905E-02 -0.67222615707E-01  0.89709215299E-01  0.51100000000E-03 0.  1.
         11    1    4    4    0    0  0.15317337152E-01  0.13888456989E-01 -0.31124545167E-01  0.37369887448E-01  0.51100000000E-03 0. -1.
</event>
<event>
 8    1  0.1030163E+005  0.1043930E+01  0.7957747E-01            NaN
         13   -1    0    0    0    0  0.00000000000E+00  0.00000000000E+00  0.74505805969E-08  0.10566000000E+00  0.10566000000E+00 0.  1.
     999900   -1    0    0    0    0 -0.00000000000E+00 -0.00000000000E+00 -0.74505805969E-08  0.93827000000E+00  0.93827000000E+00 0. -1.
     999902    2    1    2    0    0  0.24082951394E-02 -0.16831695660E-01  0.16240963890E-01  0.10204167107E+01  0.10201457684E+01 0.  0.
     999903    2    3    3    0    0  0.13089356523E-01 -0.13144769893E+00  0.10789457529E-01  0.13290297438E+00  0.98467963411E-02 0.  0.
         14    1    1    2    0    0 -0.24082951394E-02  0.16831695660E-01 -0.16240963890E-01  0.23513289271E-01  0.00000000000E+00 0.  1.
     999901    1    3    3    0    0 -0.10681061384E-01  0.11461600327E+00  0.54515063613E-02  0.88751373634E+00  0.88000000000E+00 0. -1.
        -11    1    4    4    0    0  0.35740340634E-02 -0.52385298983E-01  0.88121306190E-02  0.53243854444E-01  0.51100000000E-03 0.  1.
         11    1    4    4    0    0  0.95153224595E-02 -0.79062399947E-01  0.19773269097E-02  0.79659119940E-01  0.51100000000E-03 0. -1.
</event>
<event>
 8    1  0.1030163E+005  0.1043930E+01  0.7957747E-01            NaN
         13   -1    0    0    0    0  0.00000000000E+00  0.00000000000E+00  0.74505805969E-08  0.10566000000E+00  0.10566000000E+00 0.  1.
     999900   -1    0    0    0    0 -0.00000000000E+00 -0.00000000000E+00 -0.74505805969E-08  0.93827000000E+00  0.93827000000E+00 0.  1.
     999902    2    1    2    0    0  0.20846712791E-01  0.44963312677E-03 -0.12328873505E-01  0.10197062776E+01  0.10194185126E+01 0.  0.
     999903    2    3    3    0    0 -0.76485767271E-01  0.69445998950E-01  0.72336607136E-01  0.12762872842E+00  0.19587961118E-01 0.  0.
         14    1    1    2    0    0 -0.20846712791E-01 -0.44963312677E-03  0.12328873505E-01  0.24223722382E-01  0.00000000000E+00 0.  1.
     999901    1    3    3    0    0  0.97332480062E-01 -0.68996365823E-01 -0.84665480641E-01  0.89207754920E+00  0.88000000000E+00 0.  1.
        -11    1    4    4    0    0 -0.18554984959E-01  0.68972476620E-02  0.11586146702E-01  0.22942524022E-01  0.51100000000E-03 0. -1.
         11    1    4    4    0    0 -0.57930782312E-01  0.62548751288E-01  0.60750460434E-01  0.10468620440E+00  0.51100000000E-03 0.  1.
</event>
<event>
 8    1  0.1030163E+005  0.1043930E+01  0.7957747E-01            NaN
         13   -1    0    0    0    0  0.00000000000E+00  0.00000000000E+00  0.74505805969E-08  0.10566000000E+00  0.10566000000E+00 0.  1.
     999900   -1    0    0    0    0 -0.00000000000E+00 -0.00000000000E+00 -0.74505805969E-08  0.93827000000E+00  0.93827000000E+00 0.  1.
     999902    2    1    2    0    0 -0.85013149062E-02 -0.13380185048E-01 -0.17689495495E-01  0.10201766853E+01  0.10199001173E+01 0.  0.
     999903    2    3    3    0    0  0.10835984744E+00  0.66362954664E-01 -0.48630003373E-02  0.12878450532E+00  0.20393669368E-01 0.  0.
         14    1    1    2    0    0  0.85013149062E-02  0.13380185048E-01  0.17689495495E-01  0.23753314672E-01  0.00000000000E+00 0.  1.
     999901    1    3    3    0    0 -0.11686116235E+00 -0.79743139712E-01 -0.12826495158E-01  0.89139218000E+00  0.88000000000E+00 0.  1.
        -11    1    4    4    0    0  0.34887443732E-01  0.32114191472E-01  0.17324612708E-02  0.47452266196E-01  0.51100000000E-03 0. -1.
         11    1    4    4    0    0  0.73472403707E-01  0.34248763192E-01 -0.65954616081E-02  0.81332239127E-01  0.51100000000E-03 0.  1.
</event>
<event>
 8    1  0.1030163E+005  0.1043930E+01  0.7957747E-01            NaN
         13   -1    0    0    0    0  0.00000000000E+00  0.00000000000E+00  0.74505805969E-08  0.10566000000E+00  0.10566000000E+00 0. -1.
     999900   -1    0    0    0    0 -0.00000000000E+00 -0.00000000000E+00 -0.74505805969E-08  0.93827000000E+00  0.93827000000E+00 0. -1.
     999902    2    1    2    0    0  0.22375101925E-01 -0.28967524045E-02  0.65676491074E-02  0.10204316942E+01  0.10201611011E+01 0.  0.
     999903    2    3    3    0    0  0.60620164276E-01  0.11462065509E+00 -0.60761292838E-02  0.13170626360E+00  0.22291739187E-01 0.  0.
         14    1    1    2    0    0 -0.22375101925E-01  0.28967524045E-02 -0.65676491074E-02  0.23498305799E-01  0.00000000000E+00 0.  1.
     999901    1    3    3    0    0 -0.38245062351E-01 -0.11751740749E+00  0.12643778391E-01  0.88872543060E+00  0.88000000000E+00 0. -1.
        -11    1    4    4    0    0  0.30606703094E-01  0.58527693529E-01 -0.14233232947E-01  0.67565577221E-01  0.51100000000E-03 0.  1.
         11    1    4    4    0    0  0.30013461181E-01  0.56092961558E-01  0.81571036630E-02  0.64140686383E-01  0.51100000000E-03 0. -1.
</event>
<event>
 8    1  0.1030163E+005  0.1043930E+01  0.7957747E-01            NaN
         13   -1    0    0    0    0  0.00000000000E+00  0.00000000000E+00  0.74505805969E-08  0.10566000000E+00  0.10566000000E+00 0. -1.
     999900   -1    0    0    0    0 -0.00000000000E+00 -0.00000000000E+00 -0.74505805969E-08  0.93827000000E+00  0.93827000000E+00 0. -1.
     999902    2    1    2    0    0 -0.36175143166E-02 -0.21126271081E-01  0.11425150116E-01  0.10196413237E+01  0.10193519948E+01 0.  0.
     999903    2    3    3    0    0 -0.90816370188E-01 -0.13186314161E-01 -0.89959616325E-01  0.12950338260E+00  0.16028148985E-01 0.  0.
         14    1    1    2    0    0  0.36175143166E-02  0.21126271081E-01 -0.11425150116E-01  0.24288676267E-01  0.00000000000E+00 0.  1.
     999901    1    3    3    0    0  0.87198855871E-01 -0.79399569201E-02  0.10138476644E+00  0.89013794113E+00  0.88000000000E+00 0.  1.
        -11    1    4    4    0    0 -0.39251712420E-01 -0.31955763205E-02 -0.49172986612E-01  0.63001209269E-01  0.51100000000E-03 0.  1.
         11    1    4    4    0    0 -0.51564657768E-01 -0.99907378403E-02 -0.40786629713E-01  0.66502173330E-01  0.51100000000E-03 0. -1.
</event>
<event>
 8    1  0.1030163E+005  0.1043930E+01  0.7957747E-01            NaN
         13   -1    0    0    0    0  0.00000000000E+00  0.00000000000E+00  0.74505805969E-08  0.10566000000E+00  0.10566000000E+00 0.  1.
     999900   -1    0    0    0    0 -0.00000000000E+00 -0.00000000000E+00 -0.74505805969E-08  0.93827000000E+00  0.93827000000E+00 0.  1.
     999902    2    1    2    0    0  0.65440622575E-02 -0.14196267816E-01  0.15917440343E-01  0.10216202784E+01  0.10213766541E+01 0.  0.
     999903    2    3    3    0    0  0.78582488763E-01 -0.11588358180E-01  0.10604074778E+00  0.13408518240E+00  0.20608211122E-01 0.  0.
         14    1    1    2    0    0 -0.65440622575E-02  0.14196267816E-01 -0.15917440343E-01  0.22309721599E-01  0.00000000000E+00 0. -1.
     999901    1    3    3    0    0 -0.72038426506E-01 -0.26079096358E-02 -0.90123307433E-01  0.88753509600E+00  0.88000000000E+00 0.  1.
        -11    1    4    4    0    0  0.68033961864E-01 -0.16808078862E-01  0.87301232555E-01  0.11195042567E+00  0.51100000000E-03 0.  1.
         11    1    4    4    0    0  0.10548526899E-01  0.52197206818E-02  0.18739515221E-01  0.22134756729E-01  0.51100000000E-03 0. -1.
</event>
<event>
 8    1  0.1030163E+005  0.1043930E+01  0.7957747E-01            NaN
         13   -1    0    0    0    0  0.00000000000E+00  0.00000000000E+00  0.74505805969E-08  0.10566000000E+00  0.10566000000E+00 0. -1.
     999900   -1    0    0    0    0 -0.00000000000E+00 -0.00000000000E+00 -0.74505805969E-08  0.93827000000E+00  0.93827000000E+00 0.  1.
     999902    2    1    2    0    0 -0.60768895935E-02 -0.17890858257E-01  0.14699693194E-01  0.10199906521E+01  0.10197096832E+01 0.  0.
     999903    2    3    3    0    0 -0.50788469452E-01 -0.33865682010E-01 -0.11252664822E+00  0.12957453463E+00  0.20023996052E-01 0.  0.
         14    1    1    2    0    0  0.60768895935E-02  0.17890858257E-01 -0.14699693194E-01  0.23939347867E-01  0.00000000000E+00 0. -1.
     999901    1    3    3    0    0  0.44711579859E-01  0.15974823753E-01  0.12722634141E+00  0.89041611751E+00  0.88000000000E+00 0.  1.
        -11    1    4    4    0    0 -0.25874696869E-01 -0.54776369960E-02 -0.47843533480E-01  0.54669637477E-01  0.51100000000E-03 0.  1.
         11    1    4    4    0    0 -0.24913772584E-01 -0.28388045014E-01 -0.64683114736E-01  0.74904897149E-01  0.51100000000E-03 0. -1.
</event>
<event>
 8    1  0.1030163E+005  0.1043930E+01  0.7957747E-01            NaN
         13   -1    0    0    0    0  0.00000000000E+00  0.00000000000E+00  0.74505805969E-08  0.10566000000E+00  0.10566000000E+00 0.  1.
     999900   -1    0    0    0    0 -0.00000000000E+00 -0.00000000000E+00 -0.74505805969E-08  0.93827000000E+00  0.93827000000E+00 0. -1.
     999902    2    1    2    0    0  0.85401243794E-02 -0.15708097881E-01 -0.16229123075E-01  0.10197833129E+01  0.10194973971E+01 0.  0.
     999903    2    3    3    0    0 -0.71722711381E-01  0.80767752841E-01 -0.67847471903E-01  0.12938218613E+00  0.21653946893E-01 0.  0.
         14    1    1    2    0    0 -0.85401243794E-02  0.15708097881E-01  0.16229123075E-01  0.24146687128E-01  0.00000000000E+00 0.  1.
     999901    1    3    3    0    0  0.80262835760E-01 -0.96475850722E-01  0.51618348828E-01  0.89040112675E+00  0.88000000000E+00 0. -1.
        -11    1    4    4    0    0 -0.44557047406E-01  0.64717877377E-01 -0.49852244598E-01  0.93055045743E-01  0.51100000000E-03 0. -1.
         11    1    4    4    0    0 -0.27165663975E-01  0.16049875465E-01 -0.17995227305E-01  0.36327140382E-01  0.51100000000E-03 0.  1.
</event>
<event>
 8    1  0.1030163E+005  0.1043930E+01  0.7957747E-01            NaN
         13   -1    0    0    0    0  0.00000000000E+00  0.00000000000E+00  0.74505805969E-08  0.10566000000E+00  0.10566000000E+00 0. -1.
     999900   -1    0    0    0    0 -0.00000000000E+00 -0.00000000000E+00 -0.74505805969E-08  0.93827000000E+00  0.93827000000E+00 0. -1.
     999902    2    1    2    0    0  0.16372579927E-01  0.75779208556E-02 -0.15109509858E-01  0.10203973940E+01  0.10201260011E+01 0.  0.
     999903    2    3    3    0    0  0.58721714351E-01  0.31074965288E-01 -0.11410630385E+00  0.13352314951E+00  0.19856728639E-01 0.  0.
         14    1    1    2    0    0 -0.16372579927E-01 -0.75779208556E-02  0.15109509858E-01  0.23532606021E-01  0.00000000000E+00 0. -1.
     999901    1    3    3    0    0 -0.42349134424E-01 -0.23497044433E-01  0.98996793993E-01  0.88687424447E+00  0.88000000000E+00 0.  1.
        -11    1    4    4    0    0  0.23027890983E-01  0.17859859057E-02 -0.40771922391E-01  0.46862397348E-01  0.51100000000E-03 0. -1.
         11    1    4    4    0    0  0.35693823368E-01  0.29288979383E-01 -0.73334381461E-01  0.86660752161E-01  0.51100000000E-03 0.  1.
</event>
<event>
 8    1  0.1030163E+005  0.1043930E+01  0.7957747E-01            NaN
         13   -1    0    0    0    0  0.00000000000E+00  0.00000000000E+00  0.74505805969E-08  0.10566000000E+00  0.10566000000E+00 0.  1.
     999900   -1    0    0    0    0 -0.00000000000E+00 -0.00000000000E+00 -0.74505805969E-08  0.93827000000E+00  0.93827000000E+00 0.  1.
     999902    2    1    2    0    0  0.20506216874E-01 -0.74666863856E-02  0.78848348668E-02  0.10207259711E+01  0.10204621900E+01 0.  0.
     999903    2    3    3    0    0  0.11482082687E+00 -0.83143631915E-04  0.65607702793E-01  0.13377518789E+00  0.20189131583E-01 0.  0.
         14    1    1    2    0    0 -0.20506216874E-01  0.74666863856E-02 -0.78848348668E-02  0.23204028895E-01  0.00000000000E+00 0.  1.
     999901    1    3    3    0    0 -0.94314609993E-01 -0.73835427537E-02 -0.57722867927E-01  0.88695078321E+00  0.88000000000E+00 0. -1.
        -11    1    4    4    0    0  0.93831603172E-01 -0.13071933320E-02  0.61903001152E-01  0.11242028812E+00  0.51100000000E-03 0. -1.
         11    1    4    4    0    0  0.20989223696E-01  0.12240497001E-02  0.37047016415E-02  0.21354899772E-01  0.51100000000E-03 0.  1.
</event>
<event>
 8    1  0.1030163E+005  0.1043930E+01  0.7957747E-01            NaN
         13   -1    0    0    0    0  0.00000000000E+00  0.00000000000E+00  0.74505805969E-08  0.10566000000E+00  0.10566000000E+00 0. -1.
     999900   -1    0    0    0    0 -0.00000000000E+00 -0.00000000000E+00 -0.74505805969E-08  0.93827000000E+00  0.93827000000E+00 0. -1.
     999902    2    1    2    0    0 -0.19765125183E-01  0.81629931155E-02 -0.10932927282E-01  0.10199128493E+01  0.10196300293E+01 0.  0.
     999903    2    3    3    0    0 -0.66528893628E-01 -0.62994458605E-02  0.10998734042E+00  0.13029623335E+00  0.20349856668E-01 0.  0.
         14    1    1    2    0    0  0.19765125183E-01 -0.81629931155E-02  0.10932927282E-01  0.24017150728E-01  0.00000000000E+00 0. -1.
     999901    1    3    3    0    0  0.46763768445E-01  0.14462438976E-01 -0.12092026771E+00  0.88961661592E+00  0.88000000000E+00 0. -1.
        -11    1    4    4    0    0 -0.40200791784E-01  0.54055115683E-02  0.56718140776E-01  0.69731856633E-01  0.51100000000E-03 0. -1.
         11    1    4    4    0    0 -0.26328101844E-01 -0.11704957429E-01  0.53269199648E-01  0.60564376718E-01  0.51100000000E-03 0.  1.
</event>
<event>
 8    1  0.1030163E+005  0.1043930E+01  0.7957747E-01            NaN
         13   -1    0    0    0    0  0.00000000000E+00  0.00000000000E+00  0.74505805969E-08  0.10566000000E+00  0.10566000000E+00 0. -1.
     999900   -1    0    0    0    0 -0.00000000000E+00 -0.00000000000E+00 -0.74505805969E-08  0.93827000000E+00  0.93827000000E+00 0.  1.
     999902    2    1    2    0    0 -0.12796939226E-01  0.16379490941E-01 -0.19576490297E-01  0.10153767454E+01  0.10149751951E+01 0.  0.
     999903    2    3    3    0    0  0.63705435255E-01 -0.75293662375E-02  0.10336991428E+00  0.12322201376E+00  0.19576814326E-01 0.  0.
         14    1    1    2    0    0  0.12796939226E-01 -0.16379490941E-01  0.19576490297E-01  0.28553254620E-01  0.00000000000E+00 0. -1.
     999901    1    3    3    0    0 -0.76502374481E-01  0.23908857179E-01 -0.12294640458E+00  0.89215473162E+00  0.88000000000E+00 0.  1.
        -11    1    4    4    0    0  0.45215328733E-01 -0.31626663607E-02  0.55124545086E-01  0.71368095133E-01  0.51100000000E-03 0.  1.
         11    1    4    4    0    0  0.18490106522E-01 -0.43666998769E-02  0.48245369197E-01  0.51853918627E-01  0.51100000000E-03 0. -1.
</event>
<event>
 8    1  0.1030163E+005  0.1043930E+01  0.7957747E-01            NaN
         13   -1    0    0    0    0  0.00000000000E+00  0.00000000000E+00  0.74505805969E-08  0.10566000000E+00  0.10566000000E+00 0. -1.
     999900   -1    0    0    0    0 -0.00000000000E+00 -0.00000000000E+00 -0.74505805969E-08  0.93827000000E+00  0.93827000000E+00 0.  1.
     999902    2    1    2    0    0  0.16693697445E-01  0.13602441897E-01 -0.98291541983E-02  0.10202589579E+01  0.10199843249E+01 0.  0.
     999903    2    3    3    0    0 -0.91975788465E-02 -0.75929636617E-01 -0.10347106507E+00  0.13039651984E+00  0.21144406049E-01 0.  0.
         14    1    1    2    0    0 -0.16693697445E-01 -0.13602441897E-01  0.98291541983E-02  0.23671042060E-01  0.00000000000E+00 0. -1.
     999901    1    3    3    0    0  0.25891276292E-01  0.89532078514E-01  0.93641910867E-01  0.88986243810E+00  0.88000000000E+00 0. -1.
        -11    1    4    4    0    0 -0.15147247460E-02 -0.45746000852E-01 -0.45242816147E-01  0.64359649773E-01  0.51100000000E-03 0.  1.
         11    1    4    4    0    0 -0.76828541005E-02 -0.30183635765E-01 -0.58228248918E-01  0.66036870067E-01  0.51100000000E-03 0. -1.
</event>
<event>
 8    1  0.1030163E+005  0.1043930E+01  0.7957747E-01            NaN
         13   -1    0    0    0    0  0.00000000000E+00  0.00000000000E+00  0.74505805969E-08  0.10566000000E+00  0.10566000000E+00 0.  1.
     999900   -1    0    0    0    0 -0.00000000000E+00 -0.00000000000E+00 -0.74505805969E-08  0.93827000000E+00  0.93827000000E+00 0. -1.
     999902    2    1    2    0    0 -0.15039438185E-01  0.42947936324E-03  0.18620833978E-01  0.10199903966E+01  0.10197094216E+01 0.  0.
     999903    2    3    3    0    0 -0.16870728438E-01 -0.11373672071E+00 -0.56117266410E-01  0.12947197538E+00  0.19828809950E-01 0.  0.
         14    1    1    2    0    0  0.15039438185E-01 -0.42947936324E-03 -0.18620833978E-01  0.23939603411E-01  0.00000000000E+00 0. -1.
     999901    1    3    3    0    0  0.18312902535E-02  0.11416620007E+00  0.74738100388E-01  0.89051842121E+00  0.88000000000E+00 0.  1.
        -11    1    4    4    0    0 -0.13179715139E-01 -0.76564471248E-01 -0.47733497062E-01  0.91184269539E-01  0.51100000000E-03 0.  1.
         11    1    4    4    0    0 -0.36910132991E-02 -0.37172249460E-01 -0.83837693487E-02  0.38287705841E-01  0.51100000000E-03 0. -1.
</event>
<event>
 8    1  0.1030163E+005  0.1043930E+01  0.7957747E-01            NaN
         13   -1    0    0    0    0  0.00000000000E+00  0.00000000000E+00  0.74505805969E-08  0.10566000000E+00  0.10566000000E+00 0. -1.
     999900   -1    0    0    0    0 -0.00000000000E+00 -0.00000000000E+00 -0.74505805969E-08  0.93827000000E+00  0.93827000000E+00 0. -1.
     999902    2    1    2    0    0  0.40141933963E-02 -0.22677683223E-01  0.11094826153E-01  0.10183666232E+01  0.10180457225E+01 0.  0.
     999903    2    3    3    0    0 -0.14933757945E-01  0.12009770465E+00 -0.27977073338E-01  0.12580264816E+00  0.19927715944E-01 0.  0.
         14    1    1    2    0    0 -0.40141933963E-02  0.22677683223E-01 -0.11094826153E-01  0.25563376779E-01  0.00000000000E+00 0.  1.
     999901    1    3    3    0    0  0.18947951342E-01 -0.14277538788E+00  0.39071899491E-01  0.89256397506E+00  0.88000000000E+00 0.  1.
        -11    1    4    4    0    0 -0.12399676811E-03  0.61140772277E-01 -0.72296690639E-02  0.61568974700E-01  0.51100000000E-03 0. -1.
         11    1    4    4    0    0 -0.14809761177E-01  0.58956932376E-01 -0.20747404275E-01  0.64233673462E-01  0.51100000000E-03 0.  1.
</event>
<event>
 8    1  0.1030163E+005  0.1043930E+01  0.7957747E-01            NaN
         13   -1    0    0    0    0  0.00000000000E+00  0.00000000000E+00  0.74505805969E-08  0.10566000000E+00  0.10566000000E+00 0. -1.
     999900   -1    0    0    0    0 -0.00000000000E+00 -0.00000000000E+00 -0.74505805969E-08  0.93827000000E+00  0.93827000000E+00 0.  1.
     999902    2    1    2    0    0  0.21854453603E-01  0.54742168872E-02  0.44343980999E-02  0.10209681168E+01  0.10207098743E+01 0.  0.
     999903    2    3    3    0    0  0.12438687979E-01 -0.25860867584E-01  0.12718035512E+00  0.13184657612E+00  0.19625785975E-01 0.  0.
         14    1    1    2    0    0 -0.21854453603E-01 -0.54742168872E-02 -0.44343980999E-02  0.22961883183E-01  0.00000000000E+00 0.  1.
     999901    1    3    3    0    0  0.94157656245E-02  0.31335084472E-01 -0.12274595702E+00  0.88912154069E+00  0.88000000000E+00 0.  1.
        -11    1    4    4    0    0  0.13499639579E-02 -0.19502752416E-01  0.98792968229E-01  0.10070993718E+00  0.51100000000E-03 0.  1.
         11    1    4    4    0    0  0.11088724021E-01 -0.63581151680E-02  0.28387386894E-01  0.31136638941E-01  0.51100000000E-03 0. -1.
</event>
<event>
 8    1  0.1030163E+005  0.1043930E+01  0.7957747E-01            NaN
         13   -1    0    0    0    0  0.00000000000E+00  0.00000000000E+00  0.74505805969E-08  0.10566000000E+00  0.10566000000E+00 0. -1.
     999900   -1    0    0    0    0 -0.00000000000E+00 -0.00000000000E+00 -0.74505805969E-08  0.93827000000E+00  0.93827000000E+00 0. -1.
     999902    2    1    2    0    0 -0.19291434636E-01  0.12666260659E-01  0.63282797826E-02  0.10200000870E+01  0.10197193422E+01 0.  0.
     999903    2    3    3    0    0  0.73097298830E-01 -0.52694781524E-02 -0.10376399955E+00  0.12816059544E+00  0.16946625818E-01 0.  0.
         14    1    1    2    0    0  0.19291434636E-01 -0.12666260659E-01 -0.63282797826E-02  0.23929912963E-01  0.00000000000E+00 0.  1.
     999901    1    3    3    0    0 -0.92388733466E-01  0.17935738811E-01  0.11009227933E+00  0.89183949159E+00  0.88000000000E+00 0.  1.
        -11    1    4    4    0    0  0.48887331331E-01 -0.77497471907E-02 -0.57408716552E-01  0.75802715013E-01  0.51100000000E-03 0. -1.
         11    1    4    4    0    0  0.24209967498E-01  0.24802690384E-02 -0.46355282993E-01  0.52357880430E-01  0.51100000000E-03 0.  1.
</event>
<event>
 8    1  0.1030163E+005  0.1043930E+01  0.7957747E-01            NaN
         13   -1    0    0    0    0  0.00000000000E+00  0.00000000000E+00  0.74505805969E-08  0.10566000000E+00  0.10566000000E+00 0.  1.
     999900   -1    0    0    0    0 -0.00000000000E+00 -0.00000000000E+00 -0.74505805969E-08  0.93827000000E+00  0.93827000000E+00 0.  1.
     999902    2    1    2    0    0 -0.78878937782E-02  0.13850687240E-01  0.17142968870E-01  0.10205218436E+01  0.10202533467E+01 0.  0.
     999903    2    3    3    0    0 -0.11850118238E+00  0.66299681037E-02 -0.51688662806E-01  0.13090100754E+00  0.19413119545E-01 0.  0.
         14    1    1    2    0    0  0.78878937782E-02 -0.13850687240E-01 -0.17142968870E-01  0.23408156420E-01  0.00000000000E+00 0. -1.
     999901    1    3    3    0    0  0.11061328860E+00  0.72207191366E-02  0.68831631676E-01  0.88962083604E+00  0.88000000000E+00 0. -1.
        -11    1    4    4    0    0 -0.42080873658E-01  0.55719084736E-02 -0.91319697236E-02  0.43422345445E-01  0.51100000000E-03 0. -1.
         11    1    4    4    0    0 -0.76420308718E-01  0.10580596300E-02 -0.42556693082E-01  0.87478662095E-01  0.51100000000E-03 0.  1.
</event>
<event>
 8    1  0.1030163E+005  0.1043930E+01  0.7957747E-01            NaN
         13   -1    0    0    0    0  0.00000000000E+00  0.00000000000E+00  0.74505805969E-08  0.10566000000E+00  0.10566000000E+00 0. -1.
     999900   -1    0    0    0    0 -0.00000000000E+00 -0.00000000000E+00 -0.74505805969E-08  0.93827000000E+00  0.93827000000E+00 0.  1.
     999902    2    1    2    0    0 -0.13152136222E-01  0.56790914257E-02 -0.19619342939E-01  0.10196370096E+01  0.10193475766E+01 0.  0.
     999903    2    3    3    0    0 -0.74489623495E-01  0.10624893540E+00 -0.10617125547E-01  0.13174195903E+00  0.20141502704E-01 0.  0.
         14    1    1    2    0    0  0.13152136222E-01 -0.56790914257E-02  0.19619342939E-01  0.24292990429E-01  0.00000000000E+00 0. -1.
     999901    1    3    3    0    0  0.61337487273E-01 -0.10056984397E+00 -0.90022173926E-02  0.88789505054E+00  0.88000000000E+00 0. -1.
        -11    1    4    4    0    0 -0.17237200635E-01  0.26742600632E-01 -0.11287816457E-01  0.33763348407E-01  0.51100000000E-03 0.  1.
         11    1    4    4    0    0 -0.57252422860E-01  0.79506334769E-01  0.67069091055E-03  0.97978610620E-01  0.51100000000E-03 0. -1.
</event>
<event>
 8    1  0.1030163E+005  0.1043930E+01  0.7957747E-01            NaN
         13   -1    0    0    0    0  0.00000000000E+00  0.00000000000E+00  0.74505805969E-08  0.10566000000E+00  0.10566000000E+00 0. -1.
     999900   -1    0    0    0    0 -0.00000000000E+00 -0.00000000000E+00 -0.74505805969E-08  0.93827000000E+00  0.93827000000E+00 0. -1.
     999902    2    1    2    0    0  0.12924739980E-01  0.17597526272E-01  0.79022074928E-02  0.10207100362E+01  0.10204458885E+01 0.  0.
     999903    2    3    3    0    0 -0.57435882908E-01  0.32385171439E-01 -0.11021913575E+00  0.12991154979E+00  0.19521088824E-01 0.  0.
         14    1    1    2    0    0 -0.12924739980E-01 -0.17597526272E-01 -0.79022074928E-02  0.23219963774E-01  0.00000000000E+00 0. -1.
     999901    1    3    3    0    0  0.70360622888E-01 -0.14787645168E-01  0.11812134324E+00  0.89079848643E+00  0.88000000000E+00 0.  1.
        -11    1    4    4    0    0 -0.72878613974E-02 -0.23553434174E-02 -0.14418864662E-01  0.16334789423E-01  0.51100000000E-03 0.  1.
         11    1    4    4    0    0 -0.50148021511E-01  0.34740514857E-01 -0.95800271090E-01  0.11357676037E+00  0.51100000000E-03 0. -1.
</event>
<event>
 8    1  0.1030163E+005  0.1043930E+01  0.7957747E-01            NaN
         13   -1    0    0    0    0  0.00000000000E+00  0.00000000000E+00  0.74505805969E-08  0.10566000000E+00  0.10566000000E+00 0.  1.
     999900   -1    0    0    0    0 -0.00000000000E+00 -0.00000000000E+00 -0.74505805969E-08  0.93827000000E+00  0.93827000000E+00 0.  1.
     999902    2    1    2    0    0  0.39781640288E-03 -0.19480000193E-01  0.21248925176E-01  0.10151004061E+01  0.10146909327E+01 0.  0.
     999903    2    3    3    0    0  0.85869823356E-01  0.73202389846E-01 -0.45914233165E-01  0.12358126480E+00  0.20784507710E-01 0.  0.
         14    1    1    2    0    0 -0.39781640288E-03  0.19480000193E-01 -0.21248925176E-01  0.28829593937E-01  0.00000000000E+00 0. -1.
     999901    1    3    3    0    0 -0.85472006953E-01 -0.92682390039E-01  0.67163158341E-01  0.89151914126E+00  0.88000000000E+00 0. -1.
        -11    1    4    4    0    0  0.81083590000E-01  0.73290422240E-01 -0.41095107187E-01  0.11676944598E+00  0.51100000000E-03 0. -1.
         11    1    4    4    0    0  0.47862333553E-02 -0.88032394020E-04 -0.48191259785E-02  0.68118188196E-02  0.51100000000E-03 0.  1.
</event>
<event>
 8    1  0.1030163E+005  0.1043930E+01  0.7957747E-01            NaN
         13   -1    0    0    0    0  0.00000000000E+00  0.00000000000E+00  0.74505805969E-08  0.10566000000E+00  0.10566000000E+00 0. -1.
     999900   -1    0    0    0    0 -0.00000000000E+00 -0.00000000000E+00 -0.74505805969E-08  0.93827000000E+00  0.93827000000E+00 0.  1.
     999902    2    1    2    0    0  0.14344462818E-01  0.24268204859E-02 -0.18584500890E-01  0.10203283741E+01  0.10200553682E+01 0.  0.
     999903    2    3    3    0    0  0.41024028117E-02 -0.80893347326E-01  0.97916399445E-01  0.12868965247E+00  0.20318514252E-01 0.  0.
         14    1    1    2    0    0 -0.14344462818E-01 -0.24268204859E-02  0.18584500890E-01  0.23601625888E-01  0.00000000000E+00 0. -1.
     999901    1    3    3    0    0  0.10242060007E-01  0.83320167812E-01 -0.11650090034E+00  0.89163872164E+00  0.88000000000E+00 0. -1.
        -11    1    4    4    0    0 -0.10274585403E-02 -0.87830173060E-02  0.22682778249E-01  0.24350905818E-01  0.51100000000E-03 0. -1.
         11    1    4    4    0    0  0.51298613520E-02 -0.72110330020E-01  0.75233621196E-01  0.10433874665E+00  0.51100000000E-03 0.  1.
</event>
<event>
 8    1  0.1030163E+005  0.1043930E+01  0.7957747E-01            NaN
         13   -1    0    0    0    0  0.00000000000E+00  0.00000000000E+00  0.74505805969E-08  0.10566000000E+00  0.10566000000E+00 0.  1.
     999900   -1    0    0    0    0 -0.00000000000E+00 -0.00000000000E+00 -0.74505805969E-08  0.93827000000E+00  0.93827000000E+00 0.  1.
     999902    2    1    2    0    0  0.70963691673E-03  0.19573858434E-01  0.83214290636E-02  0.10226488887E+01  0.10224274369E+01 0.  0.
     999903    2    3    3    0    0 -0.13682425447E-01  0.37207895571E-01 -0.12461295533E+00  0.13237385178E+00  0.20562386508E-01 0.  0.
         14    1    1    2    0    0 -0.70963691673E-03 -0.19573858434E-01 -0.83214290636E-02  0.21281111348E-01  0.00000000000E+00 0.  1.
     999901    1    3    3    0    0  0.14392062363E-01 -0.17634037136E-01  0.13293438440E+00  0.89027503687E+00  0.88000000000E+00 0. -1.
        -11    1    4    4    0    0 -0.12672558231E-01  0.12810772364E-01 -0.74170152834E-01  0.76329432810E-01  0.51100000000E-03 0.  1.
         11    1    4    4    0    0 -0.10098672156E-02  0.24397123206E-01 -0.50442802499E-01  0.56044418969E-01  0.51100000000E-03 0. -1.
</event>
<event>
 8    1  0.1030163E+005  0.1043930E+01  0.7957747E-01            NaN
         13   -1    0    0    0    0  0.00000000000E+00  0.00000000000E+00  0.74505805969E-08  0.10566000000E+00  0.10566000000E+00 0.  1.
     999900   -1    0    0    0    0 -0.00000000000E+00 -0.00000000000E+00 -0.74505805969E-08  0.93827000000E+00  0.93827000000E+00 0.  1.
     999902    2    1    2    0    0 -0.11046272551E-01  0.34912372764E-02 -0.25445226099E-01  0.10159716666E+01  0.10155869037E+01 0.  0.
     999903    2    3    3    0    0 -0.11527974166E+00 -0.47120828800E-01 -0.23787642841E-01  0.12837437904E+00  0.20108154992E-01 0.  0.
         14    1    1    2    0    0  0.11046272551E-01 -0.34912372764E-02  0.25445226099E-01  0.27958333394E-01  0.00000000000E+00 0.  1.
     999901    1    3    3    0    0  0.10423346911E+00  0.50612066076E-01 -0.16575832580E-02  0.88759728757E+00  0.88000000000E+00 0. -1.
        -11    1    4    4    0    0 -0.28640151398E-01 -0.20344300278E-01 -0.24879948204E-02  0.35222153045E-01  0.51100000000E-03 0.  1.
         11    1    4    4    0    0 -0.86639590263E-01 -0.26776528522E-01 -0.21299648020E-01  0.93152225993E-01  0.51100000000E-03 0. -1.
</event>
<event>
 8    1  0.1030163E+005  0.1043930E+01  0.7957747E-01            NaN
         13   -1    0    0    0    0  0.00000000000E+00  0.00000000000E+00  0.74505805969E-08  0.10566000000E+00  0.10566000000E+00 0. -1.
     999900   -1    0    0    0    0 -0.00000000000E+00 -0.00000000000E+00 -0.74505805969E-08  0.93827000000E+00  0.93827000000E+00 0. -1.
     999902    2    1    2    0    0  0.26424686872E-01 -0.24179643381E-02 -0.16049296805E-02  0.10173464256E+01  0.10169990478E+01 0.  0.
     999903    2    3    3    0    0 -0.80056204019E-01 -0.93400268499E-01 -0.18837227061E-01  0.12610408379E+00  0.20366464265E-01 0.  0.
         14    1    1    2    0    0 -0.26424686872E-01  0.24179643381E-02  0.16049296805E-02  0.26583574385E-01  0.00000000000E+00 0. -1.
     999901    1    3    3    0    0  0.10648089089E+00  0.90982304161E-01  0.17232297380E-01  0.89124234183E+00  0.88000000000E+00 0. -1.
        -11    1    4    4    0    0 -0.41486664594E-01 -0.47761612217E-01 -0.19953292998E-01  0.66337847140E-01  0.51100000000E-03 0.  1.
         11    1    4    4    0    0 -0.38569539425E-01 -0.45638656282E-01  0.11160659377E-02  0.59766236646E-01  0.51100000000E-03 0. -1.
</event>
<event>
 8    1  0.1030163E+005  0.1043930E+01  0.7957747E-01            NaN
         13   -1    0    0    0    0  0.00000000000E+00  0.00000000000E+00  0.74505805969E-08  0.10566000000E+00  0.10566000000E+00 0.  1.
     999900   -1    0    0    0    0 -0.00000000000E+00 -0.00000000000E+00 -0.74505805969E-08  0.93827000000E+00  0.93827000000E+00 0.  1.
     999902    2    1    2    0    0  0.66420525193E-02 -0.22163893113E-01  0.36052946385E-02  0.10205130581E+01  0.10202443573E+01 0.  0.
     999903    2    3    3    0    0  0.98902858343E-01  0.80889904813E-01  0.62879794215E-02  0.12970480803E+00  0.21420701469E-01 0.  0.
         14    1    1    2    0    0 -0.66420525193E-02  0.22163893113E-01 -0.36052946385E-02  0.23416941923E-01  0.00000000000E+00 0. -1.
     999901    1    3    3    0    0 -0.92260805824E-01 -0.10305379793E+00 -0.26826847829E-02  0.89080825005E+00  0.88000000000E+00 0. -1.
        -11    1    4    4    0    0  0.31892133068E-01  0.15576032431E-01 -0.32425619447E-02  0.35644021474E-01  0.51100000000E-03 0. -1.
         11    1    4    4    0    0  0.67010725275E-01  0.65313872382E-01  0.95305413662E-02  0.94060786554E-01  0.51100000000E-03 0.  1.
</event>
<event>
 8    1  0.1030163E+005  0.1043930E+01  0.7957747E-01            NaN
         13   -1    0    0    0    0  0.00000000000E+00  0.00000000000E+00  0.74505805969E-08  0.10566000000E+00  0.10566000000E+00 0. -1.
     999900   -1    0    0    0    0 -0.00000000000E+00 -0.00000000000E+00 -0.74505805969E-08  0.93827000000E+00  0.93827000000E+00 0.  1.
     999902    2    1    2    0    0  0.58692973171E-02  0.21984425940E-01 -0.11831879051E-01  0.10182832264E+01  0.10179602016E+01 0.  0.
     999903    2    3    3    0    0  0.78285126473E-01 -0.98302598648E-01  0.28695112494E-02  0.12703177395E+00  0.18354170363E-01 0.  0.
         14    1    1    2    0    0 -0.58692973171E-02 -0.21984425940E-01  0.11831879051E-01  0.25646773614E-01  0.00000000000E+00 0. -1.
     999901    1    3    3    0    0 -0.72415829155E-01  0.12028702459E+00 -0.14701390301E-01  0.89125145244E+00  0.88000000000E+00 0.  1.
        -11    1    4    4    0    0  0.18546613968E-01 -0.12429149637E-01  0.19618133758E-02  0.22418083840E-01  0.51100000000E-03 0. -1.
         11    1    4    4    0    0  0.59738512505E-01 -0.85873449011E-01  0.90769787364E-03  0.10461369011E+00  0.51100000000E-03 0.  1.
</event>
<event>
 8    1  0.1030163E+005  0.1043930E+01  0.7957747E-01            NaN
         13   -1    0    0    0    0  0.00000000000E+00  0.00000000000E+00  0.74505805969E-08  0.10566000000E+00  0.10566000000E+00 0.  1.
     999900   -1    0    0    0    0 -0.00000000000E+00 -0.00000000000E+00 -0.74505805969E-08  0.93827000000E+00  0.93827000000E+00 0.  1.
     999902    2    1    2    0    0  0.16187483831E-01  0.19113479120E-01  0.94244640035E-03  0.10188651257E+01  0.10185567714E+01 0.  0.
     999903    2    3    3    0    0 -0.81444474616E-01 -0.65268581610E-01 -0.70947454252E-01  0.12655324679E+00  0.94336004653E-02 0.  0.
         14    1    1    2    0    0 -0.16187483831E-01 -0.19113479120E-01 -0.94244640035E-03  0.25064874268E-01  0.00000000000E+00 0.  1.
     999901    1    3    3    0    0  0.97631958447E-01  0.84382060730E-01  0.71889900653E-01  0.89231187894E+00  0.88000000000E+00 0.  1.
        -11    1    4    4    0    0 -0.56831323935E-01 -0.39929087593E-01 -0.46250927298E-01  0.83447832884E-01  0.51100000000E-03 0. -1.
         11    1    4    4    0    0 -0.24613150681E-01 -0.25339494017E-01 -0.24696526954E-01  0.43105413907E-01  0.51100000000E-03 0.  1.
</event>
<event>
 8    1  0.1030163E+005  0.1043930E+01  0.7957747E-01            NaN
         13   -1    0    0    0    0  0.00000000000E+00  0.00000000000E+00  0.74505805969E-08  0.10566000000E+00  0.10566000000E+00 0.  1.
     999900   -1    0    0    0    0 -0.00000000000E+00 -0.00000000000E+00 -0.74505805969E-08  0.93827000000E+00  0.93827000000E+00 0.  1.
     999902    2    1    2    0    0  0.20795277023E-01  0.86257325684E-02 -0.70684298514E-02  0.10203331886E+01  0.10200602954E+01 0.  0.
     999903    2    3    3    0    0  0.17452537174E-01  0.67216799321E-01 -0.11073562406E+00  0.13230673955E+00  0.20494041299E-01 0.  0.
         14    1    1    2    0    0 -0.20795277023E-01 -0.86257325684E-02  0.70684298514E-02  0.23596811424E-01  0.00000000000E+00 0.  1.
     999901    1    3    3    0    0  0.33427398491E-02 -0.58591066753E-01  0.10366719421E+00  0.88802644903E+00  0.88000000000E+00 0. -1.
        -11    1    4    4    0    0  0.13050915776E-01  0.40981307300E-01 -0.85134516530E-01  0.95383127316E-01  0.51100000000E-03 0.  1.
         11    1    4    4    0    0  0.44016213978E-02  0.26235492021E-01 -0.25601107534E-01  0.36923612235E-01  0.51100000000E-03 0. -1.
</event>
<event>
 8    1  0.1030163E+005  0.1043930E+01  0.7957747E-01            NaN
         13   -1    0    0    0    0  0.00000000000E+00  0.00000000000E+00  0.74505805969E-08  0.10566000000E+00  0.10566000000E+00 0. -1.
     999900   -1    0    0    0    0 -0.00000000000E+00 -0.00000000000E+00 -0.74505805969E-08  0.93827000000E+00  0.93827000000E+00 0.  1.
     999902    2    1    2    0    0 -0.23775522619E-01 -0.63291178992E-02 -0.13523071991E-02  0.10192893437E+01  0.10189914642E+01 0.  0.
     999903    2    3    3    0    0  0.39902337186E-01 -0.44518819808E-01 -0.11280903841E+00  0.12915681080E+00  0.19531533417E-01 0.  0.
         14    1    1    2    0    0  0.23775522619E-01  0.63291178992E-02  0.13523071991E-02  0.24640656321E-01  0.00000000000E+00 0.  1.
     999901    1    3    3    0    0 -0.63677859805E-01  0.38189701909E-01  0.11145673121E+00  0.89013253288E+00  0.88000000000E+00 0. -1.
        -11    1    4    4    0    0  0.27540680494E-01 -0.29890789458E-01 -0.93512882617E-01  0.10196503672E+00  0.51100000000E-03 0. -1.
         11    1    4    4    0    0  0.12361656692E-01 -0.14628030350E-01 -0.19296155797E-01  0.27191774080E-01  0.51100000000E-03 0.  1.
</event>
<event>
 8    1  0.1030163E+005  0.1043930E+01  0.7957747E-01            NaN
         13   -1    0    0    0    0  0.00000000000E+00  0.00000000000E+00  0.74505805969E-08  0.10566000000E+00  0.10566000000E+00 0. -1.
     999900   -1    0    0    0    0 -0.00000000000E+00 -0.00000000000E+00 -0.74505805969E-08  0.93827000000E+00  0.93827000000E+00 0. -1.
     999902    2    1    2    0    0  0.98216096539E-03  0.21458030534E-01  0.10166778268E-01  0.10201650027E+01  0.10198881594E+01 0.  0.
     999903    2    3    3    0    0 -0.70493519756E-01 -0.10303518168E+00 -0.19743056766E-01  0.12803164328E+00  0.20413926580E-01 0.  0.
         14    1    1    2    0    0 -0.98216096539E-03 -0.21458030534E-01 -0.10166778268E-01  0.23764997263E-01  0.00000000000E+00 0.  1.
     999901    1    3    3    0    0  0.71475680722E-01  0.12449321222E+00  0.29909835033E-01  0.89213335946E+00  0.88000000000E+00 0. -1.
        -11    1    4    4    0    0 -0.25083779608E-01 -0.52145560086E-01 -0.38295867239E-02  0.57993812528E-01  0.51100000000E-03 0.  1.
         11    1    4    4    0    0 -0.45409740148E-01 -0.50889621598E-01 -0.15913470042E-01  0.70037830752E-01  0.51100000000E-03 0. -1.
</event>
<event>
 8    1  0.1030163E+005  0.1043930E+01  0.7957747E-01            NaN
         13   -1    0    0    0    0  0.00000000000E+00  0.00000000000E+00  0.74505805969E-08  0.10566000000E+00  0.10566000000E+00 0. -1.
     999900   -1    0    0    0    0 -0.00000000000E+00 -0.00000000000E+00 -0.74505805969E-08  0.93827000000E+00  0.93827000000E+00 0.  1.
     999902    2    1    2    0    0 -0.10133718757E-01  0.11220594253E-01 -0.18335211689E-01  0.10201650262E+01  0.10198881834E+01 0.  0.
     999903    2    3    3    0    0 -0.77485914047E-01 -0.45436924225E-01  0.90598439575E-01  0.12909099282E+00  0.19693303832E-01 0.  0.
         14    1    1    2    0    0  0.10133718757E-01 -0.11220594253E-01  0.18335211689E-01  0.23764973783E-01  0.00000000000E+00 0. -1.
     999901    1    3    3    0    0  0.67352195290E-01  0.56657518478E-01 -0.10893365126E+00  0.89107403339E+00  0.88000000000E+00 0.  1.
        -11    1    4    4    0    0 -0.14678378143E-01 -0.18028031746E-01  0.19567560127E-01  0.30391038875E-01  0.51100000000E-03 0. -1.
         11    1    4    4    0    0 -0.62807535904E-01 -0.27408892479E-01  0.71030879448E-01  0.98699953948E-01  0.51100000000E-03 0.  1.
</event>
<event>
 8    1  0.1030163E+005  0.1043930E+01  0.7957747E-01            NaN
         13   -1    0    0    0    0  0.00000000000E+00  0.00000000000E+00  0.74505805969E-08  0.10566000000E+00  0.10566000000E+00 0.  1.
     999900   -1    0    0    0    0 -0.00000000000E+00 -0.00000000000E+00 -0.74505805969E-08  0.93827000000E+00  0.93827000000E+00 0. -1.
     999902    2    1    2    0    0  0.69063551119E-02 -0.19228067747E-01 -0.84843668745E-02  0.10218075948E+01  0.10215680888E+01 0.  0.
     999903    2    3    3    0    0  0.38668905709E-01  0.26709309040E-01 -0.12240874599E+00  0.13270812548E+00  0.20466411880E-01 0.  0.
         14    1    1    2    0    0 -0.69063551119E-02  0.19228067747E-01  0.84843668745E-02  0.22122405192E-01  0.00000000000E+00 0.  1.
     999901    1    3    3    0    0 -0.31762550597E-01 -0.45937376787E-01  0.11392437911E+00  0.88909946933E+00  0.88000000000E+00 0. -1.
        -11    1    4    4    0    0  0.21491354392E-01  0.27431113172E-02 -0.55919262781E-01  0.59971893786E-01  0.51100000000E-03 0.  1.
         11    1    4    4    0    0  0.17177551317E-01  0.23966197722E-01 -0.66489483207E-01  0.72736231691E-01  0.51100000000E-03 0. -1.
</event>
<event>
 8    1  0.1030163E+005  0.1043930E+01  0.7957747E-01            NaN
         13   -1    0    0    0    0  0.00000000000E+00  0.00000000000E+00  0.74505805969E-08  0.10566000000E+00  0.10566000000E+00 0. -1.
     999900   -1    0    0    0    0 -0.00000000000E+00 -0.00000000000E+00 -0.74505805969E-08  0.93827000000E+00  0.93827000000E+00 0. -1.
     999902    2    1    2    0    0 -0.86016376844E-02  0.15747645380E-01  0.14776452322E-01  0.10206852146E+01  0.10204204953E+01 0.  0.
     999903    2    3    3    0    0  0.70484772900E-01  0.10741863989E+00 -0.20320336524E-01  0.13170264098E+00  0.20634974202E-01 0.  0.
         14    1    1    2    0    0  0.86016376844E-02 -0.15747645380E-01 -0.14776452322E-01  0.23244785418E-01  0.00000000000E+00 0. -1.
     999901    1    3    3    0    0 -0.79086410584E-01 -0.91670994505E-01  0.35096788846E-01  0.88898257360E+00  0.88000000000E+00 0.  1.
        -11    1    4    4    0    0  0.30535644422E-01  0.62839331627E-01 -0.58227876148E-02  0.70109722266E-01  0.51100000000E-03 0. -1.
         11    1    4    4    0    0  0.39949128477E-01  0.44579308259E-01 -0.14497548909E-01  0.61592918719E-01  0.51100000000E-03 0.  1.
</event>
<event>
 8    1  0.1030163E+005  0.1043930E+01  0.7957747E-01            NaN
         13   -1    0    0    0    0  0.00000000000E+00  0.00000000000E+00  0.74505805969E-08  0.10566000000E+00  0.10566000000E+00 0. -1.
     999900   -1    0    0    0    0 -0.00000000000E+00 -0.00000000000E+00 -0.74505805969E-08  0.93827000000E+00  0.93827000000E+00 0. -1.
     999902    2    1    2    0    0 -0.81188605832E-02 -0.20916682585E-01  0.92033717343E-02  0.10196786999E+01  0.10193902714E+01 0.  0.
     999903    2    3    3    0    0  0.90012702511E-01 -0.93064964295E-01 -0.63109584321E-02  0.13115415170E+00  0.19955177763E-01 0.  0.
         14    1    1    2    0    0  0.81188605832E-02  0.20916682585E-01 -0.92033717343E-02  0.24251300147E-01  0.00000000000E+00 0.  1.
     999901    1    3    3    0    0 -0.98131563094E-01  0.72148281710E-01  0.15514330166E-01  0.88852454815E+00  0.88000000000E+00 0. -1.
        -11    1    4    4    0    0  0.78400186288E-01 -0.70039907592E-01 -0.68763776780E-02  0.10535522558E+00  0.51100000000E-03 0. -1.
         11    1    4    4    0    0  0.11612516222E-01 -0.23025056703E-01  0.56541924593E-03  0.25798926123E-01  0.51100000000E-03 0.  1.
</event>
<event>
 8    1  0.1030163E+005  0.1043930E+01  0.7957747E-01            NaN
         13   -1    0    0    0    0  0.00000000000E+00  0.00000000000E+00  0.74505805969E-08  0.10566000000E+00  0.10566000000E+00 0. -1.
     999900   -1    0    0    0    0 -0.00000000000E+00 -0.00000000000E+00 -0.74505805969E-08  0.93827000000E+00  0.93827000000E+00 0. -1.
     999902    2    1    2    0    0  0.10160566399E-02 -0.16053057509E-01 -0.17798087886E-01  0.10199403156E+01  0.10196581498E+01 0.  0.
     999903    2    3    3    0    0 -0.70993343263E-01 -0.76051937023E-01  0.75443005480E-01  0.13006441372E+00  0.20028797431E-01 0.  0.
         14    1    1    2    0    0 -0.10160566399E-02  0.16053057509E-01  0.17798087886E-01  0.23989684426E-01  0.00000000000E+00 0. -1.
     999901    1    3    3    0    0  0.72009399903E-01  0.59998879514E-01 -0.93241093365E-01  0.88987590186E+00  0.88000000000E+00 0. -1.
        -11    1    4    4    0    0 -0.46632837624E-01 -0.61644910259E-01  0.59751201256E-01  0.97699455875E-01  0.51100000000E-03 0.  1.
         11    1    4    4    0    0 -0.24360505640E-01 -0.14407026764E-01  0.15691804224E-01  0.32364957840E-01  0.51100000000E-03 0. -1.
</event>
<event>
 8    1  0.1030163E+005  0.1043930E+01  0.7957747E-01            NaN
         13   -1    0    0    0    0  0.00000000000E+00  0.00000000000E+00  0.74505805969E-08  0.10566000000E+00  0.10566000000E+00 0. -1.
     999900   -1    0    0    0    0 -0.00000000000E+00 -0.00000000000E+00 -0.74505805969E-08  0.93827000000E+00  0.93827000000E+00 0.  1.
     999902    2    1    2    0    0  0.44340885441E-03  0.74018216362E-02 -0.22341620508E-01  0.10203900004E+01  0.10201184349E+01 0.  0.
     999903    2    3    3    0    0 -0.12399634997E+00  0.34607533992E-01 -0.14697600860E-01  0.13118595440E+00  0.20517284090E-01 0.  0.
         14    1    1    2    0    0 -0.44340885441E-03 -0.74018216362E-02  0.22341620508E-01  0.23539999615E-01  0.00000000000E+00 0. -1.
     999901    1    3    3    0    0  0.12443975882E+00 -0.27205712355E-01 -0.76440196478E-02  0.88920404599E+00  0.88000000000E+00 0. -1.
        -11    1    4    4    0    0 -0.69445103228E-01  0.18439872770E-01 -0.18383189449E-01  0.74167742621E-01  0.51100000000E-03 0. -1.
         11    1    4    4    0    0 -0.54551246739E-01  0.16167661222E-01  0.36855885892E-02  0.57018211779E-01  0.51100000000E-03 0.  1.
</event>
<event>
 8    1  0.1030163E+005  0.1043930E+01  0.7957747E-01            NaN
         13   -1    0    0    0    0  0.00000000000E+00  0.00000000000E+00  0.74505805969E-08  0.10566000000E+00  0.10566000000E+00 0.  1.
     999900   -1    0    0    0    0 -0.00000000000E+00 -0.00000000000E+00 -0.74505805969E-08  0.93827000000E+00  0.93827000000E+00 0. -1.
     999902    2    1    2    0    0 -0.10620969243E-01  0.15035869583E-01 -0.13246411962E-01  0.10212507189E+01  0.10209988644E+01 0.  0.
     999903    2    3    3    0    0 -0.86760546170E-01  0.71216116698E-03  0.96201402910E-01  0.13109273967E+00  0.20067309882E-01 0.  0.
         14    1    1    2    0    0  0.10620969243E-01 -0.15035869583E-01  0.13246411962E-01  0.22679281110E-01  0.00000000000E+00 0.  1.
     999901    1    3    3    0    0  0.76139576926E-01  0.14323708416E-01 -0.10944781487E+00  0.89015797922E+00  0.88000000000E+00 0. -1.
        -11    1    4    4    0    0 -0.60604404678E-01 -0.54320298937E-02  0.55740316107E-01  0.82520571834E-01  0.51100000000E-03 0.  1.
         11    1    4    4    0    0 -0.26156141492E-01  0.61441910607E-02  0.40461086803E-01  0.48572167831E-01  0.51100000000E-03 0. -1.
</event>
<event>
 8    1  0.1030163E+005  0.1043930E+01  0.7957747E-01            NaN
         13   -1    0    0    0    0  0.00000000000E+00  0.00000000000E+00  0.74505805969E-08  0.10566000000E+00  0.10566000000E+00 0.  1.
     999900   -1    0    0    0    0 -0.00000000000E+00 -0.00000000000E+00 -0.74505805969E-08  0.93827000000E+00  0.93827000000E+00 0. -1.
     999902    2    1    2    0    0 -0.75500958654E-02  0.10916340243E-01  0.18754750908E-01  0.10209536836E+01  0.10206951127E+01 0.  0.
     999903    2    3    3    0    0 -0.63616279535E-01  0.11595209376E-01 -0.11060125031E+00  0.12973157167E+00  0.20400103315E-01 0.  0.
         14    1    1    2    0    0  0.75500958654E-02 -0.10916340243E-01 -0.18754750908E-01  0.22976316360E-01  0.00000000000E+00 0.  1.
     999901    1    3    3    0    0  0.56066183670E-01 -0.67886913347E-03  0.12935600122E+00  0.89122211197E+00  0.88000000000E+00 0. -1.
        -11    1    4    4    0    0 -0.17791634131E-01  0.40386492763E-03 -0.15636809707E-01  0.23695490937E-01  0.51100000000E-03 0.  1.
         11    1    4    4    0    0 -0.45824645404E-01  0.11191344448E-01 -0.94964440603E-01  0.10603608073E+00  0.51100000000E-03 0. -1.
</event>
<event>
 8    1  0.1030163E+005  0.1043930E+01  0.7957747E-01            NaN
         13   -1    0    0    0    0  0.00000000000E+00  0.00000000000E+00  0.74505805969E-08  0.10566000000E+00  0.10566000000E+00 0.  1.
     999900   -1    0    0    0    0 -0.00000000000E+00 -0.00000000000E+00 -0.74505805969E-08  0.93827000000E+00  0.93827000000E+00 0. -1.
     999902    2    1    2    0    0  0.15386321929E-01  0.79852005712E-02  0.17005009985E-01  0.10196468228E+01  0.10193576264E+01 0.  0.
     999903    2    3    3    0    0 -0.78587682090E-01 -0.68575449037E-01 -0.69911746173E-01  0.12709588923E+00  0.19674776233E-01 0.  0.
         14    1    1    2    0    0 -0.15386321929E-01 -0.79852005712E-02 -0.17005009985E-01  0.24283177207E-01  0.00000000000E+00 0. -1.
     999901    1    3    3    0    0  0.93974004019E-01  0.76560649608E-01  0.86916756158E-01  0.89255093356E+00  0.88000000000E+00 0.  1.
        -11    1    4    4    0    0 -0.16665445386E-01 -0.14700012814E-01 -0.25291936069E-01  0.33671510180E-01  0.51100000000E-03 0.  1.
         11    1    4    4    0    0 -0.61922236705E-01 -0.53875436222E-01 -0.44619810104E-01  0.93424379053E-01  0.51100000000E-03 0. -1.
</event>
<event>
 8    1  0.1030163E+005  0.1043930E+01  0.7957747E-01            NaN
         13   -1    0    0    0    0  0.00000000000E+00  0.00000000000E+00  0.74505805969E-08  0.10566000000E+00  0.10566000000E+00 0. -1.
     999900   -1    0    0    0    0 -0.00000000000E+00 -0.00000000000E+00 -0.74505805969E-08  0.93827000000E+00  0.93827000000E+00 0. -1.
     999902    2    1    2    0    0  0.72659751380E-03  0.37244711136E-02  0.23183104543E-01  0.10204383852E+01  0.10201679480E+01 0.  0.
     999903    2    3    3    0    0 -0.34801519746E-01  0.95129829850E-01 -0.78000235172E-01  0.12922839034E+00  0.18844359364E-01 0.  0.
         14    1    1    2    0    0 -0.72659751380E-03 -0.37244711136E-02 -0.23183104543E-01  0.23491614786E-01  0.00000000000E+00 0.  1.
     999901    1    3    3    0    0  0.35528117259E-01 -0.91405358737E-01  0.10118333971E+00  0.89120999487E+00  0.88000000000E+00 0.  1.
        -11    1    4    4    0    0 -0.67520849159E-02  0.15358267466E-01 -0.49925432187E-02  0.17511528747E-01  0.51100000000E-03 0.  1.
         11    1    4    4    0    0 -0.28049434830E-01  0.79771562384E-01 -0.73007691954E-01  0.11171686160E+00  0.51100000000E-03 0. -1.
</event>
<event>
 8    1  0.1030163E+005  0.1043930E+01  0.7957747E-01            NaN
         13   -1    0    0    0    0  0.00000000000E+00  0.00000000000E+00  0.74505805969E-08  0.10566000000E+00  0.10566000000E+00 0.  1.
     999900   -1    0    0    0    0 -0.00000000000E+00 -0.00000000000E+00 -0.74505805969E-08  0.93827000000E+00  0.93827000000E+00 0. -1.
     999902    2    1    2    0    0 -0.47644789603E-02  0.13553934007E-01  0.19473050962E-01  0.10197306384E+01  0.10194434589E+01 0.  0.
     999903    2    3    3    0    0 -0.21102810337E-01 -0.38060859715E-01 -0.11762722001E+00  0.12747085994E+00  0.22774977514E-01 0.  0.
         14    1    1    2    0    0  0.47644789603E-02 -0.13553934007E-01 -0.19473050962E-01  0.24199361574E-01  0.00000000000E+00 0. -1.
     999901    1    3    3    0    0  0.16338331377E-01  0.51614793722E-01  0.13710027097E+00  0.89225977849E+00  0.88000000000E+00 0.  1.
        -11    1    4    4    0    0 -0.13170276138E-01 -0.35108809534E-01 -0.73258824039E-01  0.82299459907E-01  0.51100000000E-03 0.  1.
         11    1    4    4    0    0 -0.79325341998E-02 -0.29520501810E-02 -0.44368395969E-01  0.45171400033E-01  0.51100000000E-03 0. -1.
</event>
<event>
 8    1  0.1030163E+005  0.1043930E+01  0.7957747E-01            NaN
         13   -1    0    0    0    0  0.00000000000E+00  0.00000000000E+00  0.74505805969E-08  0.10566000000E+00  0.10566000000E+00 0.  1.
     999900   -1    0    0    0    0 -0.00000000000E+00 -0.00000000000E+00 -0.74505805969E-08  0.93827000000E+00  0.93827000000E+00 0.  1.
     999902    2    1    2    0    0 -0.89858929022E-02  0.27504820442E-02  0.23624182787E-01  0.10185053381E+01  0.10181879543E+01 0.  0.
     999903    2    3    3    0    0  0.12796259282E-01 -0.17960475071E-01  0.12846971430E+00  0.13177201209E+00  0.19315091572E-01 0.  0.
         14    1    1    2    0    0  0.89858929022E-02 -0.27504820442E-02 -0.23624182787E-01  0.25424661946E-01  0.00000000000E+00 0. -1.
     999901    1    3    3    0    0 -0.21782152185E-01  0.20710957115E-01 -0.10484553151E+00  0.88673332596E+00  0.88000000000E+00 0.  1.
        -11    1    4    4    0    0  0.12968272144E-02 -0.48224075551E-02  0.81583438363E-01  0.81737726367E-01  0.51100000000E-03 0. -1.
         11    1    4    4    0    0  0.11499432068E-01 -0.13138067516E-01  0.46886275933E-01  0.50034285723E-01  0.51100000000E-03 0.  1.
</event>
<event>
 8    1  0.1030163E+005  0.1043930E+01  0.7957747E-01            NaN
         13   -1    0    0    0    0  0.00000000000E+00  0.00000000000E+00  0.74505805969E-08  0.10566000000E+00  0.10566000000E+00 0. -1.
     999900   -1    0    0    0    0 -0.00000000000E+00 -0.00000000000E+00 -0.74505805969E-08  0.93827000000E+00  0.93827000000E+00 0.  1.
     999902    2    1    2    0    0  0.66347651021E-02  0.51429357002E-02 -0.22422357055E-01  0.10199877363E+01  0.10197066981E+01 0.  0.
     999903    2    3    3    0    0  0.11519414532E+00  0.38917022164E-01 -0.48296369089E-01  0.13229674701E+00  0.19638336834E-01 0.  0.
         14    1    1    2    0    0 -0.66347651021E-02 -0.51429357002E-02  0.22422357055E-01  0.23942263708E-01  0.00000000000E+00 0. -1.
     999901    1    3    3    0    0 -0.10855938021E+00 -0.33774086464E-01  0.25874012034E-01  0.88769098928E+00  0.88000000000E+00 0.  1.
        -11    1    4    4    0    0  0.62881018853E-01  0.15218555336E-01 -0.17019242018E-01  0.66899496847E-01  0.51100000000E-03 0.  1.
         11    1    4    4    0    0  0.52313126463E-01  0.23698466829E-01 -0.31277127071E-01  0.65397250165E-01  0.51100000000E-03 0. -1.
</event>
<event>
 8    1  0.1030163E+005  0.1043930E+01  0.7957747E-01            NaN
         13   -1    0    0    0    0  0.00000000000E+00  0.00000000000E+00  0.74505805969E-08  0.10566000000E+00  0.10566000000E+00 0.  1.
     999900   -1    0    0    0    0 -0.00000000000E+00 -0.00000000000E+00 -0.74505805969E-08  0.93827000000E+00  0.93827000000E+00 0.  1.
     999902    2    1    2    0    0 -0.79076904023E-02  0.13096328216E-01 -0.22480767639E-01  0.10167375324E+01  0.10163738385E+01 0.  0.
     999903    2    3    3    0    0  0.10461372316E+00  0.51145609952E-01  0.44234673834E-01  0.12625464853E+00  0.20582162566E-01 0.  0.
         14    1    1    2    0    0  0.79076904023E-02 -0.13096328216E-01  0.22480767639E-01  0.27192467594E-01  0.00000000000E+00 0.  1.
     999901    1    3    3    0    0 -0.11252141356E+00 -0.38049281736E-01 -0.66715441473E-01  0.89048288388E+00  0.88000000000E+00 0.  1.
        -11    1    4    4    0    0  0.16031652758E-01  0.14884181491E-01  0.13554997753E-01  0.25740082244E-01  0.51100000000E-03 0.  1.
         11    1    4    4    0    0  0.88582070397E-01  0.36261428460E-01  0.30679676080E-01  0.10051456628E+00  0.51100000000E-03 0. -1.
</event>
<event>
 8    1  0.1030163E+005  0.1043930E+01  0.7957747E-01            NaN
         13   -1    0    0    0    0  0.00000000000E+00  0.00000000000E+00  0.74505805969E-08  0.10566000000E+00  0.10566000000E+00 0. -1.
     999900   -1    0    0    0    0 -0.00000000000E+00 -0.00000000000E+00 -0.74505805969E-08  0.93827000000E+00  0.93827000000E+00 0. -1.
     999902    2    1    2    0    0  0.19909058818E-01  0.12322198184E-01 -0.85468151714E-03  0.10205005811E+01  0.10202315905E+01 0.  0.
     999903    2    3    3    0    0 -0.15059732435E-01 -0.97902940252E-02 -0.12787257425E+00  0.13041894225E+00  0.18304640261E-01 0.  0.
         14    1    1    2    0    0 -0.19909058818E-01 -0.12322198184E-01  0.85468151714E-03  0.23429418934E-01  0.00000000000E+00 0. -1.
     999901    1    3    3    0    0  0.34968791253E-01  0.22112492209E-01  0.12701789273E+00  0.89008163881E+00  0.88000000000E+00 0.  1.
        -11    1    4    4    0    0  0.10453651586E-02 -0.81059583675E-02 -0.64086261706E-01  0.64607347955E-01  0.51100000000E-03 0.  1.
         11    1    4    4    0    0 -0.16105097594E-01 -0.16843356577E-02 -0.63786312545E-01  0.65811594299E-01  0.51100000000E-03 0. -1.
</event>
<event>
 8    1  0.1030163E+005  0.1043930E+01  0.7957747E-01            NaN
         13   -1    0    0    0    0  0.00000000000E+00  0.00000000000E+00  0.74505805969E-08  0.10566000000E+00  0.10566000000E+00 0. -1.
     999900   -1    0    0    0    0 -0.00000000000E+00 -0.00000000000E+00 -0.74505805969E-08  0.93827000000E+00  0.93827000000E+00 0. -1.
     999902    2    1    2    0    0 -0.14712354981E-01 -0.18400466568E-01 -0.16722567010E-02  0.10203116385E+01  0.10200382407E+01 0.  0.
     999903    2    3    3    0    0  0.16952215058E-01 -0.85555736182E-01  0.96514479226E-01  0.13174362737E+00  0.20836915881E-01 0.  0.
         14    1    1    2    0    0  0.14712354981E-01  0.18400466568E-01  0.16722567010E-02  0.23618361533E-01  0.00000000000E+00 0.  1.
     999901    1    3    3    0    0 -0.31664570040E-01  0.67155269615E-01 -0.98186735927E-01  0.88856801110E+00  0.88000000000E+00 0. -1.
        -11    1    4    4    0    0  0.94088729244E-02 -0.32390505224E-01  0.23516445983E-01  0.41121236254E-01  0.51100000000E-03 0.  1.
         11    1    4    4    0    0  0.75433421340E-02 -0.53165230959E-01  0.72998033243E-01  0.90622391117E-01  0.51100000000E-03 0. -1.
</event>
<event>
 8    1  0.1030163E+005  0.1043930E+01  0.7957747E-01            NaN
         13   -1    0    0    0    0  0.00000000000E+00  0.00000000000E+00  0.74505805969E-08  0.10566000000E+00  0.10566000000E+00 0.  1.
     999900   -1    0    0    0    0 -0.00000000000E+00 -0.00000000000E+00 -0.74505805969E-08  0.93827000000E+00  0.93827000000E+00 0. -1.
     999902    2    1    2    0    0 -0.17170100848E-01 -0.26715643812E-02 -0.18849617226E-01  0.10182929626E+01  0.10179701862E+01 0.  0.
     999903    2    3    3    0    0 -0.10921232790E+00 -0.62568158419E-01  0.27153831903E-01  0.13027511878E+00  0.19803256622E-01 0.  0.
         14    1    1    2    0    0  0.17170100848E-01  0.26715643812E-02  0.18849617226E-01  0.25637037445E-01  0.00000000000E+00 0.  1.
     999901    1    3    3    0    0  0.92042227048E-01  0.59896594038E-01 -0.46003449129E-01  0.88801784378E+00  0.88000000000E+00 0.  1.
        -11    1    4    4    0    0 -0.53175188752E-01 -0.20055811651E-01  0.16112478547E-01  0.59073762075E-01  0.51100000000E-03 0.  1.
         11    1    4    4    0    0 -0.56037139144E-01 -0.42512346769E-01  0.11041353356E-01  0.71201356702E-01  0.51100000000E-03 0. -1.
</event>
<event>
 8    1  0.1083476E+005  0.1043930E+01  0.7957747E-01            NaN
         13   -1    0    0    0    0  0.00000000000E+00  0.00000000000E+00  0.74505805969E-08  0.10566000000E+00  0.10566000000E+00 0. -1.
     999900   -1    0    0    0    0 -0.00000000000E+00 -0.00000000000E+00 -0.74505805969E-08  0.93827000000E+00  0.93827000000E+00 0.  1.
     999902    2    1    2    0    0  0.10059584647E-01 -0.94223455136E-02  0.20083168146E-01  0.10195720551E+01  0.10192810535E+01 0.  0.
     999903    2    3    3    0    0 -0.67359250859E-02 -0.12894330690E+00  0.11843503241E-01  0.13129549823E+00  0.20651639269E-01 0.  0.
         14    1    1    2    0    0 -0.10059584647E-01  0.94223455136E-02 -0.20083168146E-01  0.24357944926E-01  0.00000000000E+00 0. -1.
     999901    1    3    3    0    0  0.16795509733E-01  0.11952096139E+00  0.82396649050E-02  0.88827655684E+00  0.88000000000E+00 0. -1.
        -11    1    4    4    0    0 -0.54699863028E-02 -0.61068843553E-01  0.15714072972E-01  0.63297058490E-01  0.51100000000E-03 0. -1.
         11    1    4    4    0    0 -0.12659387830E-02 -0.67874463351E-01 -0.38705697309E-02  0.67998439741E-01  0.51100000000E-03 0.  1.
</event>
<event>
 8    1  0.1030163E+005  0.1043930E+01  0.7957747E-01            NaN
         13   -1    0    0    0    0  0.00000000000E+00  0.00000000000E+00  0.74505805969E-08  0.10566000000E+00  0.10566000000E+00 0.  1.
     999900   -1    0    0    0    0 -0.00000000000E+00 -0.00000000000E+00 -0.74505805969E-08  0.93827000000E+00  0.93827000000E+00 0.  1.
     999902    2    1    2    0    0  0.11687476192E-01 -0.11106235269E-01 -0.17504516805E-01  0.10201318137E+01  0.10198541875E+01 0.  0.
     999903    2    3    3    0    0 -0.86556199267E-02  0.16121749186E-01 -0.12945634158E+00  0.13238837344E+00  0.20806405090E-01 0.  0.
         14    1    1    2    0    0 -0.11687476192E-01  0.11106235269E-01  0.17504516805E-01  0.23798186279E-01  0.00000000000E+00 0.  1.
     999901    1    3    3    0    0  0.20343096118E-01 -0.27227984456E-01  0.11195182478E+00  0.88774344028E+00  0.88000000000E+00 0. -1.
        -11    1    4    4    0    0 -0.15479340679E-01  0.11869369400E-01 -0.97379950084E-01  0.99315697234E-01  0.51100000000E-03 0.  1.
         11    1    4    4    0    0  0.68237207527E-02  0.42523797863E-02 -0.32076391497E-01  0.33072676203E-01  0.51100000000E-03 0. -1.
</event>
<event>
 8    1  0.1030163E+005  0.1043930E+01  0.7957747E-01            NaN
         13   -1    0    0    0    0  0.00000000000E+00  0.00000000000E+00  0.74505805969E-08  0.10566000000E+00  0.10566000000E+00 0. -1.
     999900   -1    0    0    0    0 -0.00000000000E+00 -0.00000000000E+00 -0.74505805969E-08  0.93827000000E+00  0.93827000000E+00 0.  1.
     999902    2    1    2    0    0  0.12693382264E-01 -0.17765873441E-01 -0.48500031483E-03  0.10220900495E+01  0.10218566856E+01 0.  0.
     999903    2    3    3    0    0  0.58514889442E-01  0.51315208745E-01  0.10479333774E+00  0.13194661449E+00  0.19261944454E-01 0.  0.
         14    1    1    2    0    0 -0.12693382264E-01  0.17765873441E-01  0.48500031483E-03  0.21839950498E-01  0.00000000000E+00 0. -1.
     999901    1    3    3    0    0 -0.45821507178E-01 -0.69081082186E-01 -0.10527833806E+00  0.89014343502E+00  0.88000000000E+00 0.  1.
        -11    1    4    4    0    0  0.14839281320E-01  0.16630671380E-01  0.44744444988E-01  0.49991098997E-01  0.51100000000E-03 0. -1.
         11    1    4    4    0    0  0.43675608122E-01  0.34684537364E-01  0.60048892756E-01  0.81955515490E-01  0.51100000000E-03 0.  1.
</event>
<event>
 8    1  0.1030163E+005  0.1043930E+01  0.7957747E-01            NaN
         13   -1    0    0    0    0  0.00000000000E+00  0.00000000000E+00  0.74505805969E-08  0.10566000000E+00  0.10566000000E+00 0.  1.
     999900   -1    0    0    0    0 -0.00000000000E+00 -0.00000000000E+00 -0.74505805969E-08  0.93827000000E+00  0.93827000000E+00 0. -1.
     999902    2    1    2    0    0  0.12186161516E-01  0.83613215501E-02  0.17937567383E-01  0.10206884305E+01  0.10204237853E+01 0.  0.
     999903    2    3    3    0    0 -0.34862568581E-01 -0.54455009801E-01  0.11330281820E+00  0.13206364714E+00  0.20555571079E-01 0.  0.
         14    1    1    2    0    0 -0.12186161516E-01 -0.83613215501E-02 -0.17937567383E-01  0.23241569529E-01  0.00000000000E+00 0. -1.
     999901    1    3    3    0    0  0.47048730097E-01  0.62816331351E-01 -0.95365250820E-01  0.88862478333E+00  0.88000000000E+00 0.  1.
        -11    1    4    4    0    0 -0.11537038882E-01 -0.13291012359E-01  0.50154324986E-01  0.53155166367E-01  0.51100000000E-03 0.  1.
         11    1    4    4    0    0 -0.23325529699E-01 -0.41163997442E-01  0.63148493217E-01  0.78908480772E-01  0.51100000000E-03 0. -1.
</event>
<event>
 8    1  0.1030163E+005  0.1043930E+01  0.7957747E-01            NaN
         13   -1    0    0    0    0  0.00000000000E+00  0.00000000000E+00  0.74505805969E-08  0.10566000000E+00  0.10566000000E+00 0. -1.
     999900   -1    0    0    0    0 -0.00000000000E+00 -0.00000000000E+00 -0.74505805969E-08  0.93827000000E+00  0.93827000000E+00 0. -1.
     999902    2    1    2    0    0 -0.20818092622E-01  0.43913262657E-02 -0.10249379103E-01  0.10203137662E+01  0.10200404183E+01 0.  0.
     999903    2    3    3    0    0 -0.35653961465E-02 -0.12646708615E+00  0.21492029672E-01  0.12990425555E+00  0.20163639072E-01 0.  0.
         14    1    1    2    0    0  0.20818092622E-01 -0.43913262657E-02  0.10249379103E-01  0.23616233798E-01  0.00000000000E+00 0. -1.
     999901    1    3    3    0    0 -0.17252696475E-01  0.13085841242E+00 -0.31741408776E-01  0.89040951066E+00  0.88000000000E+00 0. -1.
        -11    1    4    4    0    0 -0.47124540577E-02 -0.60215482152E-01  0.19990171425E-01  0.63623734476E-01  0.51100000000E-03 0.  1.
         11    1    4    4    0    0  0.11470579111E-02 -0.66251603998E-01  0.15018582469E-02  0.66280521070E-01  0.51100000000E-03 0. -1.
</event>
<event>
 8    1  0.1030163E+005  0.1043930E+01  0.7957747E-01            NaN
         13   -1    0    0    0    0  0.00000000000E+00  0.00000000000E+00  0.74505805969E-08  0.10566000000E+00  0.10566000000E+00 0. -1.
     999900   -1    0    0    0    0 -0.00000000000E+00 -0.00000000000E+00 -0.74505805969E-08  0.93827000000E+00  0.93827000000E+00 0. -1.
     999902    2    1    2    0    0  0.10107241569E-01 -0.20687069886E-01  0.19814876434E-02  0.10208207489E+01  0.10205591428E+01 0.  0.
     999903    2    3    3    0    0  0.12102517985E+00 -0.39961219765E-01 -0.32545592045E-01  0.13297706835E+00  0.19485684539E-01 0.  0.
         14    1    1    2    0    0 -0.10107241569E-01  0.20687069886E-01 -0.19814876434E-02  0.23109251088E-01  0.00000000000E+00 0. -1.
     999901    1    3    3    0    0 -0.11091793828E+00  0.19274149879E-01  0.34527079688E-01  0.88784368056E+00  0.88000000000E+00 0. -1.
        -11    1    4    4    0    0  0.91702040794E-01 -0.31957248021E-01 -0.33022114147E-01  0.10257315014E+00  0.51100000000E-03 0. -1.
         11    1    4    4    0    0  0.29323139056E-01 -0.80039717440E-02  0.47652210227E-03  0.30403918203E-01  0.51100000000E-03 0.  1.
</event>
<event>
 8    1  0.1030163E+005  0.1043930E+01  0.7957747E-01            NaN
         13   -1    0    0    0    0  0.00000000000E+00  0.00000000000E+00  0.74505805969E-08  0.10566000000E+00  0.10566000000E+00 0.  1.
     999900   -1    0    0    0    0 -0.00000000000E+00 -0.00000000000E+00 -0.74505805969E-08  0.93827000000E+00  0.93827000000E+00 0. -1.
     999902    2    1    2    0    0 -0.25259827645E-02  0.23264802743E-01 -0.40911116020E-02  0.10201735518E+01  0.10198969100E+01 0.  0.
     999903    2    3    3    0    0  0.41199440169E-01 -0.11823604544E+00  0.13436448689E-01  0.12762572789E+00  0.20751673532E-01 0.  0.
         14    1    1    2    0    0  0.25259827645E-02 -0.23264802743E-01  0.40911116020E-02  0.23756448172E-01  0.00000000000E+00 0.  1.
     999901    1    3    3    0    0 -0.43725422934E-01  0.14150084818E+00 -0.17527560291E-01  0.89254782394E+00  0.88000000000E+00 0. -1.
        -11    1    4    4    0    0  0.15059900127E-01 -0.18765760396E-01  0.27225618596E-02  0.24220400888E-01  0.51100000000E-03 0. -1.
         11    1    4    4    0    0  0.26139540042E-01 -0.99470285045E-01  0.10713886829E-01  0.10340532700E+00  0.51100000000E-03 0.  1.
</event>
<event>
 8    1  0.1030163E+005  0.1043930E+01  0.7957747E-01            NaN
         13   -1    0    0    0    0  0.00000000000E+00  0.00000000000E+00  0.74505805969E-08  0.10566000000E+00  0.10566000000E+00 0. -1.
     999900   -1    0    0    0    0 -0.00000000000E+00 -0.00000000000E+00 -0.74505805969E-08  0.93827000000E+00  0.93827000000E+00 0.  1.
     999902    2    1    2    0    0 -0.42473847611E-02 -0.26676723649E-01  0.32356223661E-02  0.10167241713E+01  0.10163601150E+01 0.  0.
     999903    2    3    3    0    0  0.10957456975E+00  0.54627669700E-01  0.18733224769E-01  0.12554180088E+00  0.20470501340E-01 0.  0.
         14    1    1    2    0    0  0.42473847611E-02  0.26676723649E-01 -0.32356223661E-02  0.27205828678E-01  0.00000000000E+00 0.  1.
     999901    1    3    3    0    0 -0.11382195451E+00 -0.81304393349E-01 -0.15497602402E-01  0.89118237044E+00  0.88000000000E+00 0.  1.
        -11    1    4    4    0    0  0.66462794396E-01  0.36734523080E-01  0.20452773554E-02  0.75968233527E-01  0.51100000000E-03 0.  1.
         11    1    4    4    0    0  0.43111775355E-01  0.17893146620E-01  0.16687947413E-01  0.49573567353E-01  0.51100000000E-03 0. -1.
</event>
<event>
 8    1  0.1030163E+005  0.1043930E+01  0.7957747E-01            NaN
         13   -1    0    0    0    0  0.00000000000E+00  0.00000000000E+00  0.74505805969E-08  0.10566000000E+00  0.10566000000E+00 0. -1.
     999900   -1    0    0    0    0 -0.00000000000E+00 -0.00000000000E+00 -0.74505805969E-08  0.93827000000E+00  0.93827000000E+00 0.  1.
     999902    2    1    2    0    0 -0.46294060920E-02  0.36924804244E-03  0.23164778582E-01  0.10203042786E+01  0.10200307085E+01 0.  0.
     999903    2    3    3    0    0  0.96787356858E-01  0.78526813645E-02  0.87091144207E-01  0.13214441585E+00  0.21161809669E-01 0.  0.
         14    1    1    2    0    0  0.46294060920E-02 -0.36924804244E-03 -0.23164778582E-01  0.23625721399E-01  0.00000000000E+00 0.  1.
     999901    1    3    3    0    0 -0.10141676295E+00 -0.74834333221E-02 -0.63926365625E-01  0.88815986275E+00  0.88000000000E+00 0.  1.
        -11    1    4    4    0    0  0.76893645682E-01  0.51603094492E-02  0.79367435184E-01  0.11062871430E+00  0.51100000000E-03 0.  1.
         11    1    4    4    0    0  0.19893711176E-01  0.26923719153E-02  0.77237090235E-02  0.21515701544E-01  0.51100000000E-03 0. -1.
</event>
<event>
 8    1  0.1030163E+005  0.1043930E+01  0.7957747E-01            NaN
         13   -1    0    0    0    0  0.00000000000E+00  0.00000000000E+00  0.74505805969E-08  0.10566000000E+00  0.10566000000E+00 0.  1.
     999900   -1    0    0    0    0 -0.00000000000E+00 -0.00000000000E+00 -0.74505805969E-08  0.93827000000E+00  0.93827000000E+00 0. -1.
     999902    2    1    2    0    0 -0.47823071932E-02  0.25280211328E-01  0.11646918163E-01  0.10156880056E+01  0.10152952843E+01 0.  0.
     999903    2    3    3    0    0 -0.33371160992E-01 -0.81288425665E-01  0.87446777504E-01  0.12556452221E+00  0.19951636731E-01 0.  0.
         14    1    1    2    0    0  0.47823071932E-02 -0.25280211328E-01 -0.11646918163E-01  0.28241994433E-01  0.00000000000E+00 0. -1.
     999901    1    3    3    0    0  0.28588853798E-01  0.10656863699E+00 -0.75799859341E-01  0.89012348336E+00  0.88000000000E+00 0. -1.
        -11    1    4    4    0    0 -0.21779997574E-01 -0.71286833029E-01  0.68869047263E-01  0.10148589877E+00  0.51100000000E-03 0. -1.
         11    1    4    4    0    0 -0.11591163417E-01 -0.10001592636E-01  0.18577730241E-01  0.24078623435E-01  0.51100000000E-03 0.  1.
</event>
<event>
 8    1  0.1030163E+005  0.1043930E+01  0.7957747E-01            NaN
         13   -1    0    0    0    0  0.00000000000E+00  0.00000000000E+00  0.74505805969E-08  0.10566000000E+00  0.10566000000E+00 0.  1.
     999900   -1    0    0    0    0 -0.00000000000E+00 -0.00000000000E+00 -0.74505805969E-08  0.93827000000E+00  0.93827000000E+00 0. -1.
     999902    2    1    2    0    0  0.14687561391E-01 -0.11600635247E-01 -0.14463154495E-01  0.10202766274E+01  0.10200024090E+01 0.  0.
     999903    2    3    3    0    0 -0.16640109459E-01 -0.54600235638E-01  0.11440133366E+00  0.12930163060E+00  0.19317545376E-01 0.  0.
         14    1    1    2    0    0 -0.14687561391E-01  0.11600635247E-01  0.14463154495E-01  0.23653372607E-01  0.00000000000E+00 0.  1.
     999901    1    3    3    0    0  0.31327670851E-01  0.42999600391E-01 -0.12886448815E+00  0.89097499679E+00  0.88000000000E+00 0. -1.
        -11    1    4    4    0    0  0.41029364178E-02 -0.49923014740E-02  0.12839780103E-01  0.14383262334E-01  0.51100000000E-03 0.  1.
         11    1    4    4    0    0 -0.20743045877E-01 -0.49607934164E-01  0.10156155356E+00  0.11491836827E+00  0.51100000000E-03 0. -1.
</event>
<event>
 8    1  0.1030163E+005  0.1043930E+01  0.7957747E-01            NaN
         13   -1    0    0    0    0  0.00000000000E+00  0.00000000000E+00  0.74505805969E-08  0.10566000000E+00  0.10566000000E+00 0. -1.
     999900   -1    0    0    0    0 -0.00000000000E+00 -0.00000000000E+00 -0.74505805969E-08  0.93827000000E+00  0.93827000000E+00 0. -1.
     999902    2    1    2    0    0 -0.21952094915E-01  0.85968200129E-02  0.34761893128E-04  0.10203545680E+01  0.10200821749E+01 0.  0.
     999903    2    3    3    0    0 -0.47601549075E-01 -0.43675027416E-01  0.11256849070E+00  0.13127972264E+00  0.19730306237E-01 0.  0.
         14    1    1    2    0    0  0.21952094915E-01 -0.85968200129E-02 -0.34761893128E-04  0.23575431998E-01  0.00000000000E+00 0. -1.
     999901    1    3    3    0    0  0.25649454159E-01  0.52271847429E-01 -0.11253372881E+00  0.88907484536E+00  0.88000000000E+00 0. -1.
        -11    1    4    4    0    0 -0.45857868747E-01 -0.38996777957E-01  0.90820488015E-01  0.10896015318E+00  0.51100000000E-03 0.  1.
         11    1    4    4    0    0 -0.17436803277E-02 -0.46782494594E-02  0.21748002686E-01  0.22319569461E-01  0.51100000000E-03 0. -1.
</event>
<event>
 8    1  0.1030163E+005  0.1043930E+01  0.7957747E-01            NaN
         13   -1    0    0    0    0  0.00000000000E+00  0.00000000000E+00  0.74505805969E-08  0.10566000000E+00  0.10566000000E+00 0.  1.
     999900   -1    0    0    0    0 -0.00000000000E+00 -0.00000000000E+00 -0.74505805969E-08  0.93827000000E+00  0.93827000000E+00 0.  1.
     999902    2    1    2    0    0 -0.10073280355E-01 -0.20083238667E-01 -0.83492477278E-02  0.10199609076E+01  0.10196792317E+01 0.  0.
     999903    2    3    3    0    0  0.10395170154E+00  0.13498861724E-01  0.71540057409E-01  0.12838266929E+00  0.19389544609E-01 0.  0.
         14    1    1    2    0    0  0.10073280355E-01  0.20083238667E-01  0.83492477278E-02  0.23969092391E-01  0.00000000000E+00 0.  1.
     999901    1    3    3    0    0 -0.11402498189E+00 -0.33582100391E-01 -0.79889305137E-01  0.89157823832E+00  0.88000000000E+00 0.  1.
        -11    1    4    4    0    0  0.34733689887E-01  0.52216177085E-02  0.13363042464E-01  0.37583593888E-01  0.51100000000E-03 0.  1.
         11    1    4    4    0    0  0.69218011651E-01  0.82772440158E-02  0.58177014945E-01  0.90799075405E-01  0.51100000000E-03 0. -1.
</event>
<event>
 8    1  0.1030163E+005  0.1043930E+01  0.7957747E-01            NaN
         13   -1    0    0    0    0  0.00000000000E+00  0.00000000000E+00  0.74505805969E-08  0.10566000000E+00  0.10566000000E+00 0.  1.
     999900   -1    0    0    0    0 -0.00000000000E+00 -0.00000000000E+00 -0.74505805969E-08  0.93827000000E+00  0.93827000000E+00 0. -1.
     999902    2    1    2    0    0  0.33078480930E-01  0.89239947905E-02  0.13442237701E-01  0.10071262320E+01  0.10064535408E+01 0.  0.
     999903    2    3    3    0    0  0.19736124027E-01  0.16060986153E-02 -0.11455437095E+00  0.11773615903E+00  0.18628072789E-01 0.  0.
         14    1    1    2    0    0 -0.33078480930E-01 -0.89239947905E-02 -0.13442237701E-01  0.36803767987E-01  0.00000000000E+00 0.  1.
     999901    1    3    3    0    0  0.13342356903E-01  0.73178961752E-02  0.12799660865E+00  0.88939007298E+00  0.88000000000E+00 0.  1.
        -11    1    4    4    0    0  0.13676954903E-01  0.95393532681E-02 -0.82081076302E-01  0.83759313298E-01  0.51100000000E-03 0.  1.
         11    1    4    4    0    0  0.60591691240E-02 -0.79332546528E-02 -0.32473294645E-01  0.33976845733E-01  0.51100000000E-03 0. -1.
</event>
<event>
 7    1  0.1030163E+005  0.1043930E+01  0.7957747E-01            NaN
         13   -1    0    0    0    0  0.00000000000E+00  0.00000000000E+00  0.74505805969E-08  0.10566000000E+00  0.10566000000E+00 0. -1.
     999900   -1    0    0    0    0 -0.00000000000E+00 -0.00000000000E+00 -0.74505805969E-08  0.93827000000E+00  0.93827000000E+00 0. -1.
     999903    2    1    2    0    0 -0.24263003723E-01 -0.11369247250E+00 -0.14559369775E-01  0.11869739005E+00  0.19037423762E-01 0.  0.
         14    1    1    2    0    0 -0.17188907001E-01  0.21612150003E-01  0.28040822660E-01  0.39355193903E-01  0.00000000000E+00 0. -1.
     999901    1    1    2    0    0  0.41451910725E-01  0.92080322495E-01 -0.13481452885E-01  0.88587741605E+00  0.88000000000E+00 0. -1.
        -11    1    3    3    0    0 -0.13563154814E-01 -0.54825082001E-01 -0.16470779721E-01  0.58832784147E-01  0.51100000000E-03 0. -1.
         11    1    3    3    0    0 -0.10699848910E-01 -0.58867390498E-01  0.19114099460E-02  0.59864605901E-01  0.51100000000E-03 0.  1.
</event>
<event>
 8    1  0.1030163E+005  0.1043930E+01  0.7957747E-01            NaN
         13   -1    0    0    0    0  0.00000000000E+00  0.00000000000E+00  0.74505805969E-08  0.10566000000E+00  0.10566000000E+00 0.  1.
     999900   -1    0    0    0    0 -0.00000000000E+00 -0.00000000000E+00 -0.74505805969E-08  0.93827000000E+00  0.93827000000E+00 0.  1.
     999902    2    1    2    0    0  0.20423212036E-01  0.14492987859E-01  0.80496786815E-02  0.10176250268E+01  0.10172849864E+01 0.  0.
     999903    2    3    3    0    0 -0.25859917658E-01 -0.11794351497E+00 -0.28981416790E-01  0.12574338815E+00  0.19800734327E-01 0.  0.
         14    1    1    2    0    0 -0.20423212036E-01 -0.14492987859E-01 -0.80496786815E-02  0.26304973177E-01  0.00000000000E+00 0. -1.
     999901    1    3    3    0    0  0.46283129694E-01  0.13243650283E+00  0.37031095471E-01  0.89188163868E+00  0.88000000000E+00 0.  1.
        -11    1    4    4    0    0 -0.84637945084E-03 -0.37519135638E-01 -0.14735134708E-01  0.40321051736E-01  0.51100000000E-03 0. -1.
         11    1    4    4    0    0 -0.25013538207E-01 -0.80424379328E-01 -0.14246282081E-01  0.85422336412E-01  0.51100000000E-03 0.  1.
</event>
<event>
 8    1  0.1030163E+005  0.1043930E+01  0.7957747E-01            NaN
         13   -1    0    0    0    0  0.00000000000E+00  0.00000000000E+00  0.74505805969E-08  0.10566000000E+00  0.10566000000E+00 0.  1.
     999900   -1    0    0    0    0 -0.00000000000E+00 -0.00000000000E+00 -0.74505805969E-08  0.93827000000E+00  0.93827000000E+00 0. -1.
     999902    2    1    2    0    0  0.46261714203E-02 -0.85667970073E-02 -0.20922218793E-01  0.10208533730E+01  0.10205925135E+01 0.  0.
     999903    2    3    3    0    0  0.10456787656E+00  0.69442225143E-01  0.28874125141E-01  0.13037404827E+00  0.20174585963E-01 0.  0.
         14    1    1    2    0    0 -0.46261714203E-02  0.85667970073E-02  0.20922218793E-01  0.23076626968E-01  0.00000000000E+00 0.  1.
     999901    1    3    3    0    0 -0.99941705137E-01 -0.78009022150E-01 -0.49796343934E-01  0.89047932476E+00  0.88000000000E+00 0. -1.
        -11    1    4    4    0    0  0.56656555630E-01  0.29955355670E-01  0.66767368702E-02  0.64437012388E-01  0.51100000000E-03 0.  1.
         11    1    4    4    0    0  0.47911320927E-01  0.39486869472E-01  0.22197388270E-01  0.65937035881E-01  0.51100000000E-03 0. -1.
</event>
<event>
 8    1  0.1030163E+005  0.1043930E+01  0.7957747E-01            NaN
         13   -1    0    0    0    0  0.00000000000E+00  0.00000000000E+00  0.74505805969E-08  0.10566000000E+00  0.10566000000E+00 0.  1.
     999900   -1    0    0    0    0 -0.00000000000E+00 -0.00000000000E+00 -0.74505805969E-08  0.93827000000E+00  0.93827000000E+00 0. -1.
     999902    2    1    2    0    0  0.13472182800E-01 -0.71145446449E-02  0.10895216451E-01  0.10251997518E+01  0.10250286381E+01 0.  0.
     999903    2    3    3    0    0 -0.93690358605E-01 -0.88172702348E-01 -0.31478173301E-01  0.13399285140E+00  0.20270670891E-01 0.  0.
         14    1    1    2    0    0 -0.13472182800E-01  0.71145446449E-02 -0.10895216451E-01  0.18730248168E-01  0.00000000000E+00 0. -1.
     999901    1    3    3    0    0  0.10716254141E+00  0.81058157704E-01  0.42373389751E-01  0.89120690043E+00  0.88000000000E+00 0.  1.
        -11    1    4    4    0    0 -0.11661993354E-01 -0.13301791102E-01  0.24469542837E-02  0.17865845678E-01  0.51100000000E-03 0. -1.
         11    1    4    4    0    0 -0.82028365250E-01 -0.74870911246E-01 -0.33925127584E-01  0.11612700573E+00  0.51100000000E-03 0.  1.
</event>
<event>
 8    1  0.1030163E+005  0.1043930E+01  0.7957747E-01            NaN
         13   -1    0    0    0    0  0.00000000000E+00  0.00000000000E+00  0.74505805969E-08  0.10566000000E+00  0.10566000000E+00 0. -1.
     999900   -1    0    0    0    0 -0.00000000000E+00 -0.00000000000E+00 -0.74505805969E-08  0.93827000000E+00  0.93827000000E+00 0.  1.
     999902    2    1    2    0    0 -0.11629614139E-01  0.17149647623E-01  0.11121461719E-01  0.10204130859E+01  0.10201420590E+01 0.  0.
     999903    2    3    3    0    0  0.27864879487E-01  0.12790235675E+00  0.69557014983E-02  0.13258239754E+00  0.19855628550E-01 0.  0.
         14    1    1    2    0    0  0.11629614139E-01 -0.17149647623E-01 -0.11121461719E-01  0.23516914113E-01  0.00000000000E+00 0.  1.
     999901    1    3    3    0    0 -0.39494493626E-01 -0.11075270912E+00  0.41657602211E-02  0.88783068834E+00  0.88000000000E+00 0.  1.
        -11    1    4    4    0    0  0.20616219395E-01  0.70229248018E-01  0.12250681191E-01  0.74212641039E-01  0.51100000000E-03 0.  1.
         11    1    4    4    0    0  0.72486600916E-02  0.57673108729E-01 -0.52949796930E-02  0.58369756505E-01  0.51100000000E-03 0. -1.
</event>
<event>
 8    1  0.1030163E+005  0.1043930E+01  0.7957747E-01            NaN
         13   -1    0    0    0    0  0.00000000000E+00  0.00000000000E+00  0.74505805969E-08  0.10566000000E+00  0.10566000000E+00 0.  1.
     999900   -1    0    0    0    0 -0.00000000000E+00 -0.00000000000E+00 -0.74505805969E-08  0.93827000000E+00  0.93827000000E+00 0.  1.
     999902    2    1    2    0    0 -0.20303716397E-01 -0.14835469539E-02 -0.75859849950E-02  0.10222046927E+01  0.10219737984E+01 0.  0.
     999903    2    3    3    0    0  0.23588895237E-01 -0.11985339067E+00 -0.46859138422E-01  0.13232809343E+00  0.19841225373E-01 0.  0.
         14    1    1    2    0    0  0.20303716397E-01  0.14835469539E-02  0.75859849950E-02  0.21725307350E-01  0.00000000000E+00 0. -1.
     999901    1    3    3    0    0 -0.43892611634E-01  0.11836984371E+00  0.39273153428E-01  0.88987659922E+00  0.88000000000E+00 0.  1.
        -11    1    4    4    0    0  0.23941485923E-01 -0.96814355808E-01 -0.44336571014E-01  0.10914305699E+00  0.51100000000E-03 0.  1.
         11    1    4    4    0    0 -0.35259068569E-03 -0.23039034860E-01 -0.25225674083E-02  0.23185036442E-01  0.51100000000E-03 0. -1.
</event>
<event>
 8    1  0.1030163E+005  0.1043930E+01  0.7957747E-01            NaN
         13   -1    0    0    0    0  0.00000000000E+00  0.00000000000E+00  0.74505805969E-08  0.10566000000E+00  0.10566000000E+00 0. -1.
     999900   -1    0    0    0    0 -0.00000000000E+00 -0.00000000000E+00 -0.74505805969E-08  0.93827000000E+00  0.93827000000E+00 0.  1.
     999902    2    1    2    0    0  0.98779261184E-02  0.11079214953E-01 -0.18768441187E-01  0.10200014227E+01  0.10197207095E+01 0.  0.
     999903    2    3    3    0    0  0.66915959309E-01  0.79566952870E-01 -0.81080754520E-01  0.13330715074E+00  0.19699291532E-01 0.  0.
         14    1    1    2    0    0 -0.98779261184E-02 -0.11079214953E-01  0.18768441187E-01  0.23928577328E-01  0.00000000000E+00 0. -1.
     999901    1    3    3    0    0 -0.57038033190E-01 -0.68487737917E-01  0.62312313333E-01  0.88669427193E+00  0.88000000000E+00 0.  1.
        -11    1    4    4    0    0  0.12301298426E-01  0.23667385203E-01 -0.13079373121E-01  0.29711919957E-01  0.51100000000E-03 0.  1.
         11    1    4    4    0    0  0.54614660883E-01  0.55899567667E-01 -0.68001381399E-01  0.10359523079E+00  0.51100000000E-03 0. -1.
</event>
<event>
 8    1  0.1030163E+005  0.1043930E+01  0.7957747E-01            NaN
         13   -1    0    0    0    0  0.00000000000E+00  0.00000000000E+00  0.74505805969E-08  0.10566000000E+00  0.10566000000E+00 0.  1.
     999900   -1    0    0    0    0 -0.00000000000E+00 -0.00000000000E+00 -0.74505805969E-08  0.93827000000E+00  0.93827000000E+00 0. -1.
     999902    2    1    2    0    0  0.15054931266E-01 -0.14468261414E-01 -0.11212312478E-01  0.10202298419E+01  0.10199545249E+01 0.  0.
     999903    2    3    3    0    0  0.32214982452E-01 -0.10424455365E+00  0.70796784544E-01  0.13170311634E+00  0.20707343938E-01 0.  0.
         14    1    1    2    0    0 -0.15054931266E-01  0.14468261414E-01  0.11212312478E-01  0.23700158119E-01  0.00000000000E+00 0.  1.
     999901    1    3    3    0    0 -0.17160051187E-01  0.89776292232E-01 -0.82009097022E-01  0.88852672554E+00  0.88000000000E+00 0. -1.
        -11    1    4    4    0    0  0.95474771526E-02 -0.59232544524E-01  0.45566548632E-01  0.75340693692E-01  0.51100000000E-03 0.  1.
         11    1    4    4    0    0  0.22667505300E-01 -0.45012009123E-01  0.25230235912E-01  0.56362422649E-01  0.51100000000E-03 0. -1.
</event>
<event>
 8    1  0.1030163E+005  0.1043930E+01  0.7957747E-01            NaN
         13   -1    0    0    0    0  0.00000000000E+00  0.00000000000E+00  0.74505805969E-08  0.10566000000E+00  0.10566000000E+00 0.  1.
     999900   -1    0    0    0    0 -0.00000000000E+00 -0.00000000000E+00 -0.74505805969E-08  0.93827000000E+00  0.93827000000E+00 0. -1.
     999902    2    1    2    0    0 -0.19903101277E-02  0.17832715651E-01 -0.16013206190E-01  0.10198802629E+01  0.10195966657E+01 0.  0.
     999903    2    3    3    0    0  0.11167352641E+00  0.63235050923E-01 -0.20320783831E-01  0.13139875212E+00  0.19571653873E-01 0.  0.
         14    1    1    2    0    0  0.19903101277E-02 -0.17832715651E-01  0.16013206190E-01  0.24049737096E-01  0.00000000000E+00 0.  1.
     999901    1    3    3    0    0 -0.11366383654E+00 -0.45402335272E-01  0.43075776411E-02  0.88848151079E+00  0.88000000000E+00 0. -1.
        -11    1    4    4    0    0  0.45090453044E-01  0.14764035197E-01 -0.82196838199E-02  0.48155477509E-01  0.51100000000E-03 0. -1.
         11    1    4    4    0    0  0.66583073370E-01  0.48471015726E-01 -0.12101100012E-01  0.83243274608E-01  0.51100000000E-03 0.  1.
</event>
<event>
 8    1  0.1030163E+005  0.1043930E+01  0.7957747E-01            NaN
         13   -1    0    0    0    0  0.00000000000E+00  0.00000000000E+00  0.74505805969E-08  0.10566000000E+00  0.10566000000E+00 0. -1.
     999900   -1    0    0    0    0 -0.00000000000E+00 -0.00000000000E+00 -0.74505805969E-08  0.93827000000E+00  0.93827000000E+00 0. -1.
     999902    2    1    2    0    0  0.21323894026E-01  0.98713973509E-02 -0.31746435564E-02  0.10202185828E+01  0.10199430011E+01 0.  0.
     999903    2    3    3    0    0 -0.88777748954E-01 -0.80911465656E-01 -0.39181408501E-01  0.12799642041E+00  0.20487725163E-01 0.  0.
         14    1    1    2    0    0 -0.21323894026E-01 -0.98713973509E-02  0.31746435564E-02  0.23711417162E-01  0.00000000000E+00 0.  1.
     999901    1    3    3    0    0  0.11010164298E+00  0.90782863007E-01  0.36006764945E-01  0.89222216243E+00  0.88000000000E+00 0. -1.
        -11    1    4    4    0    0 -0.33543169708E-01 -0.17791671515E-01 -0.12604895048E-01  0.40010402516E-01  0.51100000000E-03 0.  1.
         11    1    4    4    0    0 -0.55234579246E-01 -0.63119794141E-01 -0.26576513453E-01  0.87986017896E-01  0.51100000000E-03 0. -1.
</event>
<event>
 8    1  0.1030163E+005  0.1043930E+01  0.7957747E-01            NaN
         13   -1    0    0    0    0  0.00000000000E+00  0.00000000000E+00  0.74505805969E-08  0.10566000000E+00  0.10566000000E+00 0.  1.
     999900   -1    0    0    0    0 -0.00000000000E+00 -0.00000000000E+00 -0.74505805969E-08  0.93827000000E+00  0.93827000000E+00 0.  1.
     999902    2    1    2    0    0 -0.94614673252E-02 -0.52519750202E-02 -0.20207404819E-01  0.10210074824E+01  0.10207501346E+01 0.  0.
     999903    2    3    3    0    0 -0.88462095756E-01  0.33454562213E-01 -0.92301579208E-01  0.13368743564E+00  0.20198980335E-01 0.  0.
         14    1    1    2    0    0  0.94614673252E-02  0.52519750202E-02  0.20207404819E-01  0.22922517643E-01  0.00000000000E+00 0.  1.
     999901    1    3    3    0    0  0.79000628431E-01 -0.38706537233E-01  0.72094174389E-01  0.88732004671E+00  0.88000000000E+00 0. -1.
        -11    1    4    4    0    0 -0.83271079048E-01  0.29733134074E-01 -0.77576636092E-01  0.11762876968E+00  0.51100000000E-03 0. -1.
         11    1    4    4    0    0 -0.51910167084E-02  0.37214281384E-02 -0.14724943116E-01  0.16058665967E-01  0.51100000000E-03 0.  1.
</event>
<event>
 8    1  0.1030163E+005  0.1043930E+01  0.7957747E-01            NaN
         13   -1    0    0    0    0  0.00000000000E+00  0.00000000000E+00  0.74505805969E-08  0.10566000000E+00  0.10566000000E+00 0. -1.
     999900   -1    0    0    0    0 -0.00000000000E+00 -0.00000000000E+00 -0.74505805969E-08  0.93827000000E+00  0.93827000000E+00 0.  1.
     999902    2    1    2    0    0  0.17682774863E-02 -0.22789878790E-01 -0.56408019497E-02  0.10203859131E+01  0.10201142523E+01 0.  0.
     999903    2    3    3    0    0  0.90248245420E-01 -0.44374953999E-01  0.82648864436E-01  0.13129104451E+00  0.17106175238E-01 0.  0.
         14    1    1    2    0    0 -0.17682774863E-02  0.22789878790E-01  0.56408019497E-02  0.23544086884E-01  0.00000000000E+00 0.  1.
     999901    1    3    3    0    0 -0.88479967934E-01  0.21585075209E-01 -0.88289666386E-01  0.88909486861E+00  0.88000000000E+00 0.  1.
        -11    1    4    4    0    0  0.29850584793E-01 -0.23435595396E-01  0.27597477141E-01  0.46927245920E-01  0.51100000000E-03 0. -1.
         11    1    4    4    0    0  0.60397660627E-01 -0.20939358603E-01  0.55051387295E-01  0.84363798587E-01  0.51100000000E-03 0.  1.
</event>
<event>
 8    1  0.1030163E+005  0.1043930E+01  0.7957747E-01            NaN
         13   -1    0    0    0    0  0.00000000000E+00  0.00000000000E+00  0.74505805969E-08  0.10566000000E+00  0.10566000000E+00 0.  1.
     999900   -1    0    0    0    0 -0.00000000000E+00 -0.00000000000E+00 -0.74505805969E-08  0.93827000000E+00  0.93827000000E+00 0.  1.
     999902    2    1    2    0    0  0.21268156186E-01 -0.10626695092E-01  0.28073345547E-02  0.10199896106E+01  0.10197086170E+01 0.  0.
     999903    2    3    3    0    0  0.17891234148E-01  0.53957232289E-01 -0.11478806837E+00  0.12981481539E+00  0.21073833979E-01 0.  0.
         14    1    1    2    0    0 -0.21268156186E-01  0.10626695092E-01 -0.28073345547E-02  0.23940389375E-01  0.00000000000E+00 0. -1.
     999901    1    3    3    0    0  0.33769220379E-02 -0.64583927381E-01  0.11759540293E+00  0.89017479523E+00  0.88000000000E+00 0. -1.
        -11    1    4    4    0    0 -0.36543989852E-02  0.89106588000E-02 -0.28876015856E-01  0.30444045147E-01  0.51100000000E-03 0.  1.
         11    1    4    4    0    0  0.21545633133E-01  0.45046573489E-01 -0.85912052517E-01  0.99370770244E-01  0.51100000000E-03 0. -1.
</event>
<event>
 8    1  0.1030163E+005  0.1043930E+01  0.7957747E-01            NaN
         13   -1    0    0    0    0  0.00000000000E+00  0.00000000000E+00  0.74505805969E-08  0.10566000000E+00  0.10566000000E+00 0.  1.
     999900   -1    0    0    0    0 -0.00000000000E+00 -0.00000000000E+00 -0.74505805969E-08  0.93827000000E+00  0.93827000000E+00 0. -1.
     999902    2    1    2    0    0  0.23035751772E-01 -0.62803869298E-02 -0.87669595185E-03  0.10200373711E+01  0.10197575108E+01 0.  0.
     999903    2    3    3    0    0  0.18490544588E-02  0.12259584498E+00 -0.37397797451E-01  0.12964883224E+00  0.19418141962E-01 0.  0.
         14    1    1    2    0    0 -0.23035751772E-01  0.62803869298E-02  0.87669595185E-03  0.23892628895E-01  0.00000000000E+00 0. -1.
     999901    1    3    3    0    0  0.21186697313E-01 -0.12887623191E+00  0.36521101499E-01  0.89038853887E+00  0.88000000000E+00 0. -1.
        -11    1    4    4    0    0  0.39378359919E-02  0.62301094304E-01 -0.28639204108E-01  0.68683317019E-01  0.51100000000E-03 0. -1.
         11    1    4    4    0    0 -0.20887815331E-02  0.60294750676E-01 -0.87585933436E-02  0.60965515218E-01  0.51100000000E-03 0.  1.
</event>
<event>
 8    1  0.1030163E+005  0.1043930E+01  0.7957747E-01            NaN
         13   -1    0    0    0    0  0.00000000000E+00  0.00000000000E+00  0.74505805969E-08  0.10566000000E+00  0.10566000000E+00 0. -1.
     999900   -1    0    0    0    0 -0.00000000000E+00 -0.00000000000E+00 -0.74505805969E-08  0.93827000000E+00  0.93827000000E+00 0. -1.
     999902    2    1    2    0    0 -0.39224624992E-03 -0.18469482624E-01 -0.14028956311E-01  0.10207332920E+01  0.10204696792E+01 0.  0.
     999903    2    3    3    0    0  0.83115569961E-01  0.85464542331E-01  0.44268280268E-01  0.12878351502E+00  0.20325529204E-01 0.  0.
         14    1    1    2    0    0  0.39224624992E-03  0.18469482624E-01  0.14028956311E-01  0.23196707971E-01  0.00000000000E+00 0. -1.
     999901    1    3    3    0    0 -0.83507816211E-01 -0.10393402496E+00 -0.58297236579E-01  0.89194977701E+00  0.88000000000E+00 0.  1.
        -11    1    4    4    0    0  0.49572023223E-01  0.56005348766E-01  0.17808372513E-01  0.76885524187E-01  0.51100000000E-03 0. -1.
         11    1    4    4    0    0  0.33543546737E-01  0.29459193565E-01  0.26459907755E-01  0.51897990834E-01  0.51100000000E-03 0.  1.
</event>
<event>
 8    1  0.1030163E+005  0.1043930E+01  0.7957747E-01            NaN
         13   -1    0    0    0    0  0.00000000000E+00  0.00000000000E+00  0.74505805969E-08  0.10566000000E+00  0.10566000000E+00 0. -1.
     999900   -1    0    0    0    0 -0.00000000000E+00 -0.00000000000E+00 -0.74505805969E-08  0.93827000000E+00  0.93827000000E+00 0. -1.
     999902    2    1    2    0    0  0.22736986765E-01  0.49697599299E-02  0.36161474231E-02  0.10203769619E+01  0.10201050920E+01 0.  0.
     999903    2    3    3    0    0 -0.10166513495E-01  0.12432116112E+00 -0.35613324310E-01  0.13084542861E+00  0.17120403621E-01 0.  0.
         14    1    1    2    0    0 -0.22736986765E-01 -0.49697599299E-02 -0.36161474231E-02  0.23553038086E-01  0.00000000000E+00 0.  1.
     999901    1    3    3    0    0  0.32903500260E-01 -0.11935140119E+00  0.39229471733E-01  0.88953153331E+00  0.88000000000E+00 0. -1.
        -11    1    4    4    0    0 -0.11462977732E-02  0.89757700752E-01 -0.30214544926E-01  0.94715039402E-01  0.51100000000E-03 0.  1.
         11    1    4    4    0    0 -0.90202157221E-02  0.34563460368E-01 -0.53987793840E-02  0.36130389205E-01  0.51100000000E-03 0. -1.
</event>
<event>
 8    1  0.1030163E+005  0.1043930E+01  0.7957747E-01            NaN
         13   -1    0    0    0    0  0.00000000000E+00  0.00000000000E+00  0.74505805969E-08  0.10566000000E+00  0.10566000000E+00 0. -1.
     999900   -1    0    0    0    0 -0.00000000000E+00 -0.00000000000E+00 -0.74505805969E-08  0.93827000000E+00  0.93827000000E+00 0.  1.
     999902    2    1    2    0    0 -0.11651979298E-01  0.12702822636E-02 -0.20851192928E-01  0.10200102491E+01  0.10197297454E+01 0.  0.
     999903    2    3    3    0    0  0.42641039803E-01  0.26190849141E-01  0.11575335521E+00  0.12746917485E+00  0.18583122443E-01 0.  0.
         14    1    1    2    0    0  0.11651979298E-01 -0.12702822636E-02  0.20851192928E-01  0.23919750942E-01  0.00000000000E+00 0. -1.
     999901    1    3    3    0    0 -0.54293019101E-01 -0.24920566878E-01 -0.13660454814E+00  0.89254107421E+00  0.88000000000E+00 0.  1.
        -11    1    4    4    0    0  0.50576012696E-02  0.11521553412E-01  0.21056502418E-01  0.24534933028E-01  0.51100000000E-03 0.  1.
         11    1    4    4    0    0  0.37583438533E-01  0.14669295729E-01  0.94696852795E-01  0.10293424182E+00  0.51100000000E-03 0. -1.
</event>
<event>
 8    1  0.1030163E+005  0.1043930E+01  0.7957747E-01            NaN
         13   -1    0    0    0    0  0.00000000000E+00  0.00000000000E+00  0.74505805969E-08  0.10566000000E+00  0.10566000000E+00 0.  1.
     999900   -1    0    0    0    0 -0.00000000000E+00 -0.00000000000E+00 -0.74505805969E-08  0.93827000000E+00  0.93827000000E+00 0.  1.
     999902    2    1    2    0    0 -0.18095609783E-01  0.12223520424E-01  0.11075051570E-01  0.10194448553E+01  0.10191507693E+01 0.  0.
     999903    2    3    3    0    0  0.82344940795E-01 -0.88084109649E-01  0.36975198084E-01  0.12769335265E+00  0.19973166730E-01 0.  0.
         14    1    1    2    0    0  0.18095609783E-01 -0.12223520424E-01 -0.11075051570E-01  0.24485144726E-01  0.00000000000E+00 0. -1.
     999901    1    3    3    0    0 -0.10044055058E+00  0.10030763007E+00 -0.25900146514E-01  0.89175150263E+00  0.88000000000E+00 0.  1.
        -11    1    4    4    0    0  0.56653682390E-01 -0.63478427982E-01  0.16581174513E-01  0.86685333343E-01  0.51100000000E-03 0.  1.
         11    1    4    4    0    0  0.25691258405E-01 -0.24605681667E-01  0.20394023572E-01  0.41008019303E-01  0.51100000000E-03 0. -1.
</event>
<event>
 8    1  0.1030163E+005  0.1043930E+01  0.7957747E-01            NaN
         13   -1    0    0    0    0  0.00000000000E+00  0.00000000000E+00  0.74505805969E-08  0.10566000000E+00  0.10566000000E+00 0. -1.
     999900   -1    0    0    0    0 -0.00000000000E+00 -0.00000000000E+00 -0.74505805969E-08  0.93827000000E+00  0.93827000000E+00 0.  1.
     999902    2    1    2    0    0  0.13593204439E-01 -0.13855135765E-01 -0.12841474649E-01  0.10206567650E+01  0.10203913899E+01 0.  0.
     999903    2    3    3    0    0 -0.77838757664E-01 -0.32513311394E-01 -0.98895036186E-01  0.13154870262E+00  0.20219925016E-01 0.  0.
         14    1    1    2    0    0 -0.13593204439E-01  0.13855135765E-01  0.12841474649E-01  0.23273234952E-01  0.00000000000E+00 0. -1.
     999901    1    3    3    0    0  0.91431962103E-01  0.18658175629E-01  0.86053561537E-01  0.88910806242E+00  0.88000000000E+00 0. -1.
        -11    1    4    4    0    0 -0.51187274555E-01 -0.18000455084E-01 -0.48810259601E-01  0.72985313748E-01  0.51100000000E-03 0.  1.
         11    1    4    4    0    0 -0.26651483109E-01 -0.14512856310E-01 -0.50084776585E-01  0.58563388877E-01  0.51100000000E-03 0. -1.
</event>
<event>
 8    1  0.1030163E+005  0.1043930E+01  0.7957747E-01            NaN
         13   -1    0    0    0    0  0.00000000000E+00  0.00000000000E+00  0.74505805969E-08  0.10566000000E+00  0.10566000000E+00 0.  1.
     999900   -1    0    0    0    0 -0.00000000000E+00 -0.00000000000E+00 -0.74505805969E-08  0.93827000000E+00  0.93827000000E+00 0. -1.
     999902    2    1    2    0    0  0.95559749394E-02 -0.24691742928E-02  0.21744693691E-01  0.10200501930E+01  0.10197706365E+01 0.  0.
     999903    2    3    3    0    0 -0.28302908554E-01 -0.11780702133E+00 -0.41549657922E-01  0.12946482990E+00  0.18847259783E-01 0.  0.
         14    1    1    2    0    0 -0.95559749394E-02  0.24691742928E-02 -0.21744693691E-01  0.23879807001E-01  0.00000000000E+00 0. -1.
     999901    1    3    3    0    0  0.37858883494E-01  0.11533784703E+00  0.63294351613E-01  0.89058536310E+00  0.88000000000E+00 0.  1.
        -11    1    4    4    0    0  0.94653846629E-03 -0.29130752499E-01 -0.11997852279E-01  0.31523106708E-01  0.51100000000E-03 0. -1.
         11    1    4    4    0    0 -0.29249447021E-01 -0.88676268827E-01 -0.29551805644E-01  0.97941723193E-01  0.51100000000E-03 0.  1.
</event>
<event>
 8    1  0.1030163E+005  0.1043930E+01  0.7957747E-01            NaN
         13   -1    0    0    0    0  0.00000000000E+00  0.00000000000E+00  0.74505805969E-08  0.10566000000E+00  0.10566000000E+00 0.  1.
     999900   -1    0    0    0    0 -0.00000000000E+00 -0.00000000000E+00 -0.74505805969E-08  0.93827000000E+00  0.93827000000E+00 0.  1.
     999902    2    1    2    0    0  0.94727675092E-02 -0.17131030552E-01 -0.13833804029E-01  0.10199596086E+01  0.10196779018E+01 0.  0.
     999903    2    3    3    0    0 -0.64269002384E-01 -0.10044965664E+00  0.49677538848E-01  0.13068263665E+00  0.19734626178E-01 0.  0.
         14    1    1    2    0    0 -0.94727675092E-02  0.17131030552E-01  0.13833804029E-01  0.23970391444E-01  0.00000000000E+00 0.  1.
     999901    1    3    3    0    0  0.73741769893E-01  0.83318626088E-01 -0.63511342877E-01  0.88927697190E+00  0.88000000000E+00 0.  1.
        -11    1    4    4    0    0 -0.27077076773E-01 -0.32664193514E-01  0.26237835660E-01  0.49887901996E-01  0.51100000000E-03 0. -1.
         11    1    4    4    0    0 -0.37191925611E-01 -0.67785463127E-01  0.23439703188E-01  0.80794734658E-01  0.51100000000E-03 0.  1.
</event>
<event>
 8    1  0.1030163E+005  0.1043930E+01  0.7957747E-01            NaN
         13   -1    0    0    0    0  0.00000000000E+00  0.00000000000E+00  0.74505805969E-08  0.10566000000E+00  0.10566000000E+00 0. -1.
     999900   -1    0    0    0    0 -0.00000000000E+00 -0.00000000000E+00 -0.74505805969E-08  0.93827000000E+00  0.93827000000E+00 0. -1.
     999902    2    1    2    0    0  0.16972049759E-01  0.76498514109E-02 -0.14251989192E-01  0.10204845336E+01  0.10202151701E+01 0.  0.
     999903    2    3    3    0    0 -0.10112428996E+00  0.14583772125E-01 -0.78256836353E-01  0.13026464773E+00  0.20147892718E-01 0.  0.
         14    1    1    2    0    0 -0.16972049759E-01 -0.76498514109E-02  0.14251989192E-01  0.23445466418E-01  0.00000000000E+00 0. -1.
     999901    1    3    3    0    0  0.11809633972E+00 -0.69339207138E-02  0.64004847161E-01  0.89021988586E+00  0.88000000000E+00 0.  1.
        -11    1    4    4    0    0 -0.25308483089E-01 -0.41305985087E-02 -0.24404504537E-01  0.35403702108E-01  0.51100000000E-03 0. -1.
         11    1    4    4    0    0 -0.75815806876E-01  0.18714370633E-01 -0.53852331816E-01  0.94860945618E-01  0.51100000000E-03 0.  1.
</event>
<event>
 8    1  0.1030163E+005  0.1043930E+01  0.7957747E-01            NaN
         13   -1    0    0    0    0  0.00000000000E+00  0.00000000000E+00  0.74505805969E-08  0.10566000000E+00  0.10566000000E+00 0.  1.
     999900   -1    0    0    0    0 -0.00000000000E+00 -0.00000000000E+00 -0.74505805969E-08  0.93827000000E+00  0.93827000000E+00 0.  1.
     999902    2    1    2    0    0  0.12147591397E-01 -0.17442518939E-03  0.19943757411E-01  0.10205773158E+01  0.10203101046E+01 0.  0.
     999903    2    3    3    0    0 -0.87509707282E-01 -0.69853290278E-01 -0.59744903856E-01  0.12864850463E+00  0.21060702142E-01 0.  0.
         14    1    1    2    0    0 -0.12147591397E-01  0.17442518939E-03 -0.19943757411E-01  0.23352684226E-01  0.00000000000E+00 0.  1.
     999901    1    3    3    0    0  0.99657298678E-01  0.69678865089E-01  0.79688661267E-01  0.89192881115E+00  0.88000000000E+00 0. -1.
        -11    1    4    4    0    0 -0.20439605674E-01 -0.25498977404E-01 -0.10375613312E-01  0.34291249633E-01  0.51100000000E-03 0. -1.
         11    1    4    4    0    0 -0.67070101608E-01 -0.44354312874E-01 -0.49369290544E-01  0.94357254994E-01  0.51100000000E-03 0.  1.
</event>
<event>
 8    1  0.1030163E+005  0.1043930E+01  0.7957747E-01            NaN
         13   -1    0    0    0    0  0.00000000000E+00  0.00000000000E+00  0.74505805969E-08  0.10566000000E+00  0.10566000000E+00 0. -1.
     999900   -1    0    0    0    0 -0.00000000000E+00 -0.00000000000E+00 -0.74505805969E-08  0.93827000000E+00  0.93827000000E+00 0.  1.
     999902    2    1    2    0    0 -0.73948377358E-02  0.72772725166E-02 -0.21368960945E-01  0.10201755307E+01  0.10198989355E+01 0.  0.
     999903    2    3    3    0    0 -0.50457682721E-01 -0.34106122787E-01  0.11085655836E+00  0.12829516765E+00  0.21477154191E-01 0.  0.
         14    1    1    2    0    0  0.73948377358E-02 -0.72772725166E-02  0.21368960945E-01  0.23754469312E-01  0.00000000000E+00 0. -1.
     999901    1    3    3    0    0  0.43062844985E-01  0.41383395303E-01 -0.13222551931E+00  0.89188036304E+00  0.88000000000E+00 0.  1.
        -11    1    4    4    0    0 -0.27077901261E-01 -0.27698927508E-01  0.53760579769E-01  0.66263899522E-01  0.51100000000E-03 0.  1.
         11    1    4    4    0    0 -0.23379781460E-01 -0.64071952788E-02  0.57095978594E-01  0.62031268123E-01  0.51100000000E-03 0. -1.
</event>
<event>
 8    1  0.1030163E+005  0.1043930E+01  0.7957747E-01            NaN
         13   -1    0    0    0    0  0.00000000000E+00  0.00000000000E+00  0.74505805969E-08  0.10566000000E+00  0.10566000000E+00 0. -1.
     999900   -1    0    0    0    0 -0.00000000000E+00 -0.00000000000E+00 -0.74505805969E-08  0.93827000000E+00  0.93827000000E+00 0. -1.
     999902    2    1    2    0    0 -0.91853446881E-02 -0.21534496262E-01  0.15071049593E-01  0.10160868389E+01  0.10157052833E+01 0.  0.
     999903    2    3    3    0    0  0.44730743798E-01  0.87337455354E-01  0.76116823013E-01  0.12564501993E+00  0.19084803895E-01 0.  0.
         14    1    1    2    0    0  0.91853446881E-02  0.21534496262E-01 -0.15071049593E-01  0.27843161138E-01  0.00000000000E+00 0. -1.
     999901    1    3    3    0    0 -0.53916088486E-01 -0.10887195162E+00 -0.61045773421E-01  0.89044181893E+00  0.88000000000E+00 0.  1.
        -11    1    4    4    0    0  0.19494606813E-01  0.54291746159E-01  0.36856020894E-01  0.68456269201E-01  0.51100000000E-03 0.  1.
         11    1    4    4    0    0  0.25236136985E-01  0.33045709195E-01  0.39260802120E-01  0.57188750731E-01  0.51100000000E-03 0. -1.
</event>
<event>
 8    1  0.1030163E+005  0.1043930E+01  0.7957747E-01            NaN
         13   -1    0    0    0    0  0.00000000000E+00  0.00000000000E+00  0.74505805969E-08  0.10566000000E+00  0.10566000000E+00 0. -1.
     999900   -1    0    0    0    0 -0.00000000000E+00 -0.00000000000E+00 -0.74505805969E-08  0.93827000000E+00  0.93827000000E+00 0.  1.
     999902    2    1    2    0    0 -0.12318174981E-01  0.19919995311E-01 -0.48796762052E-02  0.10200060604E+01  0.10197254573E+01 0.  0.
     999903    2    3    3    0    0 -0.78440674700E-01 -0.45411263554E-01  0.90935780255E-01  0.12993810787E+00  0.19986831694E-01 0.  0.
         14    1    1    2    0    0  0.12318174981E-01 -0.19919995311E-01  0.48796762052E-02  0.23923939640E-01  0.00000000000E+00 0. -1.
     999901    1    3    3    0    0  0.66122499719E-01  0.65331258864E-01 -0.95815456460E-01  0.89006795249E+00  0.88000000000E+00 0.  1.
        -11    1    4    4    0    0 -0.48104164815E-01 -0.32450928834E-01  0.69733384000E-01  0.90719785162E-01  0.51100000000E-03 0. -1.
         11    1    4    4    0    0 -0.30336509884E-01 -0.12960334719E-01  0.21202396255E-01  0.39218322707E-01  0.51100000000E-03 0.  1.
</event>
<event>
 8    1  0.1030163E+005  0.1043930E+01  0.7957747E-01            NaN
         13   -1    0    0    0    0  0.00000000000E+00  0.00000000000E+00  0.74505805969E-08  0.10566000000E+00  0.10566000000E+00 0. -1.
     999900   -1    0    0    0    0 -0.00000000000E+00 -0.00000000000E+00 -0.74505805969E-08  0.93827000000E+00  0.93827000000E+00 0. -1.
     999902    2    1    2    0    0  0.41437620144E-02  0.11747334990E-01  0.19649981453E-01  0.10206643082E+01  0.10203991070E+01 0.  0.
     999903    2    3    3    0    0  0.96397785257E-01 -0.67136792177E-01  0.55779842099E-01  0.13159801308E+00  0.20168400907E-01 0.  0.
         14    1    1    2    0    0 -0.41437620144E-02 -0.11747334990E-01 -0.19649981453E-01  0.23265691782E-01  0.00000000000E+00 0.  1.
     999901    1    3    3    0    0 -0.92254023243E-01  0.78884127167E-01 -0.36129860646E-01  0.88906629514E+00  0.88000000000E+00 0.  1.
        -11    1    4    4    0    0  0.17172105496E-01 -0.64080413526E-02  0.15289786487E-01  0.23874314502E-01  0.51100000000E-03 0.  1.
         11    1    4    4    0    0  0.79225679761E-01 -0.60728750824E-01  0.40490055612E-01  0.10772369858E+00  0.51100000000E-03 0. -1.
</event>
<event>
 8    1  0.1030163E+005  0.1043930E+01  0.7957747E-01            NaN
         13   -1    0    0    0    0  0.00000000000E+00  0.00000000000E+00  0.74505805969E-08  0.10566000000E+00  0.10566000000E+00 0. -1.
     999900   -1    0    0    0    0 -0.00000000000E+00 -0.00000000000E+00 -0.74505805969E-08  0.93827000000E+00  0.93827000000E+00 0. -1.
     999902    2    1    2    0    0  0.70469684583E-02 -0.25485626808E-02  0.17262784285E-01  0.10251108965E+01  0.10249381403E+01 0.  0.
     999903    2    3    3    0    0 -0.96666786820E-01 -0.16566105440E-01 -0.87280480019E-01  0.13276436701E+00  0.19738070619E-01 0.  0.
         14    1    1    2    0    0 -0.70469684583E-02  0.25485626808E-02 -0.17262784285E-01  0.18819103524E-01  0.00000000000E+00 0.  1.
     999901    1    3    3    0    0  0.10371375528E+00  0.14017542759E-01  0.10454326430E+00  0.89234652947E+00  0.88000000000E+00 0.  1.
        -11    1    4    4    0    0 -0.49806879693E-01 -0.15276515941E-01 -0.36256713761E-01  0.63473676574E-01  0.51100000000E-03 0. -1.
         11    1    4    4    0    0 -0.46859907127E-01 -0.12895894988E-02 -0.51023766257E-01  0.69290690436E-01  0.51100000000E-03 0.  1.
</event>
<event>
 8    1  0.1030163E+005  0.1043930E+01  0.7957747E-01            NaN
         13   -1    0    0    0    0  0.00000000000E+00  0.00000000000E+00  0.74505805969E-08  0.10566000000E+00  0.10566000000E+00 0.  1.
     999900   -1    0    0    0    0 -0.00000000000E+00 -0.00000000000E+00 -0.74505805969E-08  0.93827000000E+00  0.93827000000E+00 0.  1.
     999902    2    1    2    0    0 -0.20536829925E-01  0.36766804519E-02  0.14063622845E-01  0.10187692200E+01  0.10184584718E+01 0.  0.
     999903    2    3    3    0    0  0.78505691413E-01 -0.68829368198E-01  0.71977304451E-01  0.12836451278E+00  0.19902016862E-01 0.  0.
         14    1    1    2    0    0  0.20536829925E-01 -0.36766804519E-02 -0.14063622845E-01  0.25160779996E-01  0.00000000000E+00 0. -1.
     999901    1    3    3    0    0 -0.99042521338E-01  0.72506048650E-01 -0.57913681607E-01  0.89040470722E+00  0.88000000000E+00 0.  1.
        -11    1    4    4    0    0  0.29643803003E-01 -0.36649524284E-01  0.25186836757E-01  0.53446988255E-01  0.51100000000E-03 0.  1.
         11    1    4    4    0    0  0.48861888410E-01 -0.32179843914E-01  0.46790467694E-01  0.74917524528E-01  0.51100000000E-03 0. -1.
</event>
<event>
 8    1  0.1030163E+005  0.1043930E+01  0.7957747E-01            NaN
         13   -1    0    0    0    0  0.00000000000E+00  0.00000000000E+00  0.74505805969E-08  0.10566000000E+00  0.10566000000E+00 0. -1.
     999900   -1    0    0    0    0 -0.00000000000E+00 -0.00000000000E+00 -0.74505805969E-08  0.93827000000E+00  0.93827000000E+00 0. -1.
     999902    2    1    2    0    0  0.25827799084E-02 -0.22227548364E-01  0.87933027211E-02  0.10198871875E+01  0.10196037556E+01 0.  0.
     999903    2    3    3    0    0  0.91004007747E-01  0.83262749756E-01  0.31882601243E-01  0.12888795508E+00  0.19524082068E-01 0.  0.
         14    1    1    2    0    0 -0.25827799084E-02  0.22227548364E-01 -0.87933027211E-02  0.24042812461E-01  0.00000000000E+00 0.  1.
     999901    1    3    3    0    0 -0.88421227838E-01 -0.10549029812E+00 -0.23089298522E-01  0.89099923246E+00  0.88000000000E+00 0.  1.
        -11    1    4    4    0    0  0.95858890719E-02  0.14861751852E-01  0.99943801328E-02  0.20320179444E-01  0.51100000000E-03 0. -1.
         11    1    4    4    0    0  0.81418118675E-01  0.68400997904E-01  0.21888221110E-01  0.10856777564E+00  0.51100000000E-03 0.  1.
</event>
<event>
 8    1  0.1030163E+005  0.1043930E+01  0.7957747E-01            NaN
         13   -1    0    0    0    0  0.00000000000E+00  0.00000000000E+00  0.74505805969E-08  0.10566000000E+00  0.10566000000E+00 0.  1.
     999900   -1    0    0    0    0 -0.00000000000E+00 -0.00000000000E+00 -0.74505805969E-08  0.93827000000E+00  0.93827000000E+00 0. -1.
     999902    2    1    2    0    0 -0.23392447557E-02  0.69408662586E-02  0.21933101948E-01  0.10208062319E+01  0.10205442932E+01 0.  0.
     999903    2    3    3    0    0  0.10834445417E+00 -0.22244525171E-01 -0.63657770365E-01  0.12927470373E+00  0.20646976717E-01 0.  0.
         14    1    1    2    0    0  0.23392447557E-02 -0.69408662586E-02 -0.21933101948E-01  0.23123768108E-01  0.00000000000E+00 0. -1.
     999901    1    3    3    0    0 -0.11068369893E+00  0.29185391430E-01  0.85590872314E-01  0.89153152816E+00  0.88000000000E+00 0.  1.
        -11    1    4    4    0    0  0.68227735104E-01 -0.21393073621E-01 -0.32881790010E-01  0.78702990233E-01  0.51100000000E-03 0.  1.
         11    1    4    4    0    0  0.40116719066E-01 -0.85145155031E-03 -0.30775980355E-01  0.50571713498E-01  0.51100000000E-03 0. -1.
</event>
<event>
 8    1  0.1030163E+005  0.1043930E+01  0.7957747E-01            NaN
         13   -1    0    0    0    0  0.00000000000E+00  0.00000000000E+00  0.74505805969E-08  0.10566000000E+00  0.10566000000E+00 0.  1.
     999900   -1    0    0    0    0 -0.00000000000E+00 -0.00000000000E+00 -0.74505805969E-08  0.93827000000E+00  0.93827000000E+00 0. -1.
     999902    2    1    2    0    0 -0.20212435182E-02 -0.15108119372E-01  0.20231159929E-01  0.10185993757E+01  0.10182843648E+01 0.  0.
     999903    2    3    3    0    0 -0.74652807886E-01 -0.44427653877E-01  0.97044165928E-01  0.13178754833E+00  0.20088046167E-01 0.  0.
         14    1    1    2    0    0  0.20212435182E-02  0.15108119372E-01 -0.20231159929E-01  0.25330624319E-01  0.00000000000E+00 0. -1.
     999901    1    3    3    0    0  0.72631564367E-01  0.29319534505E-01 -0.76813005999E-01  0.88681182735E+00  0.88000000000E+00 0. -1.
        -11    1    4    4    0    0 -0.50403512398E-01 -0.37502630955E-01  0.59313868995E-01  0.86402300703E-01  0.51100000000E-03 0.  1.
         11    1    4    4    0    0 -0.24249295488E-01 -0.69250229218E-02  0.37730296933E-01  0.45385247623E-01  0.51100000000E-03 0. -1.
</event>
<event>
 8    1  0.1030163E+005  0.1043930E+01  0.7957747E-01            NaN
         13   -1    0    0    0    0  0.00000000000E+00  0.00000000000E+00  0.74505805969E-08  0.10566000000E+00  0.10566000000E+00 0. -1.
     999900   -1    0    0    0    0 -0.00000000000E+00 -0.00000000000E+00 -0.74505805969E-08  0.93827000000E+00  0.93827000000E+00 0. -1.
     999902    2    1    2    0    0 -0.10215375677E-01 -0.20907545812E-01  0.79657493493E-02  0.10193346237E+01  0.10190378514E+01 0.  0.
     999903    2    3    3    0    0 -0.43596766190E-01 -0.69283403467E-01 -0.10015076118E+00  0.13077189622E+00  0.19241773783E-01 0.  0.
         14    1    1    2    0    0  0.10215375677E-01  0.20907545812E-01 -0.79657493493E-02  0.24595376289E-01  0.00000000000E+00 0. -1.
     999901    1    3    3    0    0  0.33381390513E-01  0.48375857655E-01  0.10811651053E+00  0.88856272749E+00  0.88000000000E+00 0.  1.
        -11    1    4    4    0    0 -0.11970000730E-01 -0.13300478273E-01 -0.34555357119E-01  0.38916801853E-01  0.51100000000E-03 0. -1.
         11    1    4    4    0    0 -0.31626765459E-01 -0.55982925194E-01 -0.65595404059E-01  0.91855094368E-01  0.51100000000E-03 0.  1.
</event>
<event>
 8    1  0.1030163E+005  0.1043930E+01  0.7957747E-01            NaN
         13   -1    0    0    0    0  0.00000000000E+00  0.00000000000E+00  0.74505805969E-08  0.10566000000E+00  0.10566000000E+00 0. -1.
     999900   -1    0    0    0    0 -0.00000000000E+00 -0.00000000000E+00 -0.74505805969E-08  0.93827000000E+00  0.93827000000E+00 0.  1.
     999902    2    1    2    0    0 -0.11870588079E-01  0.13249304320E-03  0.20655930276E-01  0.10201057294E+01  0.10198274870E+01 0.  0.
     999903    2    3    3    0    0  0.84631072658E-01 -0.94578004677E-01 -0.12889872697E-01  0.12914671246E+00  0.20132240156E-01 0.  0.
         14    1    1    2    0    0  0.11870588079E-01 -0.13249304320E-03 -0.20655930276E-01  0.23824270635E-01  0.00000000000E+00 0.  1.
     999901    1    3    3    0    0 -0.96501660737E-01  0.94710497720E-01  0.33545802973E-01  0.89095901690E+00  0.88000000000E+00 0. -1.
        -11    1    4    4    0    0  0.25809055680E-01 -0.43291763181E-01 -0.31990552698E-02  0.50505239233E-01  0.51100000000E-03 0. -1.
         11    1    4    4    0    0  0.58822016978E-01 -0.51286241496E-01 -0.96908174277E-02  0.78641473229E-01  0.51100000000E-03 0.  1.
</event>
<event>
 8    1  0.1030163E+005  0.1043930E+01  0.7957747E-01            NaN
         13   -1    0    0    0    0  0.00000000000E+00  0.00000000000E+00  0.74505805969E-08  0.10566000000E+00  0.10566000000E+00 0.  1.
     999900   -1    0    0    0    0 -0.00000000000E+00 -0.00000000000E+00 -0.74505805969E-08  0.93827000000E+00  0.93827000000E+00 0. -1.
     999902    2    1    2    0    0 -0.21214960229E-01  0.14918929651E-01  0.97837089036E-02  0.10162105130E+01  0.10158323862E+01 0.  0.
     999903    2    3    3    0    0 -0.78233708509E-01  0.16094128591E-01 -0.97693366004E-01  0.12783905895E+00  0.20476745577E-01 0.  0.
         14    1    1    2    0    0  0.21214960229E-01 -0.14918929651E-01 -0.97837089036E-02  0.27719486997E-01  0.00000000000E+00 0. -1.
     999901    1    3    3    0    0  0.57018748280E-01 -0.11751989394E-02  0.10747707491E+00  0.88837145405E+00  0.88000000000E+00 0.  1.
        -11    1    4    4    0    0 -0.13514988005E-01 -0.15691553454E-02 -0.27819073897E-01  0.30972231801E-01  0.51100000000E-03 0. -1.
         11    1    4    4    0    0 -0.64718720504E-01  0.17663283936E-01 -0.69874292108E-01  0.96866827148E-01  0.51100000000E-03 0.  1.
</event>
<event>
 8    1  0.1030163E+005  0.1043930E+01  0.7957747E-01            NaN
         13   -1    0    0    0    0  0.00000000000E+00  0.00000000000E+00  0.74505805969E-08  0.10566000000E+00  0.10566000000E+00 0. -1.
     999900   -1    0    0    0    0 -0.00000000000E+00 -0.00000000000E+00 -0.74505805969E-08  0.93827000000E+00  0.93827000000E+00 0.  1.
     999902    2    1    2    0    0  0.11404808959E-01  0.14656029438E-01 -0.14052196612E-01  0.10206419538E+01  0.10203762369E+01 0.  0.
     999903    2    3    3    0    0  0.24928015230E-01 -0.12483145968E+00 -0.12671826190E-01  0.12955186736E+00  0.20464894047E-01 0.  0.
         14    1    1    2    0    0 -0.11404808959E-01 -0.14656029438E-01  0.14052196612E-01  0.23288046202E-01  0.00000000000E+00 0. -1.
     999901    1    3    3    0    0 -0.13523206271E-01  0.13948748912E+00 -0.13803704225E-02  0.89109008644E+00  0.88000000000E+00 0.  1.
        -11    1    4    4    0    0  0.73876855719E-02 -0.32560275930E-01  0.56225947526E-02  0.33861839281E-01  0.51100000000E-03 0.  1.
         11    1    4    4    0    0  0.17540329658E-01 -0.92271183748E-01 -0.18294420942E-01  0.95690028078E-01  0.51100000000E-03 0. -1.
</event>
<event>
 8    1  0.1030163E+005  0.1043930E+01  0.7957747E-01            NaN
         13   -1    0    0    0    0  0.00000000000E+00  0.00000000000E+00  0.74505805969E-08  0.10566000000E+00  0.10566000000E+00 0.  1.
     999900   -1    0    0    0    0 -0.00000000000E+00 -0.00000000000E+00 -0.74505805969E-08  0.93827000000E+00  0.93827000000E+00 0. -1.
     999902    2    1    2    0    0 -0.12303877137E-01 -0.55485499325E-03 -0.20231135362E-01  0.10202447283E+01  0.10199697611E+01 0.  0.
     999903    2    3    3    0    0 -0.71043636842E-01 -0.90571699865E-01  0.58183433422E-01  0.13024347195E+00  0.18100246117E-01 0.  0.
         14    1    1    2    0    0  0.12303877137E-01  0.55485499325E-03  0.20231135362E-01  0.23685271683E-01  0.00000000000E+00 0.  1.
     999901    1    3    3    0    0  0.58739759705E-01  0.90016844872E-01 -0.78414568784E-01  0.89000125636E+00  0.88000000000E+00 0. -1.
        -11    1    4    4    0    0 -0.28957386165E-01 -0.33857724996E-01  0.13044572552E-01  0.46425184432E-01  0.51100000000E-03 0.  1.
         11    1    4    4    0    0 -0.42086250677E-01 -0.56713974869E-01  0.45138860870E-01  0.83818287522E-01  0.51100000000E-03 0. -1.
</event>
<event>
 8    1  0.1030163E+005  0.1043930E+01  0.7957747E-01            NaN
         13   -1    0    0    0    0  0.00000000000E+00  0.00000000000E+00  0.74505805969E-08  0.10566000000E+00  0.10566000000E+00 0.  1.
     999900   -1    0    0    0    0 -0.00000000000E+00 -0.00000000000E+00 -0.74505805969E-08  0.93827000000E+00  0.93827000000E+00 0.  1.
     999902    2    1    2    0    0 -0.16346611392E-01 -0.89176362625E-02 -0.14088255760E-01  0.10205801629E+01  0.10203130177E+01 0.  0.
     999903    2    3    3    0    0 -0.17508207669E-01 -0.96388520212E-01 -0.88081102743E-01  0.13315273140E+00  0.19341278487E-01 0.  0.
         14    1    1    2    0    0  0.16346611392E-01  0.89176362625E-02  0.14088255760E-01  0.23349837063E-01  0.00000000000E+00 0.  1.
     999901    1    3    3    0    0  0.11615962770E-02  0.87470883950E-01  0.73992846983E-01  0.88742743154E+00  0.88000000000E+00 0. -1.
        -11    1    4    4    0    0 -0.84094347991E-02 -0.10576298669E-01 -0.13251755701E-01  0.18932692290E-01  0.51100000000E-03 0.  1.
         11    1    4    4    0    0 -0.90987728701E-02 -0.85812221543E-01 -0.74829347043E-01  0.11422003911E+00  0.51100000000E-03 0. -1.
</event>
<event>
 8    1  0.1030163E+005  0.1043930E+01  0.7957747E-01            NaN
         13   -1    0    0    0    0  0.00000000000E+00  0.00000000000E+00  0.74505805969E-08  0.10566000000E+00  0.10566000000E+00 0.  1.
     999900   -1    0    0    0    0 -0.00000000000E+00 -0.00000000000E+00 -0.74505805969E-08  0.93827000000E+00  0.93827000000E+00 0. -1.
     999902    2    1    2    0    0  0.80550554136E-02  0.45614658493E-02 -0.21174415814E-01  0.10208205480E+01  0.10205589372E+01 0.  0.
     999903    2    3    3    0    0  0.38683590240E-01 -0.10004754726E+00  0.69486855031E-01  0.12947290602E+00  0.20709382047E-01 0.  0.
         14    1    1    2    0    0 -0.80550554136E-02 -0.45614658493E-02  0.21174415814E-01  0.23109452038E-01  0.00000000000E+00 0.  1.
     999901    1    3    3    0    0 -0.30628534827E-01  0.10460901311E+00 -0.90661270845E-01  0.89134764194E+00  0.88000000000E+00 0. -1.
        -11    1    4    4    0    0  0.24775838389E-01 -0.36031096978E-01  0.28388304863E-01  0.52136734567E-01  0.51100000000E-03 0. -1.
         11    1    4    4    0    0  0.13907751852E-01 -0.64016450279E-01  0.41098550168E-01  0.77336171451E-01  0.51100000000E-03 0.  1.
</event>
<event>
 8    1  0.1030163E+005  0.1043930E+01  0.7957747E-01            NaN
         13   -1    0    0    0    0  0.00000000000E+00  0.00000000000E+00  0.74505805969E-08  0.10566000000E+00  0.10566000000E+00 0.  1.
     999900   -1    0    0    0    0 -0.00000000000E+00 -0.00000000000E+00 -0.74505805969E-08  0.93827000000E+00  0.93827000000E+00 0. -1.
     999902    2    1    2    0    0 -0.20488452147E-01 -0.63372709916E-02  0.66681761063E-02  0.10214710987E+01  0.10212241689E+01 0.  0.
     999903    2    3    3    0    0 -0.85894495775E-01 -0.60762590326E-01 -0.79395711748E-01  0.13318789008E+00  0.19114869395E-01 0.  0.
         14    1    1    2    0    0  0.20488452147E-01  0.63372709916E-02 -0.66681761063E-02  0.22458901300E-01  0.00000000000E+00 0. -1.
     999901    1    3    3    0    0  0.65406043627E-01  0.54425319334E-01  0.86063887854E-01  0.88828320862E+00  0.88000000000E+00 0.  1.
        -11    1    4    4    0    0 -0.37334153355E-01 -0.18015027327E-01 -0.23284287610E-01  0.47547864167E-01  0.51100000000E-03 0.  1.
         11    1    4    4    0    0 -0.48560342419E-01 -0.42747562999E-01 -0.56111424138E-01  0.85640025911E-01  0.51100000000E-03 0. -1.
</event>
<event>
 8    1  0.1030163E+005  0.1043930E+01  0.7957747E-01            NaN
         13   -1    0    0    0    0  0.00000000000E+00  0.00000000000E+00  0.74505805969E-08  0.10566000000E+00  0.10566000000E+00 0.  1.
     999900   -1    0    0    0    0 -0.00000000000E+00 -0.00000000000E+00 -0.74505805969E-08  0.93827000000E+00  0.93827000000E+00 0. -1.
     999902    2    1    2    0    0  0.10265586539E-01 -0.98983435919E-02 -0.19701067000E-01  0.10196094015E+01  0.10193193023E+01 0.  0.
     999903    2    3    3    0    0 -0.52334100137E-01 -0.89907810839E-02 -0.11901818125E+00  0.13181244627E+00  0.19735788396E-01 0.  0.
         14    1    1    2    0    0 -0.10265586539E-01  0.98983435919E-02  0.19701067000E-01  0.24320598549E-01  0.00000000000E+00 0.  1.
     999901    1    3    3    0    0  0.62599686675E-01 -0.90756250797E-03  0.99317114246E-01  0.88779695518E+00  0.88000000000E+00 0.  1.
        -11    1    4    4    0    0 -0.24054461152E-01  0.39889744342E-02 -0.65648161824E-01  0.70031930505E-01  0.51100000000E-03 0. -1.
         11    1    4    4    0    0 -0.28279638985E-01 -0.12979755518E-01 -0.53370019422E-01  0.61780515768E-01  0.51100000000E-03 0.  1.
</event>
<event>
 8    1  0.1030163E+005  0.1043930E+01  0.7957747E-01            NaN
         13   -1    0    0    0    0  0.00000000000E+00  0.00000000000E+00  0.74505805969E-08  0.10566000000E+00  0.10566000000E+00 0. -1.
     999900   -1    0    0    0    0 -0.00000000000E+00 -0.00000000000E+00 -0.74505805969E-08  0.93827000000E+00  0.93827000000E+00 0.  1.
     999902    2    1    2    0    0  0.70605013014E-02 -0.24087702346E-02 -0.21040626849E-01  0.10216060033E+01  0.10213620636E+01 0.  0.
     999903    2    3    3    0    0  0.28752864391E-01  0.12686789294E+00  0.16279651033E-02  0.13160775644E+00  0.19893763238E-01 0.  0.
         14    1    1    2    0    0 -0.70605013014E-02  0.24087702346E-02  0.21040626849E-01  0.22323996749E-01  0.00000000000E+00 0. -1.
     999901    1    3    3    0    0 -0.21692363090E-01 -0.12927666318E+00 -0.22668591952E-01  0.88999824681E+00  0.88000000000E+00 0.  1.
        -11    1    4    4    0    0  0.15311233339E-01  0.40919240705E-01  0.78422050598E-02  0.44391208898E-01  0.51100000000E-03 0. -1.
         11    1    4    4    0    0  0.13441631052E-01  0.85948652236E-01 -0.62142399565E-02  0.87216547546E-01  0.51100000000E-03 0.  1.
</event>
<event>
 8    1  0.1030163E+005  0.1043930E+01  0.7957747E-01            NaN
         13   -1    0    0    0    0  0.00000000000E+00  0.00000000000E+00  0.74505805969E-08  0.10566000000E+00  0.10566000000E+00 0.  1.
     999900   -1    0    0    0    0 -0.00000000000E+00 -0.00000000000E+00 -0.74505805969E-08  0.93827000000E+00  0.93827000000E+00 0.  1.
     999902    2    1    2    0    0  0.13666224760E-01  0.13232594585E-01  0.13960388401E-01  0.10203342440E+01  0.10200613755E+01 0.  0.
     999903    2    3    3    0    0 -0.12581138947E-01 -0.12317246382E+00  0.34307691049E-01  0.12920615172E+00  0.13692007796E-01 0.  0.
         14    1    1    2    0    0 -0.13666224760E-01 -0.13232594585E-01 -0.13960388401E-01  0.23595756037E-01  0.00000000000E+00 0. -1.
     999901    1    3    3    0    0  0.26247363707E-01  0.13640505840E+00 -0.20347302648E-01  0.89112809224E+00  0.88000000000E+00 0. -1.
        -11    1    4    4    0    0 -0.60417075787E-02 -0.72735608808E-01  0.13364132821E-01  0.74201295044E-01  0.51100000000E-03 0. -1.
         11    1    4    4    0    0 -0.65394313679E-02 -0.50436855008E-01  0.20943558227E-01  0.55004856676E-01  0.51100000000E-03 0.  1.
</event>
<event>
 8    1  0.1030163E+005  0.1043930E+01  0.7957747E-01            NaN
         13   -1    0    0    0    0  0.00000000000E+00  0.00000000000E+00  0.74505805969E-08  0.10566000000E+00  0.10566000000E+00 0. -1.
     999900   -1    0    0    0    0 -0.00000000000E+00 -0.00000000000E+00 -0.74505805969E-08  0.93827000000E+00  0.93827000000E+00 0.  1.
     999902    2    1    2    0    0 -0.88740089626E-02  0.20733687187E-01 -0.15570499590E-01  0.10165242656E+01  0.10161547659E+01 0.  0.
     999903    2    3    3    0    0 -0.56658581280E-01 -0.88143613254E-01  0.65125928962E-01  0.12486875732E+00  0.19269886894E-01 0.  0.
         14    1    1    2    0    0  0.88740089626E-02 -0.20733687187E-01  0.15570499590E-01  0.27405734380E-01  0.00000000000E+00 0. -1.
     999901    1    3    3    0    0  0.47784572318E-01  0.10887730044E+00 -0.80696428552E-01  0.89165550830E+00  0.88000000000E+00 0.  1.
        -11    1    4    4    0    0 -0.31973874607E-01 -0.49859675858E-01  0.25492101159E-01  0.64485845552E-01  0.51100000000E-03 0.  1.
         11    1    4    4    0    0 -0.24684706674E-01 -0.38283937396E-01  0.39633827803E-01  0.60382911767E-01  0.51100000000E-03 0. -1.
</event>
<event>
 8    1  0.1030163E+005  0.1043930E+01  0.7957747E-01            NaN
         13   -1    0    0    0    0  0.00000000000E+00  0.00000000000E+00  0.74505805969E-08  0.10566000000E+00  0.10566000000E+00 0. -1.
     999900   -1    0    0    0    0 -0.00000000000E+00 -0.00000000000E+00 -0.74505805969E-08  0.93827000000E+00  0.93827000000E+00 0. -1.
     999902    2    1    2    0    0 -0.78835972887E-02 -0.13413261596E-01 -0.17100989631E-01  0.10208105160E+01  0.10205486755E+01 0.  0.
     999903    2    3    3    0    0  0.88114786488E-01  0.85544389797E-01 -0.37042233228E-01  0.12985262720E+00  0.20187112871E-01 0.  0.
         14    1    1    2    0    0  0.78835972887E-02  0.13413261596E-01  0.17100989631E-01  0.23119483974E-01  0.00000000000E+00 0. -1.
     999901    1    3    3    0    0 -0.95998383776E-01 -0.98957651393E-01  0.19941243598E-01  0.89095788882E+00  0.88000000000E+00 0.  1.
        -11    1    4    4    0    0  0.66049650369E-01  0.53359126049E-01 -0.19813034916E-01  0.87192718275E-01  0.51100000000E-03 0.  1.
         11    1    4    4    0    0  0.22065136119E-01  0.32185263748E-01 -0.17229198313E-01  0.42659908930E-01  0.51100000000E-03 0. -1.
</event>
<event>
 8    1  0.1030163E+005  0.1043930E+01  0.7957747E-01            NaN
         13   -1    0    0    0    0  0.00000000000E+00  0.00000000000E+00  0.74505805969E-08  0.10566000000E+00  0.10566000000E+00 0. -1.
     999900   -1    0    0    0    0 -0.00000000000E+00 -0.00000000000E+00 -0.74505805969E-08  0.93827000000E+00  0.93827000000E+00 0.  1.
     999902    2    1    2    0    0  0.17143281496E-01 -0.15885571880E-01  0.62947541761E-02  0.10197253016E+01  0.10194379938E+01 0.  0.
     999903    2    3    3    0    0 -0.12550986246E+00 -0.32809675786E-02 -0.13834792738E-01  0.12792151478E+00  0.20224295539E-01 0.  0.
         14    1    1    2    0    0 -0.17143281496E-01  0.15885571880E-01 -0.62947541761E-02  0.24204698398E-01  0.00000000000E+00 0.  1.
     999901    1    3    3    0    0  0.14265314396E+00 -0.12604604302E-01  0.20129546914E-01  0.89180378682E+00  0.88000000000E+00 0.  1.
        -11    1    4    4    0    0 -0.57931029710E-01 -0.43391019215E-02  0.33169376126E-02  0.58190164159E-01  0.51100000000E-03 0.  1.
         11    1    4    4    0    0 -0.67578832752E-01  0.10581343429E-02 -0.17151730350E-01  0.69731350620E-01  0.51100000000E-03 0. -1.
</event>
<event>
 8    1  0.1030163E+005  0.1043930E+01  0.7957747E-01            NaN
         13   -1    0    0    0    0  0.00000000000E+00  0.00000000000E+00  0.74505805969E-08  0.10566000000E+00  0.10566000000E+00 0. -1.
     999900   -1    0    0    0    0 -0.00000000000E+00 -0.00000000000E+00 -0.74505805969E-08  0.93827000000E+00  0.93827000000E+00 0.  1.
     999902    2    1    2    0    0  0.81393117374E-02  0.10948894297E-01 -0.18023192741E-01  0.10213255279E+01  0.10210753507E+01 0.  0.
     999903    2    3    3    0    0 -0.42614773700E-02 -0.10182275380E+00  0.76977866713E-01  0.12897109974E+00  0.17942107512E-01 0.  0.
         14    1    1    2    0    0 -0.81393117374E-02 -0.10948894297E-01  0.18023192741E-01  0.22604472090E-01  0.00000000000E+00 0. -1.
     999901    1    3    3    0    0  0.12400789107E-01  0.11277164810E+00 -0.95001059454E-01  0.89235442817E+00  0.88000000000E+00 0. -1.
        -11    1    4    4    0    0 -0.50916453898E-02 -0.21229723577E-01  0.24368785862E-01  0.32721932420E-01  0.51100000000E-03 0.  1.
         11    1    4    4    0    0  0.83016801979E-03 -0.80593030226E-01  0.52609080851E-01  0.96249167315E-01  0.51100000000E-03 0. -1.
</event>
<event>
 8    1  0.1030163E+005  0.1043930E+01  0.7957747E-01            NaN
         13   -1    0    0    0    0  0.00000000000E+00  0.00000000000E+00  0.74505805969E-08  0.10566000000E+00  0.10566000000E+00 0. -1.
     999900   -1    0    0    0    0 -0.00000000000E+00 -0.00000000000E+00 -0.74505805969E-08  0.93827000000E+00  0.93827000000E+00 0.  1.
     999902    2    1    2    0    0  0.22292670848E-01  0.99904715244E-02 -0.10246399331E-02  0.10194795893E+01  0.10191863473E+01 0.  0.
     999903    2    3    3    0    0  0.12536736801E+00  0.34977147057E-01 -0.18573065652E-01  0.13293761379E+00  0.19674161102E-01 0.  0.
         14    1    1    2    0    0 -0.22292670848E-01 -0.99904715244E-02  0.10246399331E-02  0.24450410668E-01  0.00000000000E+00 0. -1.
     999901    1    3    3    0    0 -0.10307469716E+00 -0.24986675532E-01  0.17548425719E-01  0.88654197554E+00  0.88000000000E+00 0. -1.
        -11    1    4    4    0    0  0.73560278991E-01  0.27929280795E-01 -0.17659203687E-01  0.80642842006E-01  0.51100000000E-03 0. -1.
         11    1    4    4    0    0  0.51807089019E-01  0.70478662620E-02 -0.91386196467E-03  0.52294771786E-01  0.51100000000E-03 0.  1.
</event>
<event>
 8    1  0.1030163E+005  0.1043930E+01  0.7957747E-01            NaN
         13   -1    0    0    0    0  0.00000000000E+00  0.00000000000E+00  0.74505805969E-08  0.10566000000E+00  0.10566000000E+00 0.  1.
     999900   -1    0    0    0    0 -0.00000000000E+00 -0.00000000000E+00 -0.74505805969E-08  0.93827000000E+00  0.93827000000E+00 0.  1.
     999902    2    1    2    0    0 -0.15330019421E-01 -0.75431910592E-02 -0.17636963989E-01  0.10193745174E+01  0.10190787187E+01 0.  0.
     999903    2    3    3    0    0  0.11958847262E+00  0.40194598494E-01 -0.52105358000E-02  0.12772642978E+00  0.19232333424E-01 0.  0.
         14    1    1    2    0    0  0.15330019421E-01  0.75431910592E-02  0.17636963989E-01  0.24555482597E-01  0.00000000000E+00 0.  1.
     999901    1    3    3    0    0 -0.13491849204E+00 -0.47737789553E-01 -0.12426428189E-01  0.89164808762E+00  0.88000000000E+00 0.  1.
        -11    1    4    4    0    0  0.11123029664E+00  0.36844153968E-01 -0.98423428098E-02  0.11758742877E+00  0.51100000000E-03 0. -1.
         11    1    4    4    0    0  0.83581759821E-02  0.33504445263E-02  0.46318070098E-02  0.10139001008E-01  0.51100000000E-03 0.  1.
</event>
<event>
 8    1  0.1030163E+005  0.1043930E+01  0.7957747E-01            NaN
         13   -1    0    0    0    0  0.00000000000E+00  0.00000000000E+00  0.74505805969E-08  0.10566000000E+00  0.10566000000E+00 0. -1.
     999900   -1    0    0    0    0 -0.00000000000E+00 -0.00000000000E+00 -0.74505805969E-08  0.93827000000E+00  0.93827000000E+00 0.  1.
     999902    2    1    2    0    0 -0.51411970812E-02 -0.20214029546E-01  0.10936614467E-01  0.10203790248E+01  0.10201072031E+01 0.  0.
     999903    2    3    3    0    0 -0.16825051880E-01 -0.11502506681E+00  0.64639331081E-01  0.13358162569E+00  0.12327174625E-01 0.  0.
         14    1    1    2    0    0  0.51411970812E-02  0.20214029546E-01 -0.10936614467E-01  0.23550975222E-01  0.00000000000E+00 0.  1.
     999901    1    3    3    0    0  0.11683854799E-01  0.94811037267E-01 -0.53702716614E-01  0.88679739908E+00  0.88000000000E+00 0.  1.
        -11    1    4    4    0    0  0.90567031563E-03 -0.95898619543E-02  0.83194146442E-02  0.12738111008E-01  0.51100000000E-03 0. -1.
         11    1    4    4    0    0 -0.17730722196E-01 -0.10543520486E+00  0.56319916437E-01  0.12084351469E+00  0.51100000000E-03 0.  1.
</event>
<event>
 8    1  0.1030163E+005  0.1043930E+01  0.7957747E-01            NaN
         13   -1    0    0    0    0  0.00000000000E+00  0.00000000000E+00  0.74505805969E-08  0.10566000000E+00  0.10566000000E+00 0.  1.
     999900   -1    0    0    0    0 -0.00000000000E+00 -0.00000000000E+00 -0.74505805969E-08  0.93827000000E+00  0.93827000000E+00 0. -1.
     999902    2    1    2    0    0 -0.41386053568E-02 -0.48346456820E-03  0.23574499183E-01  0.10199901002E+01  0.10197091181E+01 0.  0.
     999903    2    3    3    0    0  0.56173247669E-01  0.12311245105E-01  0.11800040721E+00  0.13279368656E+00  0.20076518081E-01 0.  0.
         14    1    1    2    0    0  0.41386053568E-02  0.48346456820E-03 -0.23574499183E-01  0.23939899833E-01  0.00000000000E+00 0. -1.
     999901    1    3    3    0    0 -0.60311853026E-01 -0.12794709673E-01 -0.94425908028E-01  0.88719641361E+00  0.88000000000E+00 0. -1.
        -11    1    4    4    0    0  0.46128801927E-01  0.35463570227E-02  0.78725891498E-01  0.91315223969E-01  0.51100000000E-03 0.  1.
         11    1    4    4    0    0  0.10044445742E-01  0.87648880819E-02  0.39274515713E-01  0.41478462590E-01  0.51100000000E-03 0. -1.
</event>
<event>
 8    1  0.1030163E+005  0.1043930E+01  0.7957747E-01            NaN
         13   -1    0    0    0    0  0.00000000000E+00  0.00000000000E+00  0.74505805969E-08  0.10566000000E+00  0.10566000000E+00 0.  1.
     999900   -1    0    0    0    0 -0.00000000000E+00 -0.00000000000E+00 -0.74505805969E-08  0.93827000000E+00  0.93827000000E+00 0. -1.
     999902    2    1    2    0    0  0.17974307928E-03 -0.18527850612E-01  0.14781435645E-01  0.10202275867E+01  0.10199522167E+01 0.  0.
     999903    2    3    3    0    0 -0.47781365679E-01  0.57515336832E-02 -0.11706084381E+00  0.12878373368E+00  0.23788019283E-01 0.  0.
         14    1    1    2    0    0 -0.17974307928E-03  0.18527850612E-01 -0.14781435645E-01  0.23702413286E-01  0.00000000000E+00 0. -1.
     999901    1    3    3    0    0  0.47961108759E-01 -0.24279384295E-01  0.13184227946E+00  0.89144385303E+00  0.88000000000E+00 0.  1.
        -11    1    4    4    0    0 -0.41119864767E-01  0.74483956707E-02 -0.72418448247E-01  0.83612287638E-01  0.51100000000E-03 0.  1.
         11    1    4    4    0    0 -0.66615009121E-02 -0.16968619874E-02 -0.44642395565E-01  0.45171446045E-01  0.51100000000E-03 0. -1.
</event>
<event>
 8    1  0.1030163E+005  0.1043930E+01  0.7957747E-01            NaN
         13   -1    0    0    0    0  0.00000000000E+00  0.00000000000E+00  0.74505805969E-08  0.10566000000E+00  0.10566000000E+00 0.  1.
     999900   -1    0    0    0    0 -0.00000000000E+00 -0.00000000000E+00 -0.74505805969E-08  0.93827000000E+00  0.93827000000E+00 0.  1.
     999902    2    1    2    0    0  0.28694942765E-02 -0.20162722396E-01 -0.12028005321E-01  0.10202774677E+01  0.10200032690E+01 0.  0.
     999903    2    3    3    0    0  0.11530879423E+00 -0.22727169911E-01  0.53449378606E-01  0.13070652598E+00  0.20364615896E-01 0.  0.
         14    1    1    2    0    0 -0.28694942765E-02  0.20162722396E-01  0.12028005321E-01  0.23652532292E-01  0.00000000000E+00 0. -1.
     999901    1    3    3    0    0 -0.11243929995E+00  0.25644475151E-02 -0.65477383927E-01  0.88957094173E+00  0.88000000000E+00 0.  1.
        -11    1    4    4    0    0  0.57967922436E-01 -0.17359613994E-01  0.18239865498E-01  0.63202769274E-01  0.51100000000E-03 0.  1.
         11    1    4    4    0    0  0.57340871795E-01 -0.53675559172E-02  0.35209513108E-01  0.67503756703E-01  0.51100000000E-03 0. -1.
</event>
<event>
 8    1  0.1030163E+005  0.1043930E+01  0.7957747E-01            NaN
         13   -1    0    0    0    0  0.00000000000E+00  0.00000000000E+00  0.74505805969E-08  0.10566000000E+00  0.10566000000E+00 0.  1.
     999900   -1    0    0    0    0 -0.00000000000E+00 -0.00000000000E+00 -0.74505805969E-08  0.93827000000E+00  0.93827000000E+00 0. -1.
     999902    2    1    2    0    0  0.16721154018E-01 -0.15699714553E-01 -0.76834925693E-02  0.10197408684E+01  0.10194539345E+01 0.  0.
     999903    2    3    3    0    0 -0.70894666632E-01 -0.99884307951E-01  0.38315668338E-01  0.13020194257E+00  0.21943716104E-01 0.  0.
         14    1    1    2    0    0 -0.16721154018E-01  0.15699714553E-01  0.76834925693E-02  0.24189131585E-01  0.00000000000E+00 0. -1.
     999901    1    3    3    0    0  0.87615820651E-01  0.84184593398E-01 -0.45999160908E-01  0.88953892585E+00  0.88000000000E+00 0. -1.
        -11    1    4    4    0    0 -0.36676896509E-01 -0.57423609153E-01  0.32076523980E-01  0.75311553811E-01  0.51100000000E-03 0.  1.
         11    1    4    4    0    0 -0.34217770123E-01 -0.42460698798E-01  0.62391443586E-02  0.54890388757E-01  0.51100000000E-03 0. -1.
</event>
<event>
 8    1  0.1030163E+005  0.1043930E+01  0.7957747E-01            NaN
         13   -1    0    0    0    0  0.00000000000E+00  0.00000000000E+00  0.74505805969E-08  0.10566000000E+00  0.10566000000E+00 0. -1.
     999900   -1    0    0    0    0 -0.00000000000E+00 -0.00000000000E+00 -0.74505805969E-08  0.93827000000E+00  0.93827000000E+00 0.  1.
     999902    2    1    2    0    0 -0.20393887525E-01 -0.32845519193E-03 -0.10579003402E-01  0.10209531890E+01  0.10206946068E+01 0.  0.
     999903    2    3    3    0    0  0.54243543170E-01 -0.68085809144E-01 -0.95945948538E-01  0.13109403137E+00  0.20049454804E-01 0.  0.
         14    1    1    2    0    0  0.20393887525E-01  0.32845519193E-03  0.10579003402E-01  0.22976811010E-01  0.00000000000E+00 0. -1.
     999901    1    3    3    0    0 -0.74637430696E-01  0.67757353952E-01  0.85366945136E-01  0.88985915762E+00  0.88000000000E+00 0. -1.
        -11    1    4    4    0    0  0.45873634411E-01 -0.45246620184E-01 -0.62792955261E-01  0.89971458383E-01  0.51100000000E-03 0. -1.
         11    1    4    4    0    0  0.83699087595E-02 -0.22839188960E-01 -0.33152993277E-01  0.41122572989E-01  0.51100000000E-03 0.  1.
</event>
<event>
 8    1  0.1030163E+005  0.1043930E+01  0.7957747E-01            NaN
         13   -1    0    0    0    0  0.00000000000E+00  0.00000000000E+00  0.74505805969E-08  0.10566000000E+00  0.10566000000E+00 0. -1.
     999900   -1    0    0    0    0 -0.00000000000E+00 -0.00000000000E+00 -0.74505805969E-08  0.93827000000E+00  0.93827000000E+00 0. -1.
     999902    2    1    2    0    0 -0.22393750594E-01 -0.81131236282E-02  0.45806926780E-02  0.10196754007E+01  0.10193868928E+01 0.  0.
     999903    2    3    3    0    0 -0.82196086101E-01  0.67005372163E-02 -0.10022376150E+00  0.13131751254E+00  0.19959783590E-01 0.  0.
         14    1    1    2    0    0  0.22393750594E-01  0.81131236282E-02 -0.45806926780E-02  0.24254599277E-01  0.00000000000E+00 0. -1.
     999901    1    3    3    0    0  0.59802335506E-01 -0.14813660845E-01  0.10480445418E+00  0.88835788818E+00  0.88000000000E+00 0.  1.
        -11    1    4    4    0    0 -0.48924816482E-01  0.12993739173E-01 -0.65900271612E-01  0.83099830596E-01  0.51100000000E-03 0. -1.
         11    1    4    4    0    0 -0.33271269619E-01 -0.62932019567E-02 -0.34323489890E-01  0.48217681945E-01  0.51100000000E-03 0.  1.
</event>
<event>
 8    1  0.1030163E+005  0.1043930E+01  0.7957747E-01            NaN
         13   -1    0    0    0    0  0.00000000000E+00  0.00000000000E+00  0.74505805969E-08  0.10566000000E+00  0.10566000000E+00 0. -1.
     999900   -1    0    0    0    0 -0.00000000000E+00 -0.00000000000E+00 -0.74505805969E-08  0.93827000000E+00  0.93827000000E+00 0. -1.
     999902    2    1    2    0    0 -0.86883352398E-02 -0.11658060475E-01 -0.18734306644E-01  0.10202156206E+01  0.10199399692E+01 0.  0.
     999903    2    3    3    0    0  0.12372436345E+00  0.29109205666E-01  0.75337253816E-02  0.12898888053E+00  0.20647283517E-01 0.  0.
         14    1    1    2    0    0  0.86883352398E-02  0.11658060475E-01  0.18734306644E-01  0.23714379366E-01  0.00000000000E+00 0. -1.
     999901    1    3    3    0    0 -0.13241269869E+00 -0.40767266141E-01 -0.26268032025E-01  0.89122674010E+00  0.88000000000E+00 0.  1.
        -11    1    4    4    0    0  0.95754710454E-01  0.30113743557E-01  0.16940503175E-02  0.10039388952E+00  0.51100000000E-03 0.  1.
         11    1    4    4    0    0  0.27969653000E-01 -0.10045378913E-02  0.58396750641E-02  0.28594991016E-01  0.51100000000E-03 0. -1.
</event>
<event>
 8    1  0.1030163E+005  0.1043930E+01  0.7957747E-01            NaN
         13   -1    0    0    0    0  0.00000000000E+00  0.00000000000E+00  0.74505805969E-08  0.10566000000E+00  0.10566000000E+00 0.  1.
     999900   -1    0    0    0    0 -0.00000000000E+00 -0.00000000000E+00 -0.74505805969E-08  0.93827000000E+00  0.93827000000E+00 0. -1.
     999902    2    1    2    0    0 -0.29961825069E-03  0.23028775481E-01  0.37264415926E-02  0.10205997484E+01  0.10203330563E+01 0.  0.
     999903    2    3    3    0    0 -0.92628835047E-01  0.43729989581E-01 -0.80129114821E-01  0.13156376554E+00  0.19898147896E-01 0.  0.
         14    1    1    2    0    0  0.29961825069E-03 -0.23028775481E-01 -0.37264415926E-02  0.23330251567E-01  0.00000000000E+00 0. -1.
     999901    1    3    3    0    0  0.92329216797E-01 -0.20701214100E-01  0.83855556413E-01  0.88903598289E+00  0.88000000000E+00 0. -1.
        -11    1    4    4    0    0 -0.30227745523E-01  0.15199381559E-01 -0.38715018293E-01  0.51418397112E-01  0.51100000000E-03 0. -1.
         11    1    4    4    0    0 -0.62401089524E-01  0.28530608022E-01 -0.41414096528E-01  0.80145368426E-01  0.51100000000E-03 0.  1.
</event>
<event>
 8    1  0.1030163E+005  0.1043930E+01  0.7957747E-01            NaN
         13   -1    0    0    0    0  0.00000000000E+00  0.00000000000E+00  0.74505805969E-08  0.10566000000E+00  0.10566000000E+00 0.  1.
     999900   -1    0    0    0    0 -0.00000000000E+00 -0.00000000000E+00 -0.74505805969E-08  0.93827000000E+00  0.93827000000E+00 0. -1.
     999902    2    1    2    0    0 -0.15399814397E-01  0.12229934722E-01  0.12037561837E-01  0.10208729299E+01  0.10206125173E+01 0.  0.
     999903    2    3    3    0    0 -0.19867740845E-01  0.34712059162E-01  0.12565464738E+00  0.13327265364E+00  0.19309469733E-01 0.  0.
         14    1    1    2    0    0  0.15399814397E-01 -0.12229934722E-01 -0.12037561837E-01  0.23057070103E-01  0.00000000000E+00 0.  1.
     999901    1    3    3    0    0  0.44679264485E-02 -0.22482124439E-01 -0.11361708555E+00  0.88760027626E+00  0.88000000000E+00 0. -1.
        -11    1    4    4    0    0 -0.57123374601E-02  0.13542024799E-01  0.76601476374E-01  0.78000413708E-01  0.51100000000E-03 0.  1.
         11    1    4    4    0    0 -0.14155403385E-01  0.21170034363E-01  0.49053171008E-01  0.55272239930E-01  0.51100000000E-03 0. -1.
</event>
<event>
 8    1  0.1030163E+005  0.1043930E+01  0.7957747E-01            NaN
         13   -1    0    0    0    0  0.00000000000E+00  0.00000000000E+00  0.74505805969E-08  0.10566000000E+00  0.10566000000E+00 0. -1.
     999900   -1    0    0    0    0 -0.00000000000E+00 -0.00000000000E+00 -0.74505805969E-08  0.93827000000E+00  0.93827000000E+00 0.  1.
     999902    2    1    2    0    0 -0.16494249457E-01 -0.74749037456E-02  0.15433690132E-01  0.10201364454E+01  0.10198589284E+01 0.  0.
     999903    2    3    3    0    0  0.20060542729E-01 -0.12741010403E+00  0.16740545260E-01  0.13124814362E+00  0.17608786588E-01 0.  0.
         14    1    1    2    0    0  0.16494249457E-01  0.74749037456E-02 -0.15433690132E-01  0.23793554637E-01  0.00000000000E+00 0.  1.
     999901    1    3    3    0    0 -0.36554792186E-01  0.11993520029E+00 -0.13068551273E-02  0.88888830174E+00  0.88000000000E+00 0. -1.
        -11    1    4    4    0    0  0.11501409054E-01 -0.26722885976E-01  0.26279081299E-02  0.29215784556E-01  0.51100000000E-03 0. -1.
         11    1    4    4    0    0  0.85591336755E-02 -0.10068721806E+00  0.14112637130E-01  0.10203235907E+00  0.51100000000E-03 0.  1.
</event>
<event>
 8    1  0.1030163E+005  0.1043930E+01  0.7957747E-01            NaN
         13   -1    0    0    0    0  0.00000000000E+00  0.00000000000E+00  0.74505805969E-08  0.10566000000E+00  0.10566000000E+00 0.  1.
     999900   -1    0    0    0    0 -0.00000000000E+00 -0.00000000000E+00 -0.74505805969E-08  0.93827000000E+00  0.93827000000E+00 0.  1.
     999902    2    1    2    0    0 -0.11443980080E-01  0.15947687652E-01  0.11756340672E-01  0.10210497691E+01  0.10207933806E+01 0.  0.
     999903    2    3    3    0    0 -0.26056627077E-01 -0.10291941878E+00  0.73829626045E-01  0.13077115470E+00  0.19466038175E-01 0.  0.
         14    1    1    2    0    0  0.11443980080E-01 -0.15947687652E-01 -0.11756340672E-01  0.22880230933E-01  0.00000000000E+00 0. -1.
     999901    1    3    3    0    0  0.14612646997E-01  0.11886710644E+00 -0.62073285372E-01  0.89027861437E+00  0.88000000000E+00 0.  1.
        -11    1    4    4    0    0 -0.25467783760E-02 -0.33471374668E-01  0.31883160211E-01  0.46299201163E-01  0.51100000000E-03 0.  1.
         11    1    4    4    0    0 -0.23509848701E-01 -0.69448044115E-01  0.41946465833E-01  0.84471953536E-01  0.51100000000E-03 0. -1.
</event>
<event>
 8    1  0.1030163E+005  0.1043930E+01  0.7957747E-01            NaN
         13   -1    0    0    0    0  0.00000000000E+00  0.00000000000E+00  0.74505805969E-08  0.10566000000E+00  0.10566000000E+00 0. -1.
     999900   -1    0    0    0    0 -0.00000000000E+00 -0.00000000000E+00 -0.74505805969E-08  0.93827000000E+00  0.93827000000E+00 0. -1.
     999902    2    1    2    0    0  0.12912041443E-01  0.78209610194E-02  0.17739850952E-01  0.10206364267E+01  0.10203705822E+01 0.  0.
     999903    2    3    3    0    0  0.55327831926E-01  0.10879833601E+00 -0.44635200652E-01  0.13165601262E+00  0.21041806444E-01 0.  0.
         14    1    1    2    0    0 -0.12912041443E-01 -0.78209610194E-02 -0.17739850952E-01  0.23293573304E-01  0.00000000000E+00 0. -1.
     999901    1    3    3    0    0 -0.42415790483E-01 -0.10097737499E+00  0.62375051604E-01  0.88898041407E+00  0.88000000000E+00 0. -1.
        -11    1    4    4    0    0  0.25178749548E-01  0.28388547243E-01 -0.12303489619E-01  0.39893809309E-01  0.51100000000E-03 0.  1.
         11    1    4    4    0    0  0.30149082378E-01  0.80409788767E-01 -0.32331711033E-01  0.91762203314E-01  0.51100000000E-03 0. -1.
</event>
<event>
 8    1  0.1030163E+005  0.1043930E+01  0.7957747E-01            NaN
         13   -1    0    0    0    0  0.00000000000E+00  0.00000000000E+00  0.74505805969E-08  0.10566000000E+00  0.10566000000E+00 0.  1.
     999900   -1    0    0    0    0 -0.00000000000E+00 -0.00000000000E+00 -0.74505805969E-08  0.93827000000E+00  0.93827000000E+00 0. -1.
     999902    2    1    2    0    0 -0.35774354414E-02  0.93243487632E-02 -0.21892951111E-01  0.10198666912E+01  0.10195827700E+01 0.  0.
     999903    2    3    3    0    0 -0.12203777620E+00  0.36238601126E-01 -0.26004294103E-01  0.13151195770E+00  0.20315429489E-01 0.  0.
         14    1    1    2    0    0  0.35774354414E-02 -0.93243487632E-02  0.21892951111E-01  0.24063308844E-01  0.00000000000E+00 0.  1.
     999901    1    3    3    0    0  0.11846034076E+00 -0.26914252363E-01  0.41113429924E-02  0.88835473346E+00  0.88000000000E+00 0.  1.
        -11    1    4    4    0    0 -0.46576648184E-01  0.12469781844E-01  0.34067311824E-04  0.48219725185E-01  0.51100000000E-03 0. -1.
         11    1    4    4    0    0 -0.75461128013E-01  0.23768819283E-01 -0.26038361415E-01  0.83292232515E-01  0.51100000000E-03 0.  1.
</event>
<event>
 8    1  0.1030163E+005  0.1043930E+01  0.7957747E-01            NaN
         13   -1    0    0    0    0  0.00000000000E+00  0.00000000000E+00  0.74505805969E-08  0.10566000000E+00  0.10566000000E+00 0. -1.
     999900   -1    0    0    0    0 -0.00000000000E+00 -0.00000000000E+00 -0.74505805969E-08  0.93827000000E+00  0.93827000000E+00 0.  1.
     999902    2    1    2    0    0  0.41580193726E-02 -0.18151766858E-01 -0.17508405912E-01  0.10183698740E+01  0.10180490559E+01 0.  0.
     999903    2    3    3    0    0 -0.94226017470E-01 -0.66051584228E-01  0.53988643228E-01  0.12871508741E+00  0.20284131290E-01 0.  0.
         14    1    1    2    0    0 -0.41580193726E-02  0.18151766858E-01  0.17508405912E-01  0.25560126032E-01  0.00000000000E+00 0. -1.
     999901    1    3    3    0    0  0.98384036842E-01  0.47899817370E-01 -0.71497049140E-01  0.88965478656E+00  0.88000000000E+00 0.  1.
        -11    1    4    4    0    0 -0.57153401259E-01 -0.47322952002E-01  0.42940978489E-01  0.85733084724E-01  0.51100000000E-03 0. -1.
         11    1    4    4    0    0 -0.37072616210E-01 -0.18728632227E-01  0.11047664739E-01  0.42982002686E-01  0.51100000000E-03 0.  1.
</event>
<event>
 8    1  0.1030163E+005  0.1043930E+01  0.7957747E-01            NaN
         13   -1    0    0    0    0  0.00000000000E+00  0.00000000000E+00  0.74505805969E-08  0.10566000000E+00  0.10566000000E+00 0.  1.
     999900   -1    0    0    0    0 -0.00000000000E+00 -0.00000000000E+00 -0.74505805969E-08  0.93827000000E+00  0.93827000000E+00 0. -1.
     999902    2    1    2    0    0  0.80517513102E-02  0.24049723088E-01 -0.52609742142E-02  0.10180283064E+01  0.10176987447E+01 0.  0.
     999903    2    3    3    0    0 -0.22641125670E-01 -0.12144080448E+00 -0.10947985239E-01  0.12553635218E+00  0.19468635661E-01 0.  0.
         14    1    1    2    0    0 -0.80517513102E-02 -0.24049723088E-01  0.52609742142E-02  0.25901693564E-01  0.00000000000E+00 0.  1.
     999901    1    3    3    0    0  0.30692876980E-01  0.14549052757E+00  0.56870110244E-02  0.89249195425E+00  0.88000000000E+00 0.  1.
        -11    1    4    4    0    0 -0.21121989869E-01 -0.62998524588E-01 -0.27895255320E-02  0.66505602245E-01  0.51100000000E-03 0.  1.
         11    1    4    4    0    0 -0.15191358014E-02 -0.58442279893E-01 -0.81584597066E-02  0.59030749940E-01  0.51100000000E-03 0. -1.
</event>
<event>
 8    1  0.1030163E+005  0.1043930E+01  0.7957747E-01            NaN
         13   -1    0    0    0    0  0.00000000000E+00  0.00000000000E+00  0.74505805969E-08  0.10566000000E+00  0.10566000000E+00 0.  1.
     999900   -1    0    0    0    0 -0.00000000000E+00 -0.00000000000E+00 -0.74505805969E-08  0.93827000000E+00  0.93827000000E+00 0.  1.
     999902    2    1    2    0    0  0.11648607072E-01 -0.13023250003E-01 -0.22056836267E-01  0.10157910748E+01  0.10154012549E+01 0.  0.
     999903    2    3    3    0    0 -0.58409820763E-01  0.99518843469E-01  0.39851012901E-01  0.12371120844E+00  0.20016305783E-01 0.  0.
         14    1    1    2    0    0 -0.11648607072E-01  0.13023250003E-01  0.22056836267E-01  0.28138925236E-01  0.00000000000E+00 0.  1.
     999901    1    3    3    0    0  0.70058427835E-01 -0.11254209347E+00 -0.61907849168E-01  0.89207986632E+00  0.88000000000E+00 0.  1.
        -11    1    4    4    0    0 -0.33604749315E-01  0.39691867127E-01  0.22442873264E-01  0.56645098410E-01  0.51100000000E-03 0. -1.
         11    1    4    4    0    0 -0.24805071448E-01  0.59826976342E-01  0.17408139637E-01  0.67066110029E-01  0.51100000000E-03 0.  1.
</event>
<event>
 8    1  0.1030163E+005  0.1043930E+01  0.7957747E-01            NaN
         13   -1    0    0    0    0  0.00000000000E+00  0.00000000000E+00  0.74505805969E-08  0.10566000000E+00  0.10566000000E+00 0. -1.
     999900   -1    0    0    0    0 -0.00000000000E+00 -0.00000000000E+00 -0.74505805969E-08  0.93827000000E+00  0.93827000000E+00 0.  1.
     999902    2    1    2    0    0 -0.15048354753E-01 -0.41885133732E-02  0.18483267562E-01  0.10197302520E+01  0.10194430631E+01 0.  0.
     999903    2    3    3    0    0 -0.30536526870E-01  0.94246777442E-01  0.84409453324E-01  0.13165612673E+00  0.19835457215E-01 0.  0.
         14    1    1    2    0    0  0.15048354753E-01  0.41885133732E-02 -0.18483267562E-01  0.24199748032E-01  0.00000000000E+00 0. -1.
     999901    1    3    3    0    0  0.15488172117E-01 -0.98435290815E-01 -0.65926185762E-01  0.88807412524E+00  0.88000000000E+00 0.  1.
        -11    1    4    4    0    0 -0.15937108368E-01  0.33305777968E-01  0.20885361407E-01  0.42423174225E-01  0.51100000000E-03 0. -1.
         11    1    4    4    0    0 -0.14599418501E-01  0.60940999473E-01  0.63524091917E-01  0.89232952502E-01  0.51100000000E-03 0.  1.
</event>
<event>
 8    1  0.1030163E+005  0.1043930E+01  0.7957747E-01            NaN
         13   -1    0    0    0    0  0.00000000000E+00  0.00000000000E+00  0.74505805969E-08  0.10566000000E+00  0.10566000000E+00 0. -1.
     999900   -1    0    0    0    0 -0.00000000000E+00 -0.00000000000E+00 -0.74505805969E-08  0.93827000000E+00  0.93827000000E+00 0. -1.
     999902    2    1    2    0    0  0.82897663052E-02  0.13181356828E-01  0.17248258512E-01  0.10206927279E+01  0.10204281817E+01 0.  0.
     999903    2    3    3    0    0  0.11189377159E+00 -0.61919661076E-01 -0.18314389809E-01  0.13072719218E+00  0.19998033724E-01 0.  0.
         14    1    1    2    0    0 -0.82897663052E-02 -0.13181356828E-01 -0.17248258512E-01  0.23237272106E-01  0.00000000000E+00 0.  1.
     999901    1    3    3    0    0 -0.10360400529E+00  0.75101017904E-01  0.35562648321E-01  0.88996553571E+00  0.88000000000E+00 0.  1.
        -11    1    4    4    0    0  0.26364718512E-01 -0.17354158982E-01  0.37531738424E-02  0.31790134492E-01  0.51100000000E-03 0.  1.
         11    1    4    4    0    0  0.85529053079E-01 -0.44565502095E-01 -0.22067563651E-01  0.98937057688E-01  0.51100000000E-03 0. -1.
</event>
<event>
 8    1  0.1030163E+005  0.1043930E+01  0.7957747E-01            NaN
         13   -1    0    0    0    0  0.00000000000E+00  0.00000000000E+00  0.74505805969E-08  0.10566000000E+00  0.10566000000E+00 0. -1.
     999900   -1    0    0    0    0 -0.00000000000E+00 -0.00000000000E+00 -0.74505805969E-08  0.93827000000E+00  0.93827000000E+00 0.  1.
     999902    2    1    2    0    0 -0.18050690360E-01  0.16769248245E-01 -0.79129218753E-02  0.10180524143E+01  0.10177234736E+01 0.  0.
     999903    2    3    3    0    0  0.10146133520E+00  0.14386785418E-01 -0.73368550125E-01  0.12756196536E+00  0.19690828413E-01 0.  0.
         14    1    1    2    0    0  0.18050690360E-01 -0.16769248245E-01  0.79129218753E-02  0.25877585703E-01  0.00000000000E+00 0. -1.
     999901    1    3    3    0    0 -0.11951202556E+00  0.23824628270E-02  0.65455628250E-01  0.89049044894E+00  0.88000000000E+00 0. -1.
        -11    1    4    4    0    0  0.59459854993E-01  0.16084008510E-01 -0.50825300641E-01  0.79860140194E-01  0.51100000000E-03 0. -1.
         11    1    4    4    0    0  0.42001480206E-01 -0.16972230917E-02 -0.22543249484E-01  0.47701825164E-01  0.51100000000E-03 0.  1.
</event>
<event>
 8    1  0.1030163E+005  0.1043930E+01  0.7957747E-01            NaN
         13   -1    0    0    0    0  0.00000000000E+00  0.00000000000E+00  0.74505805969E-08  0.10566000000E+00  0.10566000000E+00 0.  1.
     999900   -1    0    0    0    0 -0.00000000000E+00 -0.00000000000E+00 -0.74505805969E-08  0.93827000000E+00  0.93827000000E+00 0.  1.
     999902    2    1    2    0    0 -0.13969481968E-01 -0.14174850467E-01  0.12320107790E-01  0.10205236362E+01  0.10202551809E+01 0.  0.
     999903    2    3    3    0    0  0.60151836057E-01  0.78831782316E-01 -0.78242854966E-01  0.12791742189E+00  0.20204682283E-01 0.  0.
         14    1    1    2    0    0  0.13969481968E-01  0.14174850467E-01 -0.12320107790E-01  0.23406363839E-01  0.00000000000E+00 0. -1.
     999901    1    3    3    0    0 -0.74121318025E-01 -0.93006632784E-01  0.90562962756E-01  0.89260621427E+00  0.88000000000E+00 0. -1.
        -11    1    4    4    0    0  0.24511269893E-01  0.38853500376E-01 -0.47847968475E-01  0.66333144441E-01  0.51100000000E-03 0. -1.
         11    1    4    4    0    0  0.35640566164E-01  0.39978281940E-01 -0.30394886490E-01  0.61584277451E-01  0.51100000000E-03 0.  1.
</event>
<event>
 8    1  0.1030163E+005  0.1043930E+01  0.7957747E-01            NaN
         13   -1    0    0    0    0  0.00000000000E+00  0.00000000000E+00  0.74505805969E-08  0.10566000000E+00  0.10566000000E+00 0.  1.
     999900   -1    0    0    0    0 -0.00000000000E+00 -0.00000000000E+00 -0.74505805969E-08  0.93827000000E+00  0.93827000000E+00 0.  1.
     999902    2    1    2    0    0 -0.10227601844E-01 -0.14855531465E-01 -0.14364403865E-01  0.10208729674E+01  0.10206125557E+01 0.  0.
     999903    2    3    3    0    0 -0.25290069421E-01  0.64639447324E-02  0.12534530985E+00  0.12946946610E+00  0.19223052768E-01 0.  0.
         14    1    1    2    0    0  0.10227601844E-01  0.14855531465E-01  0.14364403865E-01  0.23057032614E-01  0.00000000000E+00 0.  1.
     999901    1    3    3    0    0  0.15062467577E-01 -0.21319476197E-01 -0.13970971372E+00  0.89140350128E+00  0.88000000000E+00 0.  1.
        -11    1    4    4    0    0  0.19118975704E-02  0.47316565118E-02  0.17994741007E-01  0.18711380242E-01  0.51100000000E-03 0. -1.
         11    1    4    4    0    0 -0.27201966991E-01  0.17322882205E-02  0.10735056885E+00  0.11075808586E+00  0.51100000000E-03 0.  1.
</event>
<event>
 8    1  0.1030163E+005  0.1043930E+01  0.7957747E-01            NaN
         13   -1    0    0    0    0  0.00000000000E+00  0.00000000000E+00  0.74505805969E-08  0.10566000000E+00  0.10566000000E+00 0. -1.
     999900   -1    0    0    0    0 -0.00000000000E+00 -0.00000000000E+00 -0.74505805969E-08  0.93827000000E+00  0.93827000000E+00 0. -1.
     999902    2    1    2    0    0 -0.22965788344E-01 -0.72526958022E-02  0.43667593789E-02  0.10194535293E+01  0.10191596542E+01 0.  0.
     999903    2    3    3    0    0 -0.29319384323E-01 -0.40005829688E-01  0.11989571947E+00  0.13127557608E+00  0.19954964806E-01 0.  0.
         14    1    1    2    0    0  0.22965788344E-01  0.72526958022E-02 -0.43667593789E-02  0.24476470704E-01  0.00000000000E+00 0.  1.
     999901    1    3    3    0    0  0.63535959789E-02  0.32753133886E-01 -0.11552896010E+00  0.88817795322E+00  0.88000000000E+00 0. -1.
        -11    1    4    4    0    0 -0.70948489763E-02  0.34442563238E-03  0.21034603891E-01  0.22207458046E-01  0.51100000000E-03 0.  1.
         11    1    4    4    0    0 -0.22224535346E-01 -0.40350255320E-01  0.98861115584E-01  0.10906811803E+00  0.51100000000E-03 0. -1.
</event>
<event>
 8    1  0.1030163E+005  0.1043930E+01  0.7957747E-01            NaN
         13   -1    0    0    0    0  0.00000000000E+00  0.00000000000E+00  0.74505805969E-08  0.10566000000E+00  0.10566000000E+00 0. -1.
     999900   -1    0    0    0    0 -0.00000000000E+00 -0.00000000000E+00 -0.74505805969E-08  0.93827000000E+00  0.93827000000E+00 0. -1.
     999902    2    1    2    0    0  0.10288184594E-02 -0.24647665319E-01  0.27310789823E-02  0.10191101558E+01  0.10188078744E+01 0.  0.
     999903    2    3    3    0    0 -0.12143402902E+00  0.36915768085E-01 -0.36952712671E-02  0.12847639083E+00  0.19583938157E-01 0.  0.
         14    1    1    2    0    0 -0.10288184594E-02  0.24647665319E-01 -0.27310789823E-02  0.24819844188E-01  0.00000000000E+00 0. -1.
     999901    1    3    3    0    0  0.12246284748E+00 -0.61563433404E-01  0.64263502494E-02  0.89063376498E+00  0.88000000000E+00 0. -1.
        -11    1    4    4    0    0 -0.83045761735E-01  0.34544141894E-01 -0.17481639748E-02  0.89962289209E-01  0.51100000000E-03 0.  1.
         11    1    4    4    0    0 -0.38388267286E-01  0.23716261907E-02 -0.19471072923E-02  0.38514101623E-01  0.51100000000E-03 0. -1.
</event>
<event>
 8    1  0.1030163E+005  0.1043930E+01  0.7957747E-01            NaN
         13   -1    0    0    0    0  0.00000000000E+00  0.00000000000E+00  0.74505805969E-08  0.10566000000E+00  0.10566000000E+00 0. -1.
     999900   -1    0    0    0    0 -0.00000000000E+00 -0.00000000000E+00 -0.74505805969E-08  0.93827000000E+00  0.93827000000E+00 0. -1.
     999902    2    1    2    0    0  0.11634813022E-01 -0.17550468941E-01  0.83864854547E-02  0.10212645864E+01  0.10210130433E+01 0.  0.
     999903    2    3    3    0    0  0.61213478343E-01  0.93080888595E-01 -0.63948302814E-01  0.13001284706E+00  0.20070207184E-01 0.  0.
         14    1    1    2    0    0 -0.11634813022E-01  0.17550468941E-01 -0.83864854547E-02  0.22665413572E-01  0.00000000000E+00 0.  1.
     999901    1    3    3    0    0 -0.49578665322E-01 -0.11063135754E+00  0.72334788269E-01  0.89125173936E+00  0.88000000000E+00 0.  1.
        -11    1    4    4    0    0  0.88683156645E-03  0.11160000852E-01 -0.38471720635E-02  0.11848795007E-01  0.51100000000E-03 0.  1.
         11    1    4    4    0    0  0.60326646777E-01  0.81920887743E-01 -0.60101130750E-01  0.11816405206E+00  0.51100000000E-03 0. -1.
</event>
<event>
 8    1  0.1030163E+005  0.1043930E+01  0.7957747E-01            NaN
         13   -1    0    0    0    0  0.00000000000E+00  0.00000000000E+00  0.74505805969E-08  0.10566000000E+00  0.10566000000E+00 0.  1.
     999900   -1    0    0    0    0 -0.00000000000E+00 -0.00000000000E+00 -0.74505805969E-08  0.93827000000E+00  0.93827000000E+00 0.  1.
     999902    2    1    2    0    0 -0.25008103236E-01  0.39123978428E-02  0.24074817104E-02  0.10185034774E+01  0.10181860465E+01 0.  0.
     999903    2    3    3    0    0 -0.47029766304E-01  0.77675892434E-01 -0.91308545025E-01  0.13018557232E+00  0.19123013946E-01 0.  0.
         14    1    1    2    0    0  0.25008103236E-01 -0.39123978428E-02 -0.24074817104E-02  0.25426522620E-01  0.00000000000E+00 0. -1.
     999901    1    3    3    0    0  0.22021663068E-01 -0.73763494592E-01  0.93716026735E-01  0.88831790506E+00  0.88000000000E+00 0. -1.
        -11    1    4    4    0    0 -0.24448959865E-01  0.57590316252E-01 -0.61085485352E-01  0.87441945348E-01  0.51100000000E-03 0. -1.
         11    1    4    4    0    0 -0.22580806439E-01  0.20085576183E-01 -0.30223059673E-01  0.42743626975E-01  0.51100000000E-03 0.  1.
</event>
<event>
 8    1  0.1030163E+005  0.1043930E+01  0.7957747E-01            NaN
         13   -1    0    0    0    0  0.00000000000E+00  0.00000000000E+00  0.74505805969E-08  0.10566000000E+00  0.10566000000E+00 0.  1.
     999900   -1    0    0    0    0 -0.00000000000E+00 -0.00000000000E+00 -0.74505805969E-08  0.93827000000E+00  0.93827000000E+00 0.  1.
     999902    2    1    2    0    0 -0.13598564427E-01  0.12976901644E-01  0.81654818881E-02  0.10234361954E+01  0.10232309857E+01 0.  0.
     999903    2    3    3    0    0 -0.42702753451E-01 -0.12241564856E+00  0.18934105243E-01  0.13254105025E+00  0.19987833683E-01 0.  0.
         14    1    1    2    0    0  0.13598564427E-01 -0.12976901644E-01 -0.81654818881E-02  0.20493804557E-01  0.00000000000E+00 0. -1.
     999901    1    3    3    0    0  0.29104189024E-01  0.13539255021E+00 -0.10768623355E-01  0.89089514519E+00  0.88000000000E+00 0. -1.
        -11    1    4    4    0    0 -0.23723132686E-01 -0.68250005192E-01  0.20545857910E-01  0.75121525752E-01  0.51100000000E-03 0. -1.
         11    1    4    4    0    0 -0.18979620766E-01 -0.54165643373E-01 -0.16117526663E-02  0.57419524502E-01  0.51100000000E-03 0.  1.
</event>
<event>
 8    1  0.1030163E+005  0.1043930E+01  0.7957747E-01            NaN
         13   -1    0    0    0    0  0.00000000000E+00  0.00000000000E+00  0.74505805969E-08  0.10566000000E+00  0.10566000000E+00 0. -1.
     999900   -1    0    0    0    0 -0.00000000000E+00 -0.00000000000E+00 -0.74505805969E-08  0.93827000000E+00  0.93827000000E+00 0.  1.
     999902    2    1    2    0    0 -0.39251961305E-02  0.18677048117E-01 -0.11863385596E-01  0.10214582575E+01  0.10212110422E+01 0.  0.
     999903    2    3    3    0    0 -0.94476473327E-01  0.92518304200E-01 -0.32928071805E-02  0.13369391961E+00  0.19436587586E-01 0.  0.
         14    1    1    2    0    0  0.39251961305E-02 -0.18677048117E-01  0.11863385596E-01  0.22471742452E-01  0.00000000000E+00 0. -1.
     999901    1    3    3    0    0  0.90551277196E-01 -0.73841256083E-01 -0.85705784158E-02  0.88776433794E+00  0.88000000000E+00 0.  1.
        -11    1    4    4    0    0 -0.56234072529E-01  0.59238153187E-01  0.69350250467E-02  0.81974297188E-01  0.51100000000E-03 0.  1.
         11    1    4    4    0    0 -0.38242400798E-01  0.33280151013E-01 -0.10227832227E-01  0.51719622421E-01  0.51100000000E-03 0. -1.
</event>
<event>
 8    1  0.1030163E+005  0.1043930E+01  0.7957747E-01            NaN
         13   -1    0    0    0    0  0.00000000000E+00  0.00000000000E+00  0.74505805969E-08  0.10566000000E+00  0.10566000000E+00 0. -1.
     999900   -1    0    0    0    0 -0.00000000000E+00 -0.00000000000E+00 -0.74505805969E-08  0.93827000000E+00  0.93827000000E+00 0. -1.
     999902    2    1    2    0    0 -0.74146291573E-02 -0.10187852874E-01  0.19904344871E-01  0.10203725804E+01  0.10201006082E+01 0.  0.
     999903    2    3    3    0    0  0.98992205659E-01 -0.52375161676E-01  0.66415718272E-01  0.13174133443E+00  0.20052860715E-01 0.  0.
         14    1    1    2    0    0  0.74146291573E-02  0.10187852874E-01 -0.19904344871E-01  0.23557419563E-01  0.00000000000E+00 0.  1.
     999901    1    3    3    0    0 -0.10640683482E+00  0.42187308802E-01 -0.46511373401E-01  0.88863124600E+00  0.88000000000E+00 0. -1.
        -11    1    4    4    0    0  0.75213033841E-01 -0.48778977873E-01  0.50418435825E-01  0.10285265643E+00  0.51100000000E-03 0. -1.
         11    1    4    4    0    0  0.23779171818E-01 -0.35961838025E-02  0.15997282446E-01  0.28888678006E-01  0.51100000000E-03 0.  1.
</event>
<event>
 7    1  0.1030163E+005  0.1043930E+01  0.7957747E-01            NaN
         13   -1    0    0    0    0  0.00000000000E+00  0.00000000000E+00  0.74505805969E-08  0.10566000000E+00  0.10566000000E+00 0.  1.
     999900   -1    0    0    0    0 -0.00000000000E+00 -0.00000000000E+00 -0.74505805969E-08  0.93827000000E+00  0.93827000000E+00 0.  1.
     999903    2    1    2    0    0  0.78424466269E-01 -0.21126835215E-01 -0.76422171831E-01  0.11331397181E+00  0.20074057522E-01 0.  0.
         14    1    1    2    0    0  0.23710308525E-01 -0.31490385398E-01 -0.34013089527E-02  0.39565035138E-01  0.00000000000E+00 0. -1.
     999901    1    1    2    0    0 -0.10213477479E+00  0.52617220612E-01  0.79823480783E-01  0.89105099305E+00  0.88000000000E+00 0. -1.
        -11    1    3    3    0    0  0.22939705438E-01  0.27423330008E-02 -0.18150362078E-01  0.29384472778E-01  0.51100000000E-03 0. -1.
         11    1    3    3    0    0  0.55484760831E-01 -0.23869168215E-01 -0.58271809753E-01  0.83929499037E-01  0.51100000000E-03 0.  1.
</event>
<event>
 8    1  0.1030163E+005  0.1043930E+01  0.7957747E-01            NaN
         13   -1    0    0    0    0  0.00000000000E+00  0.00000000000E+00  0.74505805969E-08  0.10566000000E+00  0.10566000000E+00 0. -1.
     999900   -1    0    0    0    0 -0.00000000000E+00 -0.00000000000E+00 -0.74505805969E-08  0.93827000000E+00  0.93827000000E+00 0. -1.
     999902    2    1    2    0    0 -0.86747002135E-02  0.21582410042E-01  0.21810876913E-02  0.10205674661E+01  0.10203000269E+01 0.  0.
     999903    2    3    3    0    0  0.90770205433E-01  0.90040890704E-01  0.25046493274E-01  0.13203008387E+00  0.21401495943E-01 0.  0.
         14    1    1    2    0    0  0.86747002135E-02 -0.21582410042E-01 -0.21810876913E-02  0.23362533907E-01  0.00000000000E+00 0. -1.
     999901    1    3    3    0    0 -0.99444905646E-01 -0.68458480662E-01 -0.22865405582E-01  0.88853738222E+00  0.88000000000E+00 0. -1.
        -11    1    4    4    0    0  0.62093665039E-02  0.15820608246E-01  0.51859110361E-02  0.17776463988E-01  0.51100000000E-03 0. -1.
         11    1    4    4    0    0  0.84560838929E-01  0.74220282458E-01  0.19860582237E-01  0.11425361988E+00  0.51100000000E-03 0.  1.
</event>
<event>
 8    1  0.1030163E+005  0.1043930E+01  0.7957747E-01            NaN
         13   -1    0    0    0    0  0.00000000000E+00  0.00000000000E+00  0.74505805969E-08  0.10566000000E+00  0.10566000000E+00 0. -1.
     999900   -1    0    0    0    0 -0.00000000000E+00 -0.00000000000E+00 -0.74505805969E-08  0.93827000000E+00  0.93827000000E+00 0.  1.
     999902    2    1    2    0    0 -0.67252316676E-02  0.21071804574E-01  0.11097562981E-01  0.10191831700E+01  0.10188826863E+01 0.  0.
     999903    2    3    3    0    0 -0.43407945381E-02  0.93625979729E-01 -0.88686568651E-01  0.13057376946E+00  0.19988377480E-01 0.  0.
         14    1    1    2    0    0  0.67252316676E-02 -0.21071804574E-01 -0.11097562981E-01  0.24746829961E-01  0.00000000000E+00 0. -1.
     999901    1    3    3    0    0 -0.23844371295E-02 -0.72554175154E-01  0.99784131633E-01  0.88860940058E+00  0.88000000000E+00 0. -1.
        -11    1    4    4    0    0  0.73921389980E-02  0.28034775524E-01 -0.30866088327E-01  0.42350547662E-01  0.51100000000E-03 0.  1.
         11    1    4    4    0    0 -0.11732933536E-01  0.65591204204E-01 -0.57820480324E-01  0.88223221797E-01  0.51100000000E-03 0. -1.
</event>
<event>
 8    1  0.1030163E+005  0.1043930E+01  0.7957747E-01            NaN
         13   -1    0    0    0    0  0.00000000000E+00  0.00000000000E+00  0.74505805969E-08  0.10566000000E+00  0.10566000000E+00 0. -1.
     999900   -1    0    0    0    0 -0.00000000000E+00 -0.00000000000E+00 -0.74505805969E-08  0.93827000000E+00  0.93827000000E+00 0. -1.
     999902    2    1    2    0    0  0.15966899969E-01  0.62993528889E-02  0.15342630429E-01  0.10209078357E+01  0.10206482200E+01 0.  0.
     999903    2    3    3    0    0 -0.11712960493E+00 -0.30591507852E-01  0.41837740938E-01  0.12974140560E+00  0.20670052133E-01 0.  0.
         14    1    1    2    0    0 -0.15966899969E-01 -0.62993528889E-02 -0.15342630429E-01  0.23022164319E-01  0.00000000000E+00 0.  1.
     999901    1    3    3    0    0  0.13309650490E+00  0.36890860741E-01 -0.26495110509E-01  0.89116643008E+00  0.88000000000E+00 0. -1.
        -11    1    4    4    0    0 -0.85624643659E-02 -0.40905406761E-02  0.94148869410E-02  0.13377202105E-01  0.51100000000E-03 0. -1.
         11    1    4    4    0    0 -0.10856714057E+00 -0.26500967176E-01  0.32422853997E-01  0.11636420349E+00  0.51100000000E-03 0.  1.
</event>
<event>
 8    1  0.1030163E+005  0.1043930E+01  0.7957747E-01            NaN
         13   -1    0    0    0    0  0.00000000000E+00  0.00000000000E+00  0.74505805969E-08  0.10566000000E+00  0.10566000000E+00 0. -1.
     999900   -1    0    0    0    0 -0.00000000000E+00 -0.00000000000E+00 -0.74505805969E-08  0.93827000000E+00  0.93827000000E+00 0.  1.
     999902    2    1    2    0    0 -0.16267976378E-01  0.21729013809E-01  0.54173247318E-02  0.10162506845E+01  0.10158736680E+01 0.  0.
     999903    2    3    3    0    0 -0.80521576360E-01  0.27994514554E-01  0.93928471583E-01  0.12945758313E+00  0.25870658111E-01 0.  0.
         14    1    1    2    0    0  0.16267976378E-01 -0.21729013809E-01 -0.54173247318E-02  0.27679315451E-01  0.00000000000E+00 0.  1.
     999901    1    3    3    0    0  0.64253599982E-01 -0.62655007446E-02 -0.88511146851E-01  0.88679310142E+00  0.88000000000E+00 0.  1.
        -11    1    4    4    0    0 -0.16017974770E-01 -0.20843404207E-02  0.84830321474E-02  0.18252203871E-01  0.51100000000E-03 0.  1.
         11    1    4    4    0    0 -0.64503601590E-01  0.30078854975E-01  0.85445439435E-01  0.11120537926E+00  0.51100000000E-03 0. -1.
</event>
<event>
 8    1  0.1030163E+005  0.1043930E+01  0.7957747E-01            NaN
         13   -1    0    0    0    0  0.00000000000E+00  0.00000000000E+00  0.74505805969E-08  0.10566000000E+00  0.10566000000E+00 0. -1.
     999900   -1    0    0    0    0 -0.00000000000E+00 -0.00000000000E+00 -0.74505805969E-08  0.93827000000E+00  0.93827000000E+00 0. -1.
     999902    2    1    2    0    0 -0.72730753960E-02  0.71615854717E-02  0.21321895318E-01  0.10202908555E+01  0.10200169708E+01 0.  0.
     999903    2    3    3    0    0 -0.36261157486E-01 -0.82401263494E-01  0.94574169661E-01  0.13224372359E+00  0.20959224564E-01 0.  0.
         14    1    1    2    0    0  0.72730753960E-02 -0.71615854717E-02 -0.21321895318E-01  0.23639144488E-01  0.00000000000E+00 0.  1.
     999901    1    3    3    0    0  0.28988082090E-01  0.89562848965E-01 -0.73252274344E-01  0.88804713192E+00  0.88000000000E+00 0. -1.
        -11    1    4    4    0    0 -0.14757069692E-01 -0.54298415233E-01  0.49560931093E-01  0.74984238441E-01  0.51100000000E-03 0. -1.
         11    1    4    4    0    0 -0.21504087793E-01 -0.28102848261E-01  0.45013238568E-01  0.57259485149E-01  0.51100000000E-03 0.  1.
</event>
<event>
 8    1  0.1030163E+005  0.1043930E+01  0.7957747E-01            NaN
         13   -1    0    0    0    0  0.00000000000E+00  0.00000000000E+00  0.74505805969E-08  0.10566000000E+00  0.10566000000E+00 0. -1.
     999900   -1    0    0    0    0 -0.00000000000E+00 -0.00000000000E+00 -0.74505805969E-08  0.93827000000E+00  0.93827000000E+00 0. -1.
     999902    2    1    2    0    0 -0.22806682394E-01  0.68300239488E-02 -0.15165027707E-02  0.10200743137E+01  0.10197953283E+01 0.  0.
     999903    2    3    3    0    0  0.53477034940E-01 -0.52567162630E-01 -0.10347818882E+00  0.12892706618E+00  0.17069065019E-01 0.  0.
         14    1    1    2    0    0  0.22806682394E-01 -0.68300239488E-02  0.15165027707E-02  0.23855686316E-01  0.00000000000E+00 0. -1.
     999901    1    3    3    0    0 -0.76283717333E-01  0.59397186579E-01  0.10196168605E+00  0.89114724750E+00  0.88000000000E+00 0.  1.
        -11    1    4    4    0    0  0.78144477105E-02 -0.10985441713E-01 -0.96117588649E-02  0.16564798584E-01  0.51100000000E-03 0.  1.
         11    1    4    4    0    0  0.45662587229E-01 -0.41581720917E-01 -0.93866429955E-01  0.11236226760E+00  0.51100000000E-03 0. -1.
</event>
<event>
 8    1  0.1107389E+005  0.1043930E+01  0.7957747E-01            NaN
         13   -1    0    0    0    0  0.00000000000E+00  0.00000000000E+00  0.74505805969E-08  0.10566000000E+00  0.10566000000E+00 0.  1.
     999900   -1    0    0    0    0 -0.00000000000E+00 -0.00000000000E+00 -0.74505805969E-08  0.93827000000E+00  0.93827000000E+00 0.  1.
     999902    2    1    2    0    0  0.17891921068E-01 -0.81233872653E-02 -0.21796618897E-01  0.10145837421E+01  0.10141592413E+01 0.  0.
     999903    2    3    3    0    0  0.30322934582E-01 -0.10973367080E-01  0.11735142096E+00  0.12355914673E+00  0.21345060103E-01 0.  0.
         14    1    1    2    0    0 -0.17891921068E-01  0.81233872653E-02  0.21796618897E-01  0.29346257947E-01  0.00000000000E+00 0.  1.
     999901    1    3    3    0    0 -0.12431013514E-01  0.28499798146E-02 -0.13914803986E+00  0.89102459533E+00  0.88000000000E+00 0.  1.
        -11    1    4    4    0    0  0.64969594733E-02 -0.11472190081E-01  0.60331692705E-01  0.61757557378E-01  0.51100000000E-03 0. -1.
         11    1    4    4    0    0  0.23825975109E-01  0.49882300101E-03  0.57019728257E-01  0.61801589347E-01  0.51100000000E-03 0.  1.
</event>
<event>
 8    1  0.1030163E+005  0.1043930E+01  0.7957747E-01            NaN
         13   -1    0    0    0    0  0.00000000000E+00  0.00000000000E+00  0.74505805969E-08  0.10566000000E+00  0.10566000000E+00 0. -1.
     999900   -1    0    0    0    0 -0.00000000000E+00 -0.00000000000E+00 -0.74505805969E-08  0.93827000000E+00  0.93827000000E+00 0. -1.
     999902    2    1    2    0    0  0.10051318837E-01  0.63119889575E-02  0.19567101981E-01  0.10210445965E+01  0.10207880908E+01 0.  0.
     999903    2    3    3    0    0 -0.27155279938E-01  0.11111995152E+00  0.63140864086E-01  0.13297494112E+00  0.24708569215E-01 0.  0.
         14    1    1    2    0    0 -0.10051318837E-01 -0.63119889575E-02 -0.19567101981E-01  0.22885403534E-01  0.00000000000E+00 0.  1.
     999901    1    3    3    0    0  0.37206598774E-01 -0.10480796256E+00 -0.43573762105E-01  0.88806965535E+00  0.88000000000E+00 0. -1.
        -11    1    4    4    0    0 -0.35311861665E-02  0.40795280186E-01  0.34155542731E-01  0.53325288386E-01  0.51100000000E-03 0.  1.
         11    1    4    4    0    0 -0.23624093771E-01  0.70324671337E-01  0.28985321355E-01  0.79649652731E-01  0.51100000000E-03 0. -1.
</event>
<event>
 8    1  0.1030163E+005  0.1043930E+01  0.7957747E-01            NaN
         13   -1    0    0    0    0  0.00000000000E+00  0.00000000000E+00  0.74505805969E-08  0.10566000000E+00  0.10566000000E+00 0.  1.
     999900   -1    0    0    0    0 -0.00000000000E+00 -0.00000000000E+00 -0.74505805969E-08  0.93827000000E+00  0.93827000000E+00 0. -1.
     999902    2    1    2    0    0  0.17566794082E-01  0.15526903060E-01 -0.35952231992E-02  0.10202107546E+01  0.10199349887E+01 0.  0.
     999903    2    3    3    0    0 -0.12388333464E+00 -0.87304411040E-02 -0.25692732858E-01  0.12831117639E+00  0.19502314258E-01 0.  0.
         14    1    1    2    0    0 -0.17566794082E-01 -0.15526903060E-01  0.35952231992E-02  0.23719245409E-01  0.00000000000E+00 0. -1.
     999901    1    3    3    0    0  0.14145012872E+00  0.24257344164E-01  0.22097509658E-01  0.89189957820E+00  0.88000000000E+00 0.  1.
        -11    1    4    4    0    0 -0.47842540982E-01 -0.11880706757E-01 -0.57391007282E-02  0.49631223225E-01  0.51100000000E-03 0.  1.
         11    1    4    4    0    0 -0.76040793659E-01  0.31502656528E-02 -0.19953632129E-01  0.78679953165E-01  0.51100000000E-03 0. -1.
</event>
<event>
 8    1  0.1030163E+005  0.1043930E+01  0.7957747E-01            NaN
         13   -1    0    0    0    0  0.00000000000E+00  0.00000000000E+00  0.74505805969E-08  0.10566000000E+00  0.10566000000E+00 0.  1.
     999900   -1    0    0    0    0 -0.00000000000E+00 -0.00000000000E+00 -0.74505805969E-08  0.93827000000E+00  0.93827000000E+00 0.  1.
     999902    2    1    2    0    0 -0.23099361915E-01 -0.42647766573E-02 -0.40212699644E-02  0.10200985197E+01  0.10198201069E+01 0.  0.
     999903    2    3    3    0    0  0.18155830611E-01 -0.51994720383E-01  0.11578210905E+00  0.12974297945E+00  0.19866021431E-01 0.  0.
         14    1    1    2    0    0  0.23099361915E-01  0.42647766573E-02  0.40212699644E-02  0.23831480293E-01  0.00000000000E+00 0. -1.
     999901    1    3    3    0    0 -0.41255192526E-01  0.47729943726E-01 -0.11980337902E+00  0.89035554025E+00  0.88000000000E+00 0. -1.
        -11    1    4    4    0    0  0.17971279346E-01 -0.32663055078E-01  0.59353656800E-01  0.70092508479E-01  0.51100000000E-03 0. -1.
         11    1    4    4    0    0  0.18455126455E-03 -0.19331665305E-01  0.56428452254E-01  0.59650470973E-01  0.51100000000E-03 0.  1.
</event>
<event>
 8    1  0.1030163E+005  0.1043930E+01  0.7957747E-01            NaN
         13   -1    0    0    0    0  0.00000000000E+00  0.00000000000E+00  0.74505805969E-08  0.10566000000E+00  0.10566000000E+00 0.  1.
     999900   -1    0    0    0    0 -0.00000000000E+00 -0.00000000000E+00 -0.74505805969E-08  0.93827000000E+00  0.93827000000E+00 0.  1.
     999902    2    1    2    0    0 -0.22304306777E-01  0.78505253076E-02  0.44934987816E-02  0.10198612572E+01  0.10195772063E+01 0.  0.
     999903    2    3    3    0    0  0.38909494357E-01  0.13111355462E-01  0.12182020880E+00  0.12995094562E+00  0.19006014857E-01 0.  0.
         14    1    1    2    0    0  0.22304306777E-01 -0.78505253076E-02 -0.44934987816E-02  0.24068742795E-01  0.00000000000E+00 0. -1.
     999901    1    3    3    0    0 -0.61213801134E-01 -0.52608301546E-02 -0.11732671002E+00  0.88991031159E+00  0.88000000000E+00 0.  1.
        -11    1    4    4    0    0  0.22180844882E-01  0.11138624035E-01  0.95688172706E-01  0.98856190205E-01  0.51100000000E-03 0.  1.
         11    1    4    4    0    0  0.16728649475E-01  0.19727314270E-02  0.26132036099E-01  0.31094755414E-01  0.51100000000E-03 0. -1.
</event>
<event>
 8    1  0.1030163E+005  0.1043930E+01  0.7957747E-01            NaN
         13   -1    0    0    0    0  0.00000000000E+00  0.00000000000E+00  0.74505805969E-08  0.10566000000E+00  0.10566000000E+00 0.  1.
     999900   -1    0    0    0    0 -0.00000000000E+00 -0.00000000000E+00 -0.74505805969E-08  0.93827000000E+00  0.93827000000E+00 0.  1.
     999902    2    1    2    0    0 -0.20796628064E-01  0.14236551676E-01 -0.20465690134E-01  0.10114642701E+01  0.10109430974E+01 0.  0.
     999903    2    3    3    0    0 -0.98490963539E-01  0.70168612523E-01 -0.31139686680E-01  0.12620795732E+00  0.18293832883E-01 0.  0.
         14    1    1    2    0    0  0.20796628064E-01 -0.14236551676E-01  0.20465690134E-01  0.32465729857E-01  0.00000000000E+00 0.  1.
     999901    1    3    3    0    0  0.77694335475E-01 -0.55932060847E-01  0.10673996546E-01  0.88525631283E+00  0.88000000000E+00 0.  1.
        -11    1    4    4    0    0 -0.40514420243E-01  0.40036323108E-01 -0.14972120022E-01  0.58896102711E-01  0.51100000000E-03 0. -1.
         11    1    4    4    0    0 -0.57976543296E-01  0.30132289415E-01 -0.16167566658E-01  0.67311854607E-01  0.51100000000E-03 0.  1.
</event>
<event>
 8    1  0.1030163E+005  0.1043930E+01  0.7957747E-01            NaN
         13   -1    0    0    0    0  0.00000000000E+00  0.00000000000E+00  0.74505805969E-08  0.10566000000E+00  0.10566000000E+00 0. -1.
     999900   -1    0    0    0    0 -0.00000000000E+00 -0.00000000000E+00 -0.74505805969E-08  0.93827000000E+00  0.93827000000E+00 0. -1.
     999902    2    1    2    0    0 -0.20080983205E-01 -0.44137700753E-02 -0.12035041201E-01  0.10201062835E+01  0.10198280542E+01 0.  0.
     999903    2    3    3    0    0 -0.10557445375E+00 -0.72191998861E-01  0.27704158909E-01  0.13247898227E+00  0.20627901916E-01 0.  0.
         14    1    1    2    0    0  0.20080983205E-01  0.44137700753E-02  0.12035041201E-01  0.23823716533E-01  0.00000000000E+00 0.  1.
     999901    1    3    3    0    0  0.85493470550E-01  0.67778228786E-01 -0.39739200109E-01  0.88762730120E+00  0.88000000000E+00 0. -1.
        -11    1    4    4    0    0 -0.59512686393E-01 -0.35868551745E-01  0.24671323270E-01  0.73737698356E-01  0.51100000000E-03 0. -1.
         11    1    4    4    0    0 -0.46061767362E-01 -0.36323447116E-01  0.30328356383E-02  0.58741283914E-01  0.51100000000E-03 0.  1.
</event>
<event>
 8    1  0.1030163E+005  0.1043930E+01  0.7957747E-01            NaN
         13   -1    0    0    0    0  0.00000000000E+00  0.00000000000E+00  0.74505805969E-08  0.10566000000E+00  0.10566000000E+00 0.  1.
     999900   -1    0    0    0    0 -0.00000000000E+00 -0.00000000000E+00 -0.74505805969E-08  0.93827000000E+00  0.93827000000E+00 0.  1.
     999902    2    1    2    0    0 -0.87647655011E-03 -0.21727352757E-01 -0.80489367625E-02  0.10207431190E+01  0.10204797320E+01 0.  0.
     999903    2    3    3    0    0  0.89454493618E-01  0.90722306832E-01 -0.50298862537E-02  0.12899555111E+00  0.19542493836E-01 0.  0.
         14    1    1    2    0    0  0.87647655011E-03  0.21727352757E-01  0.80489367625E-02  0.23186881032E-01  0.00000000000E+00 0. -1.
     999901    1    3    3    0    0 -0.90330970168E-01 -0.11244965959E+00 -0.30190505088E-02  0.89174756786E+00  0.88000000000E+00 0.  1.
        -11    1    4    4    0    0  0.55550675917E-01  0.68861297540E-01 -0.13799923523E-02  0.88486843054E-01  0.51100000000E-03 0. -1.
         11    1    4    4    0    0  0.33903817701E-01  0.21861009291E-01 -0.36498939014E-02  0.40508708057E-01  0.51100000000E-03 0.  1.
</event>
<event>
 8    1  0.1030163E+005  0.1043930E+01  0.7957747E-01            NaN
         13   -1    0    0    0    0  0.00000000000E+00  0.00000000000E+00  0.74505805969E-08  0.10566000000E+00  0.10566000000E+00 0. -1.
     999900   -1    0    0    0    0 -0.00000000000E+00 -0.00000000000E+00 -0.74505805969E-08  0.93827000000E+00  0.93827000000E+00 0. -1.
     999902    2    1    2    0    0  0.97327790468E-02  0.13111648242E-01  0.16107476640E-01  0.10209932803E+01  0.10207356099E+01 0.  0.
     999903    2    3    3    0    0  0.63262391020E-01  0.45856194470E-01  0.10709937451E+00  0.13407888185E+00  0.20048686991E-01 0.  0.
         14    1    1    2    0    0 -0.97327790468E-02 -0.13111648242E-01 -0.16107476640E-01  0.22936719716E-01  0.00000000000E+00 0.  1.
     999901    1    3    3    0    0 -0.53529611973E-01 -0.32744546228E-01 -0.90991897869E-01  0.88691439843E+00  0.88000000000E+00 0. -1.
        -11    1    4    4    0    0  0.33959057683E-01  0.21077791748E-01  0.38635636161E-01  0.55591945516E-01  0.51100000000E-03 0. -1.
         11    1    4    4    0    0  0.29303333338E-01  0.24778402721E-01  0.68463738348E-01  0.78486936338E-01  0.51100000000E-03 0.  1.
</event>
<event>
 8    1  0.1030163E+005  0.1043930E+01  0.7957747E-01            NaN
         13   -1    0    0    0    0  0.00000000000E+00  0.00000000000E+00  0.74505805969E-08  0.10566000000E+00  0.10566000000E+00 0. -1.
     999900   -1    0    0    0    0 -0.00000000000E+00 -0.00000000000E+00 -0.74505805969E-08  0.93827000000E+00  0.93827000000E+00 0. -1.
     999902    2    1    2    0    0 -0.64360855475E-02 -0.14767527662E-01 -0.18278593239E-01  0.10195658862E+01  0.10192747354E+01 0.  0.
     999903    2    3    3    0    0  0.82526457744E-01 -0.97052701526E-01  0.19642579593E-01  0.13045217058E+00  0.20052301016E-01 0.  0.
         14    1    1    2    0    0  0.64360855475E-02  0.14767527662E-01  0.18278593239E-01  0.24364113800E-01  0.00000000000E+00 0. -1.
     999901    1    3    3    0    0 -0.88962543291E-01  0.82285173864E-01 -0.37921172833E-01  0.88911371562E+00  0.88000000000E+00 0.  1.
        -11    1    4    4    0    0  0.17358204662E-01 -0.33100193851E-01  0.18335500221E-02  0.37423964631E-01  0.51100000000E-03 0.  1.
         11    1    4    4    0    0  0.65168253082E-01 -0.63952507675E-01  0.17809029571E-01  0.93028205954E-01  0.51100000000E-03 0. -1.
</event>
<event>
 8    1  0.1030163E+005  0.1043930E+01  0.7957747E-01            NaN
         13   -1    0    0    0    0  0.00000000000E+00  0.00000000000E+00  0.74505805969E-08  0.10566000000E+00  0.10566000000E+00 0. -1.
     999900   -1    0    0    0    0 -0.00000000000E+00 -0.00000000000E+00 -0.74505805969E-08  0.93827000000E+00  0.93827000000E+00 0.  1.
     999902    2    1    2    0    0 -0.78427392345E-02 -0.18693724076E-01  0.33613067611E-02  0.10233809791E+01  0.10231746508E+01 0.  0.
     999903    2    3    3    0    0 -0.20214258571E-01  0.68468404689E-01 -0.10910164600E+00  0.13186642117E+00  0.19724228275E-01 0.  0.
         14    1    1    2    0    0  0.78427392345E-02  0.18693724076E-01 -0.33613067611E-02  0.20549020942E-01  0.00000000000E+00 0. -1.
     999901    1    3    3    0    0  0.12371519337E-01 -0.87162128765E-01  0.11246295277E+00  0.89151455789E+00  0.88000000000E+00 0. -1.
        -11    1    4    4    0    0 -0.23085956809E-03  0.31667882066E-01 -0.54755204464E-01  0.63255842320E-01  0.51100000000E-03 0.  1.
         11    1    4    4    0    0 -0.19983399003E-01  0.36800522623E-01 -0.54346441541E-01  0.68610578851E-01  0.51100000000E-03 0. -1.
</event>
<event>
 8    1  0.1030163E+005  0.1043930E+01  0.7957747E-01            NaN
         13   -1    0    0    0    0  0.00000000000E+00  0.00000000000E+00  0.74505805969E-08  0.10566000000E+00  0.10566000000E+00 0. -1.
     999900   -1    0    0    0    0 -0.00000000000E+00 -0.00000000000E+00 -0.74505805969E-08  0.93827000000E+00  0.93827000000E+00 0. -1.
     999902    2    1    2    0    0 -0.81416742373E-02 -0.11610853757E-01 -0.14963299624E-01  0.10233144932E+01  0.10231068140E+01 0.  0.
     999903    2    3    3    0    0 -0.44741327011E-01 -0.11515857670E+00 -0.51822709600E-01  0.13572208585E+00  0.21716519655E-01 0.  0.
         14    1    1    2    0    0  0.81416742373E-02  0.11610853757E-01  0.14963299624E-01  0.20615506785E-01  0.00000000000E+00 0. -1.
     999901    1    3    3    0    0  0.36599652774E-01  0.10354772295E+00  0.36859409976E-01  0.88759240737E+00  0.88000000000E+00 0.  1.
        -11    1    4    4    0    0 -0.34018870362E-01 -0.73419548279E-01 -0.23920954404E-01  0.84381199273E-01  0.51100000000E-03 0.  1.
         11    1    4    4    0    0 -0.10722456650E-01 -0.41739028424E-01 -0.27901755196E-01  0.51340886576E-01  0.51100000000E-03 0. -1.
</event>
<event>
 8    1  0.1030163E+005  0.1043930E+01  0.7957747E-01            NaN
         13   -1    0    0    0    0  0.00000000000E+00  0.00000000000E+00  0.74505805969E-08  0.10566000000E+00  0.10566000000E+00 0.  1.
     999900   -1    0    0    0    0 -0.00000000000E+00 -0.00000000000E+00 -0.74505805969E-08  0.93827000000E+00  0.93827000000E+00 0. -1.
     999902    2    1    2    0    0  0.10695797530E-01  0.18364200288E-01 -0.11267966318E-01  0.10198756656E+01  0.10195919587E+01 0.  0.
     999903    2    3    3    0    0 -0.11830727192E+00 -0.32036325548E-01 -0.33728590610E-01  0.12876036188E+00  0.20461579214E-01 0.  0.
         14    1    1    2    0    0 -0.10695797530E-01 -0.18364200288E-01  0.11267966318E-01  0.24054334370E-01  0.00000000000E+00 0.  1.
     999901    1    3    3    0    0  0.12900306945E+00  0.50400525836E-01  0.22460624292E-01  0.89111530375E+00  0.88000000000E+00 0.  1.
        -11    1    4    4    0    0 -0.35051377604E-01 -0.19363976362E-01 -0.10969235363E-01  0.41522859944E-01  0.51100000000E-03 0.  1.
         11    1    4    4    0    0 -0.83255894314E-01 -0.12672349185E-01 -0.22759355247E-01  0.87237501937E-01  0.51100000000E-03 0. -1.
</event>
<event>
 8    1  0.1030163E+005  0.1043930E+01  0.7957747E-01            NaN
         13   -1    0    0    0    0  0.00000000000E+00  0.00000000000E+00  0.74505805969E-08  0.10566000000E+00  0.10566000000E+00 0.  1.
     999900   -1    0    0    0    0 -0.00000000000E+00 -0.00000000000E+00 -0.74505805969E-08  0.93827000000E+00  0.93827000000E+00 0.  1.
     999902    2    1    2    0    0  0.13847387474E-01 -0.18996252298E-01  0.20114210931E-02  0.10203364934E+01  0.10200636775E+01 0.  0.
     999903    2    3    3    0    0  0.41056708093E-01 -0.37863562887E-01  0.11794492627E+00  0.13211529333E+00  0.20594718382E-01 0.  0.
         14    1    1    2    0    0 -0.13847387474E-01  0.18996252298E-01 -0.20114210931E-02  0.23593506650E-01  0.00000000000E+00 0. -1.
     999901    1    3    3    0    0 -0.27209320619E-01  0.18867310589E-01 -0.11593350518E+00  0.88822120002E+00  0.88000000000E+00 0.  1.
        -11    1    4    4    0    0  0.36847099472E-01 -0.22986424489E-01  0.77954681079E-01  0.89237200053E-01  0.51100000000E-03 0. -1.
         11    1    4    4    0    0  0.42096086202E-02 -0.14877138399E-01  0.39990245193E-01  0.42878093279E-01  0.51100000000E-03 0.  1.
</event>
<event>
 8    1  0.1030163E+005  0.1043930E+01  0.7957747E-01            NaN
         13   -1    0    0    0    0  0.00000000000E+00  0.00000000000E+00  0.74505805969E-08  0.10566000000E+00  0.10566000000E+00 0.  1.
     999900   -1    0    0    0    0 -0.00000000000E+00 -0.00000000000E+00 -0.74505805969E-08  0.93827000000E+00  0.93827000000E+00 0. -1.
     999902    2    1    2    0    0 -0.80773458017E-02 -0.67080813493E-02 -0.21034133534E-01  0.10204209242E+01  0.10201500801E+01 0.  0.
     999903    2    3    3    0    0  0.58922586143E-01 -0.77571205886E-02  0.11139199521E+00  0.12799346446E+00  0.21026323260E-01 0.  0.
         14    1    1    2    0    0  0.80773458017E-02  0.67080813493E-02  0.21034133534E-01  0.23509075782E-01  0.00000000000E+00 0.  1.
     999901    1    3    3    0    0 -0.66999931945E-01  0.10490392393E-02 -0.13242612874E+00  0.89242745976E+00  0.88000000000E+00 0. -1.
        -11    1    4    4    0    0  0.10871298448E-01 -0.70071753235E-02  0.39075557651E-01  0.41163648559E-01  0.51100000000E-03 0.  1.
         11    1    4    4    0    0  0.48051287695E-01 -0.74994526513E-03  0.72316437556E-01  0.86829815898E-01  0.51100000000E-03 0. -1.
</event>
<event>
 8    1  0.1030163E+005  0.1043930E+01  0.7957747E-01            NaN
         13   -1    0    0    0    0  0.00000000000E+00  0.00000000000E+00  0.74505805969E-08  0.10566000000E+00  0.10566000000E+00 0. -1.
     999900   -1    0    0    0    0 -0.00000000000E+00 -0.00000000000E+00 -0.74505805969E-08  0.93827000000E+00  0.93827000000E+00 0. -1.
     999902    2    1    2    0    0  0.44293787122E-03  0.23891751008E-01  0.15459856835E-05  0.10200341434E+01  0.10197542065E+01 0.  0.
     999903    2    3    3    0    0 -0.10616958314E+00  0.93170821030E-03  0.72910680864E-01  0.13030995291E+00  0.19795655540E-01 0.  0.
         14    1    1    2    0    0 -0.44293787122E-03 -0.23891751008E-01 -0.15459856834E-05  0.23895856599E-01  0.00000000000E+00 0. -1.
     999901    1    3    3    0    0  0.10661252101E+00  0.22960042798E-01 -0.72909134878E-01  0.88972419049E+00  0.88000000000E+00 0.  1.
        -11    1    4    4    0    0 -0.22195200250E-01  0.82525467373E-02  0.17129030923E-01  0.29230057529E-01  0.51100000000E-03 0. -1.
         11    1    4    4    0    0 -0.83974382890E-01 -0.73208385270E-02  0.55781649941E-01  0.10107989538E+00  0.51100000000E-03 0.  1.
</event>
<event>
 8    1  0.1030163E+005  0.1043930E+01  0.7957747E-01            NaN
         13   -1    0    0    0    0  0.00000000000E+00  0.00000000000E+00  0.74505805969E-08  0.10566000000E+00  0.10566000000E+00 0.  1.
     999900   -1    0    0    0    0 -0.00000000000E+00 -0.00000000000E+00 -0.74505805969E-08  0.93827000000E+00  0.93827000000E+00 0. -1.
     999902    2    1    2    0    0 -0.13437523493E-01 -0.17363469725E-01 -0.76805756238E-02  0.10206695537E+01  0.10204044735E+01 0.  0.
     999903    2    3    3    0    0 -0.10840828794E+00 -0.41357466049E-02 -0.74432317003E-01  0.13294763008E+00  0.19116517379E-01 0.  0.
         14    1    1    2    0    0  0.13437523493E-01  0.17363469725E-01  0.76805756238E-02  0.23260446265E-01  0.00000000000E+00 0.  1.
     999901    1    3    3    0    0  0.94970764443E-01 -0.13227723120E-01  0.66751741380E-01  0.88772192365E+00  0.88000000000E+00 0.  1.
        -11    1    4    4    0    0 -0.50865858134E-01 -0.28993943494E-02 -0.46457492753E-01  0.68951444983E-01  0.51100000000E-03 0. -1.
         11    1    4    4    0    0 -0.57542429801E-01 -0.12363522555E-02 -0.27974824250E-01  0.63996185099E-01  0.51100000000E-03 0.  1.
</event>
<event>
 8    1  0.1030163E+005  0.1043930E+01  0.7957747E-01            NaN
         13   -1    0    0    0    0  0.00000000000E+00  0.00000000000E+00  0.74505805969E-08  0.10566000000E+00  0.10566000000E+00 0.  1.
     999900   -1    0    0    0    0 -0.00000000000E+00 -0.00000000000E+00 -0.74505805969E-08  0.93827000000E+00  0.93827000000E+00 0.  1.
     999902    2    1    2    0    0 -0.93060047561E-02  0.28537731442E-02 -0.20974824851E-01  0.10208066563E+01  0.10205447274E+01 0.  0.
     999903    2    3    3    0    0 -0.11710227013E+00  0.24915312625E-01 -0.54962335077E-01  0.13330347480E+00  0.20377527869E-01 0.  0.
         14    1    1    2    0    0  0.93060047561E-02 -0.28537731442E-02  0.20974824851E-01  0.23123343685E-01  0.00000000000E+00 0.  1.
     999901    1    3    3    0    0  0.10779626538E+00 -0.22061539481E-01  0.33987510226E-01  0.88750318152E+00  0.88000000000E+00 0. -1.
        -11    1    4    4    0    0 -0.77589017769E-01  0.72472750670E-02 -0.31372068397E-01  0.84006228761E-01  0.51100000000E-03 0. -1.
         11    1    4    4    0    0 -0.39513252365E-01  0.17668037558E-01 -0.23590266680E-01  0.49297246035E-01  0.51100000000E-03 0.  1.
</event>
<event>
 8    1  0.1030163E+005  0.1043930E+01  0.7957747E-01            NaN
         13   -1    0    0    0    0  0.00000000000E+00  0.00000000000E+00  0.74505805969E-08  0.10566000000E+00  0.10566000000E+00 0.  1.
     999900   -1    0    0    0    0 -0.00000000000E+00 -0.00000000000E+00 -0.74505805969E-08  0.93827000000E+00  0.93827000000E+00 0. -1.
     999902    2    1    2    0    0  0.79100144121E-02  0.15488115666E-01  0.15970328629E-01  0.10203185314E+01  0.10200452951E+01 0.  0.
     999903    2    3    3    0    0  0.12383654663E+00 -0.37008562652E-01  0.10650495287E-01  0.13114860231E+00  0.19529435376E-01 0.  0.
         14    1    1    2    0    0 -0.79100144121E-02 -0.15488115666E-01 -0.15970328629E-01  0.23611468641E-01  0.00000000000E+00 0. -1.
     999901    1    3    3    0    0 -0.11592653222E+00  0.52496678318E-01  0.53198333421E-02  0.88916992905E+00  0.88000000000E+00 0. -1.
        -11    1    4    4    0    0  0.21416752599E-01 -0.11010140653E-01 -0.41707750334E-02  0.24444978512E-01  0.51100000000E-03 0.  1.
         11    1    4    4    0    0  0.10241979403E+00 -0.25998421999E-01  0.14821270320E-01  0.10670362379E+00  0.51100000000E-03 0. -1.
</event>
<event>
 8    1  0.1030163E+005  0.1043930E+01  0.7957747E-01            NaN
         13   -1    0    0    0    0  0.00000000000E+00  0.00000000000E+00  0.74505805969E-08  0.10566000000E+00  0.10566000000E+00 0.  1.
     999900   -1    0    0    0    0 -0.00000000000E+00 -0.00000000000E+00 -0.74505805969E-08  0.93827000000E+00  0.93827000000E+00 0. -1.
     999902    2    1    2    0    0 -0.64082509834E-02  0.23188641268E-01  0.22914112641E-02  0.10197633012E+01  0.10194769057E+01 0.  0.
     999903    2    3    3    0    0 -0.96185994317E-01 -0.25777347455E-01  0.79996857183E-01  0.13044004864E+00  0.26436565304E-01 0.  0.
         14    1    1    2    0    0  0.64082509834E-02 -0.23188641268E-01 -0.22914112641E-02  0.24166698783E-01  0.00000000000E+00 0. -1.
     999901    1    3    3    0    0  0.89777743334E-01  0.48965988723E-01 -0.77705445919E-01  0.88932325258E+00  0.88000000000E+00 0. -1.
        -11    1    4    4    0    0 -0.34416496182E-01  0.36228335739E-02  0.26111610416E-01  0.43355477763E-01  0.51100000000E-03 0. -1.
         11    1    4    4    0    0 -0.61769498135E-01 -0.29400181029E-01  0.53885246767E-01  0.87084570876E-01  0.51100000000E-03 0.  1.
</event>
<event>
 8    1  0.1030163E+005  0.1043930E+01  0.7957747E-01            NaN
         13   -1    0    0    0    0  0.00000000000E+00  0.00000000000E+00  0.74505805969E-08  0.10566000000E+00  0.10566000000E+00 0.  1.
     999900   -1    0    0    0    0 -0.00000000000E+00 -0.00000000000E+00 -0.74505805969E-08  0.93827000000E+00  0.93827000000E+00 0. -1.
     999902    2    1    2    0    0 -0.15984467659E-03 -0.15380169812E-01 -0.18754391193E-01  0.10196750549E+01  0.10193865386E+01 0.  0.
     999903    2    3    3    0    0  0.10298360501E+00 -0.45746092506E-01  0.60417230692E-01  0.12960269479E+00  0.21172832889E-01 0.  0.
         14    1    1    2    0    0  0.15984467659E-03  0.15380169812E-01  0.18754391193E-01  0.24254945120E-01  0.00000000000E+00 0.  1.
     999901    1    3    3    0    0 -0.10314344969E+00  0.30365922694E-01 -0.79171621885E-01  0.89007236008E+00  0.88000000000E+00 0. -1.
        -11    1    4    4    0    0  0.26837260556E-01 -0.74849398368E-02  0.60438034257E-02  0.28514058978E-01  0.51100000000E-03 0. -1.
         11    1    4    4    0    0  0.76146344457E-01 -0.38261152669E-01  0.54373427266E-01  0.10108863582E+00  0.51100000000E-03 0.  1.
</event>
<event>
 8    1  0.1030163E+005  0.1043930E+01  0.7957747E-01            NaN
         13   -1    0    0    0    0  0.00000000000E+00  0.00000000000E+00  0.74505805969E-08  0.10566000000E+00  0.10566000000E+00 0. -1.
     999900   -1    0    0    0    0 -0.00000000000E+00 -0.00000000000E+00 -0.74505805969E-08  0.93827000000E+00  0.93827000000E+00 0. -1.
     999902    2    1    2    0    0 -0.86596995386E-02  0.79529186659E-02 -0.21455218944E-01  0.10194643970E+01  0.10191707860E+01 0.  0.
     999903    2    3    3    0    0  0.56974734533E-01 -0.11174743725E+00 -0.22104707297E-01  0.12893844229E+00  0.20072212299E-01 0.  0.
         14    1    1    2    0    0  0.86596995386E-02 -0.79529186659E-02  0.21455218944E-01  0.24465603024E-01  0.00000000000E+00 0. -1.
     999901    1    3    3    0    0 -0.65634434072E-01  0.11970035592E+00  0.64948835350E-03  0.89052595469E+00  0.88000000000E+00 0. -1.
        -11    1    4    4    0    0  0.31910277291E-01 -0.80413285855E-01 -0.19750635483E-01  0.88740695635E-01  0.51100000000E-03 0.  1.
         11    1    4    4    0    0  0.25064457242E-01 -0.31334151398E-01 -0.23540718145E-02  0.40197746650E-01  0.51100000000E-03 0. -1.
</event>
<event>
 8    1  0.1030163E+005  0.1043930E+01  0.7957747E-01            NaN
         13   -1    0    0    0    0  0.00000000000E+00  0.00000000000E+00  0.74505805969E-08  0.10566000000E+00  0.10566000000E+00 0. -1.
     999900   -1    0    0    0    0 -0.00000000000E+00 -0.00000000000E+00 -0.74505805969E-08  0.93827000000E+00  0.93827000000E+00 0. -1.
     999902    2    1    2    0    0 -0.15915857208E-02  0.24189283289E-01 -0.29344485675E-02  0.10195114505E+01  0.10192189814E+01 0.  0.
     999903    2    3    3    0    0  0.43653358449E-01  0.10014118886E+00 -0.72432710269E-01  0.13235542966E+00  0.18373590668E-01 0.  0.
         14    1    1    2    0    0  0.15915857208E-02 -0.24189283289E-01  0.29344485675E-02  0.24418549497E-01  0.00000000000E+00 0. -1.
     999901    1    3    3    0    0 -0.45244944170E-01 -0.75951905572E-01  0.69498261702E-01  0.88715602084E+00  0.88000000000E+00 0. -1.
        -11    1    4    4    0    0  0.23767187427E-01  0.73674074263E-01 -0.46573081968E-01  0.90344128208E-01  0.51100000000E-03 0.  1.
         11    1    4    4    0    0  0.19886171023E-01  0.26467114598E-01 -0.25859628301E-01  0.42011301455E-01  0.51100000000E-03 0. -1.
</event>
<event>
 8    1  0.1030163E+005  0.1043930E+01  0.7957747E-01            NaN
         13   -1    0    0    0    0  0.00000000000E+00  0.00000000000E+00  0.74505805969E-08  0.10566000000E+00  0.10566000000E+00 0.  1.
     999900   -1    0    0    0    0 -0.00000000000E+00 -0.00000000000E+00 -0.74505805969E-08  0.93827000000E+00  0.93827000000E+00 0. -1.
     999902    2    1    2    0    0  0.92383300821E-02  0.16100812027E-03  0.22247167115E-01  0.10198403941E+01  0.10195558447E+01 0.  0.
     999903    2    3    3    0    0  0.12072818748E+00  0.34410504138E-01  0.33771078128E-01  0.13207025676E+00  0.23295685349E-01 0.  0.
         14    1    1    2    0    0 -0.92383300821E-02 -0.16100812027E-03 -0.22247167115E-01  0.24089605870E-01  0.00000000000E+00 0. -1.
     999901    1    3    3    0    0 -0.11148985740E+00 -0.34249496018E-01 -0.11523911013E-01  0.88777013737E+00  0.88000000000E+00 0. -1.
        -11    1    4    4    0    0  0.88273079414E-02 -0.34731093090E-02  0.16641284848E-02  0.96443920689E-02  0.51100000000E-03 0.  1.
         11    1    4    4    0    0  0.11190087954E+00  0.37883613447E-01  0.32106949643E-01  0.12242586469E+00  0.51100000000E-03 0. -1.
</event>
<event>
 8    1  0.1030163E+005  0.1043930E+01  0.7957747E-01            NaN
         13   -1    0    0    0    0  0.00000000000E+00  0.00000000000E+00  0.74505805969E-08  0.10566000000E+00  0.10566000000E+00 0. -1.
     999900   -1    0    0    0    0 -0.00000000000E+00 -0.00000000000E+00 -0.74505805969E-08  0.93827000000E+00  0.93827000000E+00 0.  1.
     999902    2    1    2    0    0 -0.14172261347E-03 -0.12963853459E-01  0.19621983615E-01  0.10204118406E+01  0.10201407847E+01 0.  0.
     999903    2    3    3    0    0 -0.54521101489E-01  0.39749374390E-01 -0.10697766247E+00  0.12813202369E+00  0.20519063221E-01 0.  0.
         14    1    1    2    0    0  0.14172261347E-03  0.12963853459E-01 -0.19621983615E-01  0.23518159426E-01  0.00000000000E+00 0.  1.
     999901    1    3    3    0    0  0.54379378876E-01 -0.52713227849E-01  0.12659964608E+00  0.89227981689E+00  0.88000000000E+00 0. -1.
        -11    1    4    4    0    0 -0.44453714985E-01  0.29530419824E-01 -0.96792314615E-01  0.11053140622E+00  0.51100000000E-03 0. -1.
         11    1    4    4    0    0 -0.10067386505E-01  0.10218954566E-01 -0.10185347851E-01  0.17600617469E-01  0.51100000000E-03 0.  1.
</event>
<event>
 8    1  0.1030163E+005  0.1043930E+01  0.7957747E-01            NaN
         13   -1    0    0    0    0  0.00000000000E+00  0.00000000000E+00  0.74505805969E-08  0.10566000000E+00  0.10566000000E+00 0. -1.
     999900   -1    0    0    0    0 -0.00000000000E+00 -0.00000000000E+00 -0.74505805969E-08  0.93827000000E+00  0.93827000000E+00 0.  1.
     999902    2    1    2    0    0 -0.10477516117E-01 -0.60271085559E-02  0.20238511457E-01  0.10203566734E+01  0.10200843295E+01 0.  0.
     999903    2    3    3    0    0 -0.99539057831E-01 -0.62855197750E-01  0.57437055478E-01  0.13325739957E+00  0.24489166581E-01 0.  0.
         14    1    1    2    0    0  0.10477516117E-01  0.60271085559E-02 -0.20238511457E-01  0.23573326611E-01  0.00000000000E+00 0.  1.
     999901    1    3    3    0    0  0.89061541714E-01  0.56828089194E-01 -0.37198544021E-01  0.88709927382E+00  0.88000000000E+00 0. -1.
        -11    1    4    4    0    0 -0.36958150370E-01 -0.36056045523E-01  0.18625539203E-01  0.54891849387E-01  0.51100000000E-03 0. -1.
         11    1    4    4    0    0 -0.62580907461E-01 -0.26799152227E-01  0.38811516276E-01  0.78365550182E-01  0.51100000000E-03 0.  1.
</event>
<event>
 8    1  0.1030163E+005  0.1043930E+01  0.7957747E-01            NaN
         13   -1    0    0    0    0  0.00000000000E+00  0.00000000000E+00  0.74505805969E-08  0.10566000000E+00  0.10566000000E+00 0.  1.
     999900   -1    0    0    0    0 -0.00000000000E+00 -0.00000000000E+00 -0.74505805969E-08  0.93827000000E+00  0.93827000000E+00 0.  1.
     999902    2    1    2    0    0 -0.17697452947E-01  0.14081277101E-01 -0.32364769086E-02  0.10210836220E+01  0.10208280003E+01 0.  0.
     999903    2    3    3    0    0  0.68011365409E-01  0.26848513111E-01 -0.10665705626E+00  0.13080006036E+00  0.19660611899E-01 0.  0.
         14    1    1    2    0    0  0.17697452947E-01 -0.14081277101E-01  0.32364769086E-02  0.22846378015E-01  0.00000000000E+00 0.  1.
     999901    1    3    3    0    0 -0.85708818356E-01 -0.12767236010E-01  0.10342057935E+00  0.89028356162E+00  0.88000000000E+00 0. -1.
        -11    1    4    4    0    0  0.27367252499E-01  0.74089953294E-03 -0.40192548047E-01  0.48633501631E-01  0.51100000000E-03 0. -1.
         11    1    4    4    0    0  0.40644112911E-01  0.26107613578E-01 -0.66464508213E-01  0.82166558733E-01  0.51100000000E-03 0.  1.
</event>
<event>
 8    1  0.1030163E+005  0.1043930E+01  0.7957747E-01            NaN
         13   -1    0    0    0    0  0.00000000000E+00  0.00000000000E+00  0.74505805969E-08  0.10566000000E+00  0.10566000000E+00 0. -1.
     999900   -1    0    0    0    0 -0.00000000000E+00 -0.00000000000E+00 -0.74505805969E-08  0.93827000000E+00  0.93827000000E+00 0. -1.
     999902    2    1    2    0    0 -0.94170408505E-02  0.21712372335E-01  0.66006410924E-02  0.10193601764E+01  0.10190640279E+01 0.  0.
     999903    2    3    3    0    0  0.10135994492E+00 -0.32173853656E-01 -0.67675229269E-01  0.12768076601E+00  0.20333373031E-01 0.  0.
         14    1    1    2    0    0  0.94170408505E-02 -0.21712372335E-01 -0.66006410924E-02  0.24569823638E-01  0.00000000000E+00 0.  1.
     999901    1    3    3    0    0 -0.11077698577E+00  0.53886225991E-01  0.74275870361E-01  0.89167941035E+00  0.88000000000E+00 0.  1.
        -11    1    4    4    0    0  0.35990932010E-01 -0.21598180211E-01 -0.28534891233E-01  0.50757558197E-01  0.51100000000E-03 0. -1.
         11    1    4    4    0    0  0.65369012910E-01 -0.10575673445E-01 -0.39140338035E-01  0.76923207813E-01  0.51100000000E-03 0.  1.
</event>
<event>
 8    1  0.1030163E+005  0.1043930E+01  0.7957747E-01            NaN
         13   -1    0    0    0    0  0.00000000000E+00  0.00000000000E+00  0.74505805969E-08  0.10566000000E+00  0.10566000000E+00 0. -1.
     999900   -1    0    0    0    0 -0.00000000000E+00 -0.00000000000E+00 -0.74505805969E-08  0.93827000000E+00  0.93827000000E+00 0.  1.
     999902    2    1    2    0    0 -0.20302089808E-01 -0.40483411599E-02 -0.98933771783E-02  0.10209856580E+01  0.10207278144E+01 0.  0.
     999903    2    3    3    0    0 -0.87402333403E-02  0.10785937544E+00  0.69752877522E-01  0.13025531755E+00  0.19772386751E-01 0.  0.
         14    1    1    2    0    0  0.20302089808E-01  0.40483411599E-02  0.98933771783E-02  0.22944341976E-01  0.00000000000E+00 0. -1.
     999901    1    3    3    0    0 -0.11561856468E-01 -0.11190771660E+00 -0.79646254701E-01  0.89073034048E+00  0.88000000000E+00 0. -1.
        -11    1    4    4    0    0 -0.13514256148E-01  0.54993496818E-01  0.40714152395E-01  0.69748284121E-01  0.51100000000E-03 0.  1.
         11    1    4    4    0    0  0.47740228079E-02  0.52865878619E-01  0.29038725128E-01  0.60507033426E-01  0.51100000000E-03 0. -1.
</event>
<event>
 8    1  0.1030163E+005  0.1043930E+01  0.7957747E-01            NaN
         13   -1    0    0    0    0  0.00000000000E+00  0.00000000000E+00  0.74505805969E-08  0.10566000000E+00  0.10566000000E+00 0.  1.
     999900   -1    0    0    0    0 -0.00000000000E+00 -0.00000000000E+00 -0.74505805969E-08  0.93827000000E+00  0.93827000000E+00 0. -1.
     999902    2    1    2    0    0  0.16630570305E-01 -0.47691294993E-02  0.15143823505E-01  0.10209374826E+01  0.10206785427E+01 0.  0.
     999903    2    3    3    0    0  0.81480508877E-02  0.31798457776E-01 -0.12348604501E+00  0.12929440268E+00  0.19766299639E-01 0.  0.
         14    1    1    2    0    0 -0.16630570305E-01  0.47691294993E-02 -0.15143823505E-01  0.22992517375E-01  0.00000000000E+00 0.  1.
     999901    1    3    3    0    0  0.84825194177E-02 -0.36567587275E-01  0.13862986851E+00  0.89164307995E+00  0.88000000000E+00 0.  1.
        -11    1    4    4    0    0  0.48894309336E-02  0.92403536941E-02 -0.14113485372E-01  0.17571063189E-01  0.51100000000E-03 0.  1.
         11    1    4    4    0    0  0.32586199541E-02  0.22558104081E-01 -0.10937255964E+00  0.11172333949E+00  0.51100000000E-03 0. -1.
</event>
<event>
 8    1  0.1269695E+005  0.1043930E+01  0.7957747E-01            NaN
         13   -1    0    0    0    0  0.00000000000E+00  0.00000000000E+00  0.74505805969E-08  0.10566000000E+00  0.10566000000E+00 0. -1.
     999900   -1    0    0    0    0 -0.00000000000E+00 -0.00000000000E+00 -0.74505805969E-08  0.93827000000E+00  0.93827000000E+00 0. -1.
     999902    2    1    2    0    0 -0.10883025335E-02  0.18893060686E-01 -0.13392264127E-01  0.10207462798E+01  0.10204829655E+01 0.  0.
     999903    2    3    3    0    0 -0.33676703659E-01  0.18313337550E-02  0.12333966538E+00  0.12942774696E+00  0.20034831536E-01 0.  0.
         14    1    1    2    0    0  0.10883025335E-02 -0.18893060686E-01  0.13392264127E-01  0.23183720213E-01  0.00000000000E+00 0. -1.
     999901    1    3    3    0    0  0.32588401125E-01  0.17061726931E-01 -0.13673192951E+00  0.89131853283E+00  0.88000000000E+00 0. -1.
        -11    1    4    4    0    0 -0.24442813219E-01 -0.32264835145E-02  0.54939864557E-01  0.60220521025E-01  0.51100000000E-03 0. -1.
         11    1    4    4    0    0 -0.92338904402E-02  0.50578172695E-02  0.68399800822E-01  0.69207225936E-01  0.51100000000E-03 0.  1.
</event>
<event>
 8    1  0.1030163E+005  0.1043930E+01  0.7957747E-01            NaN
         13   -1    0    0    0    0  0.00000000000E+00  0.00000000000E+00  0.74505805969E-08  0.10566000000E+00  0.10566000000E+00 0. -1.
     999900   -1    0    0    0    0 -0.00000000000E+00 -0.00000000000E+00 -0.74505805969E-08  0.93827000000E+00  0.93827000000E+00 0. -1.
     999902    2    1    2    0    0  0.15703139683E-01 -0.15318910890E-01  0.10761882983E-01  0.10194948664E+01  0.10192019952E+01 0.  0.
     999903    2    3    3    0    0 -0.19134826084E-01  0.33515081404E-01 -0.12013663100E+00  0.12779263833E+00  0.20217468978E-01 0.  0.
         14    1    1    2    0    0 -0.15703139683E-01  0.15318910890E-01 -0.10761882983E-01  0.24435133560E-01  0.00000000000E+00 0. -1.
     999901    1    3    3    0    0  0.34837965766E-01 -0.48833992295E-01  0.13089851398E+00  0.89170222811E+00  0.88000000000E+00 0.  1.
        -11    1    4    4    0    0 -0.19425848948E-01  0.20757340897E-01 -0.61124653885E-01  0.67414503203E-01  0.51100000000E-03 0. -1.
         11    1    4    4    0    0  0.29102286467E-03  0.12757740508E-01 -0.59011977113E-01  0.60378135123E-01  0.51100000000E-03 0.  1.
</event>
<event>
 8    1  0.1030163E+005  0.1043930E+01  0.7957747E-01            NaN
         13   -1    0    0    0    0  0.00000000000E+00  0.00000000000E+00  0.74505805969E-08  0.10566000000E+00  0.10566000000E+00 0. -1.
     999900   -1    0    0    0    0 -0.00000000000E+00 -0.00000000000E+00 -0.74505805969E-08  0.93827000000E+00  0.93827000000E+00 0.  1.
     999902    2    1    2    0    0 -0.12207671145E-01  0.17634991269E-01  0.41406296677E-02  0.10220858940E+01  0.10218524403E+01 0.  0.
     999903    2    3    3    0    0  0.25456647312E-01  0.83742822755E-01 -0.97938681136E-01  0.13292391105E+00  0.20393126571E-01 0.  0.
         14    1    1    2    0    0  0.12207671145E-01 -0.17634991269E-01 -0.41406296677E-02  0.21844105976E-01  0.00000000000E+00 0.  1.
     999901    1    3    3    0    0 -0.37664318458E-01 -0.66107831487E-01  0.10207931080E+00  0.88916198297E+00  0.88000000000E+00 0. -1.
        -11    1    4    4    0    0  0.13546327993E-01  0.62638883638E-01 -0.81304203926E-01  0.10352665088E+00  0.51100000000E-03 0.  1.
         11    1    4    4    0    0  0.11910319319E-01  0.21103939117E-01 -0.16634477210E-01  0.29397260172E-01  0.51100000000E-03 0. -1.
</event>
<event>
 8    1  0.1030163E+005  0.1043930E+01  0.7957747E-01            NaN
         13   -1    0    0    0    0  0.00000000000E+00  0.00000000000E+00  0.74505805969E-08  0.10566000000E+00  0.10566000000E+00 0.  1.
     999900   -1    0    0    0    0 -0.00000000000E+00 -0.00000000000E+00 -0.74505805969E-08  0.93827000000E+00  0.93827000000E+00 0. -1.
     999902    2    1    2    0    0  0.11754410132E-01 -0.92399850313E-02  0.18364170280E-01  0.10202490745E+01  0.10199742094E+01 0.  0.
     999903    2    3    3    0    0  0.60391776715E-01 -0.57607556832E-01 -0.97321553336E-01  0.13003101019E+00  0.21697501445E-01 0.  0.
         14    1    1    2    0    0 -0.11754410132E-01  0.92399850313E-02 -0.18364170280E-01  0.23680925467E-01  0.00000000000E+00 0. -1.
     999901    1    3    3    0    0 -0.48637366583E-01  0.48367571800E-01  0.11568572362E+00  0.89021806434E+00  0.88000000000E+00 0.  1.
        -11    1    4    4    0    0  0.47617558260E-01 -0.55503417187E-01 -0.79841278387E-01  0.10827258208E+00  0.51100000000E-03 0.  1.
         11    1    4    4    0    0  0.12774218454E-01 -0.21041396451E-02 -0.17480274949E-01  0.21758428115E-01  0.51100000000E-03 0. -1.
</event>
<event>
 8    1  0.1030163E+005  0.1043930E+01  0.7957747E-01            NaN
         13   -1    0    0    0    0  0.00000000000E+00  0.00000000000E+00  0.74505805969E-08  0.10566000000E+00  0.10566000000E+00 0. -1.
     999900   -1    0    0    0    0 -0.00000000000E+00 -0.00000000000E+00 -0.74505805969E-08  0.93827000000E+00  0.93827000000E+00 0.  1.
     999902    2    1    2    0    0 -0.30925538174E-02  0.63971823103E-02 -0.20947578872E-01  0.10218101245E+01  0.10215706739E+01 0.  0.
     999903    2    3    3    0    0 -0.63960331207E-01 -0.10254946188E+00 -0.50535886699E-01  0.13251280328E+00  0.19961239691E-01 0.  0.
         14    1    1    2    0    0  0.30925538174E-02 -0.63971823103E-02  0.20947578872E-01  0.22119875479E-01  0.00000000000E+00 0. -1.
     999901    1    3    3    0    0  0.60867777389E-01  0.10894664419E+00  0.29588307827E-01  0.88929732124E+00  0.88000000000E+00 0.  1.
        -11    1    4    4    0    0 -0.27814186682E-01 -0.60503055581E-01 -0.21870476762E-01  0.70091565756E-01  0.51100000000E-03 0.  1.
         11    1    4    4    0    0 -0.36146144525E-01 -0.42046406295E-01 -0.28665409936E-01  0.62421237525E-01  0.51100000000E-03 0. -1.
</event>
<event>
 8    1  0.1030163E+005  0.1043930E+01  0.7957747E-01            NaN
         13   -1    0    0    0    0  0.00000000000E+00  0.00000000000E+00  0.74505805969E-08  0.10566000000E+00  0.10566000000E+00 0. -1.
     999900   -1    0    0    0    0 -0.00000000000E+00 -0.00000000000E+00 -0.74505805969E-08  0.93827000000E+00  0.93827000000E+00 0.  1.
     999902    2    1    2    0    0  0.50725852457E-02  0.22617629285E-01  0.46430655275E-02  0.10202900691E+01  0.10200161659E+01 0.  0.
     999903    2    3    3    0    0  0.30334767767E-01 -0.10307555905E+00 -0.66786484683E-01  0.12813585815E+00  0.20337025323E-01 0.  0.
         14    1    1    2    0    0 -0.50725852457E-02 -0.22617629285E-01 -0.46430655275E-02  0.23639930902E-01  0.00000000000E+00 0.  1.
     999901    1    3    3    0    0 -0.25262182522E-01  0.12569318834E+00  0.71429550210E-01  0.89215421094E+00  0.88000000000E+00 0. -1.
        -11    1    4    4    0    0  0.13103139802E-01 -0.26595787200E-01 -0.27511646261E-01  0.40449721513E-01  0.51100000000E-03 0.  1.
         11    1    4    4    0    0  0.17231627965E-01 -0.76479771854E-01 -0.39274838422E-01  0.87686136642E-01  0.51100000000E-03 0. -1.
</event>
<event>
 8    1  0.1030163E+005  0.1043930E+01  0.7957747E-01            NaN
         13   -1    0    0    0    0  0.00000000000E+00  0.00000000000E+00  0.74505805969E-08  0.10566000000E+00  0.10566000000E+00 0.  1.
     999900   -1    0    0    0    0 -0.00000000000E+00 -0.00000000000E+00 -0.74505805969E-08  0.93827000000E+00  0.93827000000E+00 0.  1.
     999902    2    1    2    0    0 -0.24689940115E-02 -0.20579560320E-01 -0.11181062128E-01  0.10203794080E+01  0.10201075952E+01 0.  0.
     999903    2    3    3    0    0  0.11619989665E-01 -0.41123901520E-01  0.12123132929E+00  0.13012460691E+00  0.20228165647E-01 0.  0.
         14    1    1    2    0    0  0.24689940115E-02  0.20579560320E-01  0.11181062128E-01  0.23550592024E-01  0.00000000000E+00 0.  1.
     999901    1    3    3    0    0 -0.14088983676E-01  0.20544341200E-01 -0.13241239142E+00  0.89025480106E+00  0.88000000000E+00 0.  1.
        -11    1    4    4    0    0 -0.54968934525E-02 -0.62260730533E-02  0.24505719107E-01  0.25879938432E-01  0.51100000000E-03 0. -1.
         11    1    4    4    0    0  0.17116883117E-01 -0.34897828467E-01  0.96725610186E-01  0.10424466848E+00  0.51100000000E-03 0.  1.
</event>
<event>
 8    1  0.1030163E+005  0.1043930E+01  0.7957747E-01            NaN
         13   -1    0    0    0    0  0.00000000000E+00  0.00000000000E+00  0.74505805969E-08  0.10566000000E+00  0.10566000000E+00 0.  1.
     999900   -1    0    0    0    0 -0.00000000000E+00 -0.00000000000E+00 -0.74505805969E-08  0.93827000000E+00  0.93827000000E+00 0.  1.
     999902    2    1    2    0    0 -0.20606066021E-03 -0.23960757888E-01 -0.12199343225E-02  0.10199373215E+01  0.10196550845E+01 0.  0.
     999903    2    3    3    0    0  0.45629685048E-01  0.11181433147E+00  0.35741472899E-01  0.12757980570E+00  0.20362736991E-01 0.  0.
         14    1    1    2    0    0  0.20606066021E-03  0.23960757888E-01  0.12199343225E-02  0.23992678452E-01  0.00000000000E+00 0. -1.
     999901    1    3    3    0    0 -0.45835745708E-01 -0.13577508935E+00 -0.36961407221E-01  0.89235751585E+00  0.88000000000E+00 0.  1.
        -11    1    4    4    0    0  0.27550120664E-01  0.80453826712E-01  0.33185595103E-01  0.91287305933E-01  0.51100000000E-03 0.  1.
         11    1    4    4    0    0  0.18079564384E-01  0.31360504754E-01  0.25558777957E-02  0.36292499763E-01  0.51100000000E-03 0. -1.
</event>
<event>
 8    1  0.1030163E+005  0.1043930E+01  0.7957747E-01            NaN
         13   -1    0    0    0    0  0.00000000000E+00  0.00000000000E+00  0.74505805969E-08  0.10566000000E+00  0.10566000000E+00 0.  1.
     999900   -1    0    0    0    0 -0.00000000000E+00 -0.00000000000E+00 -0.74505805969E-08  0.93827000000E+00  0.93827000000E+00 0.  1.
     999902    2    1    2    0    0 -0.13426490765E-01 -0.19742115985E-01  0.48331498007E-02  0.10195705843E+01  0.10192795471E+01 0.  0.
     999903    2    3    3    0    0  0.35494133739E-01  0.15117722833E-01 -0.12099623971E+00  0.12859276685E+00  0.20189863484E-01 0.  0.
         14    1    1    2    0    0  0.13426490765E-01  0.19742115985E-01 -0.48331498007E-02  0.24359415733E-01  0.00000000000E+00 0.  1.
     999901    1    3    3    0    0 -0.48920624505E-01 -0.34859838819E-01  0.12582938951E+00  0.89097781742E+00  0.88000000000E+00 0. -1.
        -11    1    4    4    0    0  0.34248913586E-02  0.49060152471E-02 -0.45987189058E-01  0.46377597446E-01  0.51100000000E-03 0. -1.
         11    1    4    4    0    0  0.32069242381E-01  0.10211707586E-01 -0.75009050656E-01  0.82215169403E-01  0.51100000000E-03 0.  1.
</event>
<event>
 8    1  0.1030163E+005  0.1043930E+01  0.7957747E-01            NaN
         13   -1    0    0    0    0  0.00000000000E+00  0.00000000000E+00  0.74505805969E-08  0.10566000000E+00  0.10566000000E+00 0. -1.
     999900   -1    0    0    0    0 -0.00000000000E+00 -0.00000000000E+00 -0.74505805969E-08  0.93827000000E+00  0.93827000000E+00 0. -1.
     999902    2    1    2    0    0 -0.18345550042E-01  0.65403014539E-02  0.11778001962E-01  0.10211691547E+01  0.10209154649E+01 0.  0.
     999903    2    3    3    0    0  0.15204123683E-01  0.51403808481E-01 -0.11679627165E+00  0.13006329189E+00  0.20039309393E-01 0.  0.
         14    1    1    2    0    0  0.18345550042E-01 -0.65403014539E-02 -0.11778001962E-01  0.22760845320E-01  0.00000000000E+00 0.  1.
     999901    1    3    3    0    0 -0.33549673725E-01 -0.44863507027E-01  0.12857427361E+00  0.89110586279E+00  0.88000000000E+00 0.  1.
        -11    1    4    4    0    0  0.18398785507E-01  0.49661347432E-01 -0.10343552693E+00  0.11620642878E+00  0.51100000000E-03 0. -1.
         11    1    4    4    0    0 -0.31946618241E-02  0.17424610493E-02 -0.13360744719E-01  0.13856863106E-01  0.51100000000E-03 0.  1.
</event>
<event>
 8    1  0.1030163E+005  0.1043930E+01  0.7957747E-01            NaN
         13   -1    0    0    0    0  0.00000000000E+00  0.00000000000E+00  0.74505805969E-08  0.10566000000E+00  0.10566000000E+00 0. -1.
     999900   -1    0    0    0    0 -0.00000000000E+00 -0.00000000000E+00 -0.74505805969E-08  0.93827000000E+00  0.93827000000E+00 0. -1.
     999902    2    1    2    0    0  0.74381356911E-02  0.58967585882E-02  0.21928424392E-01  0.10200353684E+01  0.10197554605E+01 0.  0.
     999903    2    3    3    0    0  0.96983166411E-01 -0.35593751083E-01 -0.75119819288E-01  0.12921656720E+00  0.19526502646E-01 0.  0.
         14    1    1    2    0    0 -0.74381356911E-02 -0.58967585882E-02 -0.21928424392E-01  0.23894631630E-01  0.00000000000E+00 0.  1.
     999901    1    3    3    0    0 -0.89545030719E-01  0.41490509671E-01  0.97048243680E-01  0.89081880117E+00  0.88000000000E+00 0.  1.
        -11    1    4    4    0    0  0.79357823633E-01 -0.31856892157E-01 -0.52698285670E-01  0.10044847527E+00  0.51100000000E-03 0. -1.
         11    1    4    4    0    0  0.17625342778E-01 -0.37368589252E-02 -0.22421533619E-01  0.28768091933E-01  0.51100000000E-03 0.  1.
</event>
<event>
 8    1  0.1030163E+005  0.1043930E+01  0.7957747E-01            NaN
         13   -1    0    0    0    0  0.00000000000E+00  0.00000000000E+00  0.74505805969E-08  0.10566000000E+00  0.10566000000E+00 0.  1.
     999900   -1    0    0    0    0 -0.00000000000E+00 -0.00000000000E+00 -0.74505805969E-08  0.93827000000E+00  0.93827000000E+00 0.  1.
     999902    2    1    2    0    0  0.10702723611E-01  0.77201341952E-02  0.19710838068E-01  0.10202094203E+01  0.10199336230E+01 0.  0.
     999903    2    3    3    0    0  0.47297488231E-01  0.98327624552E-01  0.73538637965E-01  0.13316583277E+00  0.20489841408E-01 0.  0.
         14    1    1    2    0    0 -0.10702723611E-01 -0.77201341952E-02 -0.19710838068E-01  0.23720579715E-01  0.00000000000E+00 0. -1.
     999901    1    3    3    0    0 -0.36594764620E-01 -0.90607490357E-01 -0.53827799898E-01  0.88704358751E+00  0.88000000000E+00 0.  1.
        -11    1    4    4    0    0  0.37240914415E-01  0.73655690447E-01  0.65389222844E-01  0.10529984818E+00  0.51100000000E-03 0. -1.
         11    1    4    4    0    0  0.10056573816E-01  0.24671934105E-01  0.81494151210E-02  0.27865984591E-01  0.51100000000E-03 0.  1.
</event>
<event>
 8    1  0.1030163E+005  0.1043930E+01  0.7957747E-01            NaN
         13   -1    0    0    0    0  0.00000000000E+00  0.00000000000E+00  0.74505805969E-08  0.10566000000E+00  0.10566000000E+00 0. -1.
     999900   -1    0    0    0    0 -0.00000000000E+00 -0.00000000000E+00 -0.74505805969E-08  0.93827000000E+00  0.93827000000E+00 0. -1.
     999902    2    1    2    0    0  0.15807187766E-01  0.13708656476E-01  0.92793438607E-02  0.10210411234E+01  0.10207845390E+01 0.  0.
     999903    2    3    3    0    0 -0.88424865615E-01 -0.42131281569E-01  0.83181446583E-01  0.13006192031E+00  0.20073572512E-01 0.  0.
         14    1    1    2    0    0 -0.15807187766E-01 -0.13708656476E-01 -0.92793438607E-02  0.22888876554E-01  0.00000000000E+00 0.  1.
     999901    1    3    3    0    0  0.10423205338E+00  0.55839938045E-01 -0.73902102722E-01  0.89097920314E+00  0.88000000000E+00 0. -1.
        -11    1    4    4    0    0 -0.72162898841E-02 -0.15367090576E-02  0.75197620564E-03  0.74339023153E-02  0.51100000000E-03 0.  1.
         11    1    4    4    0    0 -0.81208575731E-01 -0.40594572512E-01  0.82429470377E-01  0.12262801799E+00  0.51100000000E-03 0. -1.
</event>
<event>
 8    1  0.1030163E+005  0.1043930E+01  0.7957747E-01            NaN
         13   -1    0    0    0    0  0.00000000000E+00  0.00000000000E+00  0.74505805969E-08  0.10566000000E+00  0.10566000000E+00 0. -1.
     999900   -1    0    0    0    0 -0.00000000000E+00 -0.00000000000E+00 -0.74505805969E-08  0.93827000000E+00  0.93827000000E+00 0.  1.
     999902    2    1    2    0    0  0.20263089944E-01 -0.52650616087E-02 -0.10364052439E-01  0.10205691937E+01  0.10203017945E+01 0.  0.
     999903    2    3    3    0    0 -0.27365292747E-01  0.62624525224E-01  0.10747579975E+00  0.12884968085E+00  0.19506468568E-01 0.  0.
         14    1    1    2    0    0 -0.20263089944E-01  0.52650616087E-02  0.10364052439E-01  0.23360806296E-01  0.00000000000E+00 0. -1.
     999901    1    3    3    0    0  0.47628382691E-01 -0.67889586833E-01 -0.11783985219E+00  0.89171951285E+00  0.88000000000E+00 0.  1.
        -11    1    4    4    0    0 -0.14201535798E-01  0.34295290304E-01  0.40466089675E-01  0.54914625471E-01  0.51100000000E-03 0.  1.
         11    1    4    4    0    0 -0.13163756949E-01  0.28329234921E-01  0.67009710079E-01  0.73935055380E-01  0.51100000000E-03 0. -1.
</event>
<event>
 8    1  0.1030163E+005  0.1043930E+01  0.7957747E-01            NaN
         13   -1    0    0    0    0  0.00000000000E+00  0.00000000000E+00  0.74505805969E-08  0.10566000000E+00  0.10566000000E+00 0.  1.
     999900   -1    0    0    0    0 -0.00000000000E+00 -0.00000000000E+00 -0.74505805969E-08  0.93827000000E+00  0.93827000000E+00 0.  1.
     999902    2    1    2    0    0  0.93852515919E-02  0.18290992192E-01  0.85317115576E-02  0.10216716657E+01  0.10214291748E+01 0.  0.
     999903    2    3    3    0    0 -0.83242749259E-01 -0.96479519083E-01 -0.10575239507E-01  0.12919349098E+00  0.18478893789E-01 0.  0.
         14    1    1    2    0    0 -0.93852515919E-02 -0.18290992192E-01 -0.85317115576E-02  0.22258334280E-01  0.00000000000E+00 0. -1.
     999901    1    3    3    0    0  0.92628000851E-01  0.11477051127E+00  0.19106951064E-01  0.89247817474E+00  0.88000000000E+00 0.  1.
        -11    1    4    4    0    0 -0.72262081673E-01 -0.90831793863E-01 -0.12276392854E-01  0.11671843970E+00  0.51100000000E-03 0. -1.
         11    1    4    4    0    0 -0.10980667585E-01 -0.56477252192E-02  0.17011533473E-02  0.12475051282E-01  0.51100000000E-03 0.  1.
</event>
<event>
 8    1  0.1030163E+005  0.1043930E+01  0.7957747E-01            NaN
         13   -1    0    0    0    0  0.00000000000E+00  0.00000000000E+00  0.74505805969E-08  0.10566000000E+00  0.10566000000E+00 0.  1.
     999900   -1    0    0    0    0 -0.00000000000E+00 -0.00000000000E+00 -0.74505805969E-08  0.93827000000E+00  0.93827000000E+00 0. -1.
     999902    2    1    2    0    0  0.20299243114E-01  0.13631984577E-01  0.12470896767E-01  0.10164816204E+01  0.10161109542E+01 0.  0.
     999903    2    3    3    0    0  0.91486763708E-01  0.31046190211E-01  0.85362879246E-01  0.13043187084E+00  0.19797927106E-01 0.  0.
         14    1    1    2    0    0 -0.20299243114E-01 -0.13631984577E-01 -0.12470896767E-01  0.27448379564E-01  0.00000000000E+00 0. -1.
     999901    1    3    3    0    0 -0.71187520594E-01 -0.17414205634E-01 -0.72891982480E-01  0.88604974959E+00  0.88000000000E+00 0. -1.
        -11    1    4    4    0    0  0.20432302132E-01  0.15971094344E-01  0.20799211483E-01  0.33247904359E-01  0.51100000000E-03 0. -1.
         11    1    4    4    0    0  0.71054461576E-01  0.15075095867E-01  0.64563667763E-01  0.97183966482E-01  0.51100000000E-03 0.  1.
</event>
<event>
 8    1  0.1030163E+005  0.1043930E+01  0.7957747E-01            NaN
         13   -1    0    0    0    0  0.00000000000E+00  0.00000000000E+00  0.74505805969E-08  0.10566000000E+00  0.10566000000E+00 0. -1.
     999900   -1    0    0    0    0 -0.00000000000E+00 -0.00000000000E+00 -0.74505805969E-08  0.93827000000E+00  0.93827000000E+00 0. -1.
     999902    2    1    2    0    0 -0.28517471357E-01 -0.89636005495E-02 -0.11151519599E-01  0.10120246917E+01  0.10115216399E+01 0.  0.
     999903    2    3    3    0    0 -0.38487167220E-01  0.82333206564E-01 -0.82536010643E-01  0.12437034041E+00  0.19893958323E-01 0.  0.
         14    1    1    2    0    0  0.28517471357E-01  0.89636005495E-02  0.11151519599E-01  0.31905308285E-01  0.00000000000E+00 0. -1.
     999901    1    3    3    0    0  0.99696958633E-02 -0.91296807113E-01  0.71384491044E-01  0.88765435130E+00  0.88000000000E+00 0.  1.
        -11    1    4    4    0    0 -0.34358734237E-01  0.64466142335E-01 -0.55707295967E-01  0.91869309734E-01  0.51100000000E-03 0. -1.
         11    1    4    4    0    0 -0.41284329832E-02  0.17867064229E-01 -0.26828714676E-01  0.32501030679E-01  0.51100000000E-03 0.  1.
</event>
<event>
 8    1  0.1030163E+005  0.1043930E+01  0.7957747E-01            NaN
         13   -1    0    0    0    0  0.00000000000E+00  0.00000000000E+00  0.74505805969E-08  0.10566000000E+00  0.10566000000E+00 0. -1.
     999900   -1    0    0    0    0 -0.00000000000E+00 -0.00000000000E+00 -0.74505805969E-08  0.93827000000E+00  0.93827000000E+00 0. -1.
     999902    2    1    2    0    0 -0.20431404664E-01  0.90186497502E-02 -0.87608123940E-02  0.10199397900E+01  0.10196576117E+01 0.  0.
     999903    2    3    3    0    0  0.55415839816E-02 -0.78316340289E-01  0.99966465880E-01  0.12857924702E+00  0.19369309595E-01 0.  0.
         14    1    1    2    0    0  0.20431404664E-01 -0.90186497502E-02  0.87608123940E-02  0.23990209954E-01  0.00000000000E+00 0. -1.
     999901    1    3    3    0    0 -0.25972988646E-01  0.87334990039E-01 -0.10872727827E+00  0.89136054303E+00  0.88000000000E+00 0. -1.
        -11    1    4    4    0    0  0.10550202597E-02 -0.65322382901E-01  0.70838820729E-01  0.96366625026E-01  0.51100000000E-03 0.  1.
         11    1    4    4    0    0  0.44865637219E-02 -0.12993957388E-01  0.29127645150E-01  0.32212621992E-01  0.51100000000E-03 0. -1.
</event>
<event>
 8    1  0.1030163E+005  0.1043930E+01  0.7957747E-01            NaN
         13   -1    0    0    0    0  0.00000000000E+00  0.00000000000E+00  0.74505805969E-08  0.10566000000E+00  0.10566000000E+00 0. -1.
     999900   -1    0    0    0    0 -0.00000000000E+00 -0.00000000000E+00 -0.74505805969E-08  0.93827000000E+00  0.93827000000E+00 0. -1.
     999902    2    1    2    0    0  0.23302792885E-01  0.69866149870E-02  0.38367493639E-02  0.10193016913E+01  0.10190041139E+01 0.  0.
     999903    2    3    3    0    0  0.12337464885E+00 -0.14541240923E-01 -0.40974529084E-01  0.13223581118E+00  0.19355775852E-01 0.  0.
         14    1    1    2    0    0 -0.23302792885E-01 -0.69866149870E-02 -0.38367493639E-02  0.24628308730E-01  0.00000000000E+00 0. -1.
     999901    1    3    3    0    0 -0.10007185597E+00  0.21527855910E-01  0.44811278447E-01  0.88706588009E+00  0.88000000000E+00 0.  1.
        -11    1    4    4    0    0  0.42695050663E-01  0.41367460041E-02 -0.14933497711E-01  0.45423017221E-01  0.51100000000E-03 0.  1.
         11    1    4    4    0    0  0.80679598190E-01 -0.18677986927E-01 -0.26041031373E-01  0.86812793963E-01  0.51100000000E-03 0. -1.
</event>
<event>
 8    1  0.1104847E+005  0.1043930E+01  0.7957747E-01            NaN
         13   -1    0    0    0    0  0.00000000000E+00  0.00000000000E+00  0.74505805969E-08  0.10566000000E+00  0.10566000000E+00 0.  1.
     999900   -1    0    0    0    0 -0.00000000000E+00 -0.00000000000E+00 -0.74505805969E-08  0.93827000000E+00  0.93827000000E+00 0.  1.
     999902    2    1    2    0    0  0.10868455323E-02 -0.16646505630E-01 -0.18633756295E-01  0.10189199169E+01  0.10186129259E+01 0.  0.
     999903    2    3    3    0    0  0.67960909092E-02 -0.19274821773E-01  0.12419728603E+00  0.12738180208E+00  0.19581931406E-01 0.  0.
         14    1    1    2    0    0 -0.10868455323E-02  0.16646505630E-01  0.18633756295E-01  0.25010083097E-01  0.00000000000E+00 0.  1.
     999901    1    3    3    0    0 -0.57092453769E-02  0.26283161431E-02 -0.14283104233E+00  0.89153811482E+00  0.88000000000E+00 0.  1.
        -11    1    4    4    0    0  0.68379892720E-02  0.65584683546E-03  0.52997697080E-01  0.53443477143E-01  0.51100000000E-03 0. -1.
         11    1    4    4    0    0 -0.41898362780E-04 -0.19930668608E-01  0.71199588951E-01  0.73938324937E-01  0.51100000000E-03 0.  1.
</event>
<event>
 8    1  0.1030163E+005  0.1043930E+01  0.7957747E-01            NaN
         13   -1    0    0    0    0  0.00000000000E+00  0.00000000000E+00  0.74505805969E-08  0.10566000000E+00  0.10566000000E+00 0. -1.
     999900   -1    0    0    0    0 -0.00000000000E+00 -0.00000000000E+00 -0.74505805969E-08  0.93827000000E+00  0.93827000000E+00 0. -1.
     999902    2    1    2    0    0 -0.67139642252E-02  0.12614135796E-01  0.19137279579E-01  0.10200463402E+01  0.10197666924E+01 0.  0.
     999903    2    3    3    0    0 -0.77457366766E-01  0.83062019086E-01 -0.61485722501E-01  0.13073896826E+00  0.20328331670E-01 0.  0.
         14    1    1    2    0    0  0.67139642252E-02 -0.12614135796E-01 -0.19137279579E-01  0.23883659836E-01  0.00000000000E+00 0. -1.
     999901    1    3    3    0    0  0.70743402541E-01 -0.70447883289E-01  0.80623002080E-01  0.88930737191E+00  0.88000000000E+00 0. -1.
        -11    1    4    4    0    0 -0.26904795924E-01  0.23817671556E-01 -0.29695753030E-01  0.46618112264E-01  0.51100000000E-03 0. -1.
         11    1    4    4    0    0 -0.50552570842E-01  0.59244347530E-01 -0.31789969471E-01  0.84120855993E-01  0.51100000000E-03 0.  1.
</event>
<event>
 8    1  0.1030163E+005  0.1043930E+01  0.7957747E-01            NaN
         13   -1    0    0    0    0  0.00000000000E+00  0.00000000000E+00  0.74505805969E-08  0.10566000000E+00  0.10566000000E+00 0.  1.
     999900   -1    0    0    0    0 -0.00000000000E+00 -0.00000000000E+00 -0.74505805969E-08  0.93827000000E+00  0.93827000000E+00 0. -1.
     999902    2    1    2    0    0 -0.19973997552E-01  0.13074400059E-01 -0.15287515396E-02  0.10200085118E+01  0.10197279670E+01 0.  0.
     999903    2    3    3    0    0  0.25017743344E-01  0.89832733612E-01 -0.89963275596E-01  0.13111213791E+00  0.20029833771E-01 0.  0.
         14    1    1    2    0    0  0.19973997552E-01 -0.13074400059E-01  0.15287515396E-02  0.23921488173E-01  0.00000000000E+00 0. -1.
     999901    1    3    3    0    0 -0.44991740896E-01 -0.76758333553E-01  0.88434524057E-01  0.88889637392E+00  0.88000000000E+00 0.  1.
        -11    1    4    4    0    0  0.25340612775E-01  0.55753172403E-01 -0.55763089366E-01  0.82827206553E-01  0.51100000000E-03 0.  1.
         11    1    4    4    0    0 -0.32286943036E-03  0.34079561209E-01 -0.34200186231E-01  0.48284931356E-01  0.51100000000E-03 0. -1.
</event>
<event>
 8    1  0.1030163E+005  0.1043930E+01  0.7957747E-01            NaN
         13   -1    0    0    0    0  0.00000000000E+00  0.00000000000E+00  0.74505805969E-08  0.10566000000E+00  0.10566000000E+00 0. -1.
     999900   -1    0    0    0    0 -0.00000000000E+00 -0.00000000000E+00 -0.74505805969E-08  0.93827000000E+00  0.93827000000E+00 0.  1.
     999902    2    1    2    0    0 -0.14094249082E-01 -0.14900602980E-01 -0.12554363449E-01  0.10198823833E+01  0.10195988368E+01 0.  0.
     999903    2    3    3    0    0  0.12128982773E+00  0.20416447709E-01  0.29213010730E-01  0.12785062611E+00  0.19087402998E-01 0.  0.
         14    1    1    2    0    0  0.14094249082E-01  0.14900602980E-01  0.12554363449E-01  0.24047616680E-01  0.00000000000E+00 0.  1.
     999901    1    3    3    0    0 -0.13538407681E+00 -0.35317050689E-01 -0.41767374179E-01  0.89203175721E+00  0.88000000000E+00 0.  1.
        -11    1    4    4    0    0  0.78298131140E-01  0.22341353373E-01  0.19699102398E-01  0.83773797615E-01  0.51100000000E-03 0. -1.
         11    1    4    4    0    0  0.42991696590E-01 -0.19249056643E-02  0.95139083325E-02  0.44076828496E-01  0.51100000000E-03 0.  1.
</event>
<event>
 8    1  0.1030163E+005  0.1043930E+01  0.7957747E-01            NaN
         13   -1    0    0    0    0  0.00000000000E+00  0.00000000000E+00  0.74505805969E-08  0.10566000000E+00  0.10566000000E+00 0. -1.
     999900   -1    0    0    0    0 -0.00000000000E+00 -0.00000000000E+00 -0.74505805969E-08  0.93827000000E+00  0.93827000000E+00 0.  1.
     999902    2    1    2    0    0 -0.33925467854E-02  0.31716902722E-02 -0.22792121140E-01  0.10206695232E+01  0.10204044423E+01 0.  0.
     999903    2    3    3    0    0  0.10570079122E+00 -0.54205563315E-01 -0.53013054330E-01  0.13156502408E+00  0.19699524720E-01 0.  0.
         14    1    1    2    0    0  0.33925467854E-02 -0.31716902722E-02  0.22792121140E-01  0.23260476756E-01  0.00000000000E+00 0. -1.
     999901    1    3    3    0    0 -0.10909333800E+00  0.57377253588E-01  0.30220933190E-01  0.88910449916E+00  0.88000000000E+00 0. -1.
        -11    1    4    4    0    0  0.53931611597E-01 -0.38579486530E-01 -0.27966136171E-01  0.71967780316E-01  0.51100000000E-03 0. -1.
         11    1    4    4    0    0  0.51769179620E-01 -0.15626076786E-01 -0.25046918159E-01  0.59597243766E-01  0.51100000000E-03 0.  1.
</event>
<event>
 8    1  0.1030163E+005  0.1043930E+01  0.7957747E-01            NaN
         13   -1    0    0    0    0  0.00000000000E+00  0.00000000000E+00  0.74505805969E-08  0.10566000000E+00  0.10566000000E+00 0. -1.
     999900   -1    0    0    0    0 -0.00000000000E+00 -0.00000000000E+00 -0.74505805969E-08  0.93827000000E+00  0.93827000000E+00 0.  1.
     999902    2    1    2    0    0 -0.17533607902E-01 -0.24090162702E-02 -0.16591295421E-01  0.10196709429E+01  0.10193823277E+01 0.  0.
     999903    2    3    3    0    0 -0.73619482186E-03  0.11886413688E+00  0.43352730281E-01  0.12917522876E+00  0.26029895971E-01 0.  0.
         14    1    1    2    0    0  0.17533607902E-01  0.24090162702E-02  0.16591295421E-01  0.24259057056E-01  0.00000000000E+00 0. -1.
     999901    1    3    3    0    0 -0.16797413081E-01 -0.12127315315E+00 -0.59944025703E-01  0.89049571418E+00  0.88000000000E+00 0. -1.
        -11    1    4    4    0    0 -0.12449205734E-01  0.48017765247E-01  0.13539349338E-01  0.51422403719E-01  0.51100000000E-03 0.  1.
         11    1    4    4    0    0  0.11713010912E-01  0.70846371630E-01  0.29813380944E-01  0.77752825043E-01  0.51100000000E-03 0. -1.
</event>
<event>
 8    1  0.1030163E+005  0.1043930E+01  0.7957747E-01            NaN
         13   -1    0    0    0    0  0.00000000000E+00  0.00000000000E+00  0.74505805969E-08  0.10566000000E+00  0.10566000000E+00 0.  1.
     999900   -1    0    0    0    0 -0.00000000000E+00 -0.00000000000E+00 -0.74505805969E-08  0.93827000000E+00  0.93827000000E+00 0.  1.
     999902    2    1    2    0    0 -0.13636029555E-01 -0.65923842799E-02 -0.18435213787E-01  0.10200708730E+01  0.10197918062E+01 0.  0.
     999903    2    3    3    0    0  0.38513107716E-01 -0.12301284234E+00 -0.10676465747E-01  0.13083892705E+00  0.19733703768E-01 0.  0.
         14    1    1    2    0    0  0.13636029555E-01  0.65923842799E-02  0.18435213787E-01  0.23859126972E-01  0.00000000000E+00 0.  1.
     999901    1    3    3    0    0 -0.52149137271E-01  0.11642045806E+00 -0.77587480392E-02  0.88923194598E+00  0.88000000000E+00 0. -1.
        -11    1    4    4    0    0  0.20691981272E-01 -0.87799696344E-01 -0.10493197781E-02  0.90212565422E-01  0.51100000000E-03 0.  1.
         11    1    4    4    0    0  0.17821126444E-01 -0.35213145998E-01 -0.96271459692E-02  0.40626361630E-01  0.51100000000E-03 0. -1.
</event>
<event>
 8    1  0.1030163E+005  0.1043930E+01  0.7957747E-01            NaN
         13   -1    0    0    0    0  0.00000000000E+00  0.00000000000E+00  0.74505805969E-08  0.10566000000E+00  0.10566000000E+00 0. -1.
     999900   -1    0    0    0    0 -0.00000000000E+00 -0.00000000000E+00 -0.74505805969E-08  0.93827000000E+00  0.93827000000E+00 0.  1.
     999902    2    1    2    0    0 -0.18035905391E-01  0.13939054892E-02 -0.80833179502E-02  0.10241164469E+01  0.10239247629E+01 0.  0.
     999903    2    3    3    0    0 -0.42502652789E-01 -0.98868981838E-01 -0.79284348049E-01  0.13522902156E+00  0.20477533156E-01 0.  0.
         14    1    1    2    0    0  0.18035905391E-01 -0.13939054892E-02  0.80833179502E-02  0.19813553060E-01  0.00000000000E+00 0. -1.
     999901    1    3    3    0    0  0.24466747398E-01  0.10026288733E+00  0.71201030098E-01  0.88888742538E+00  0.88000000000E+00 0. -1.
        -11    1    4    4    0    0 -0.28672824286E-01 -0.45598167840E-01 -0.46535205091E-01  0.71183637142E-01  0.51100000000E-03 0.  1.
         11    1    4    4    0    0 -0.13829828503E-01 -0.53270813998E-01 -0.32749142958E-01  0.64045384423E-01  0.51100000000E-03 0. -1.
</event>
<event>
 8    1  0.1030163E+005  0.1043930E+01  0.7957747E-01            NaN
         13   -1    0    0    0    0  0.00000000000E+00  0.00000000000E+00  0.74505805969E-08  0.10566000000E+00  0.10566000000E+00 0. -1.
     999900   -1    0    0    0    0 -0.00000000000E+00 -0.00000000000E+00 -0.74505805969E-08  0.93827000000E+00  0.93827000000E+00 0.  1.
     999902    2    1    2    0    0  0.88961531087E-03 -0.23129616495E-01  0.31008729489E-02  0.10205764995E+01  0.10203092694E+01 0.  0.
     999903    2    3    3    0    0  0.75556973659E-01  0.98289865099E-01 -0.27314061748E-01  0.12858828588E+00  0.20472797698E-01 0.  0.
         14    1    1    2    0    0 -0.88961531087E-03  0.23129616495E-01 -0.31008729489E-02  0.23353500544E-01  0.00000000000E+00 0. -1.
     999901    1    3    3    0    0 -0.74667358349E-01 -0.12141948159E+00  0.30414934697E-01  0.89198821358E+00  0.88000000000E+00 0. -1.
        -11    1    4    4    0    0  0.30673325504E-01  0.41796838771E-01 -0.12222773308E-02  0.51861196589E-01  0.51100000000E-03 0. -1.
         11    1    4    4    0    0  0.44883648155E-01  0.56493026327E-01 -0.26091784417E-01  0.76727089287E-01  0.51100000000E-03 0.  1.
</event>
<event>
 8    1  0.1030163E+005  0.1043930E+01  0.7957747E-01            NaN
         13   -1    0    0    0    0  0.00000000000E+00  0.00000000000E+00  0.74505805969E-08  0.10566000000E+00  0.10566000000E+00 0.  1.
     999900   -1    0    0    0    0 -0.00000000000E+00 -0.00000000000E+00 -0.74505805969E-08  0.93827000000E+00  0.93827000000E+00 0.  1.
     999902    2    1    2    0    0 -0.13258586410E-01  0.19208717919E-01  0.38916496556E-02  0.10202675848E+01  0.10199931542E+01 0.  0.
     999903    2    3    3    0    0 -0.25855065787E-01 -0.69534759546E-01  0.10498022286E+00  0.12995697845E+00  0.19089312321E-01 0.  0.
         14    1    1    2    0    0  0.13258586410E-01 -0.19208717919E-01 -0.38916496556E-02  0.23662415235E-01  0.00000000000E+00 0. -1.
     999901    1    3    3    0    0  0.12596479376E-01  0.88743477465E-01 -0.10108857320E+00  0.89031060632E+00  0.88000000000E+00 0.  1.
        -11    1    4    4    0    0 -0.26880002464E-01 -0.48680461614E-01  0.73206660549E-01  0.91933661655E-01  0.51100000000E-03 0.  1.
         11    1    4    4    0    0  0.10249366777E-02 -0.20854297931E-01  0.31773562308E-01  0.38023316795E-01  0.51100000000E-03 0. -1.
</event>
<event>
 8    1  0.1030163E+005  0.1043930E+01  0.7957747E-01            NaN
         13   -1    0    0    0    0  0.00000000000E+00  0.00000000000E+00  0.74505805969E-08  0.10566000000E+00  0.10566000000E+00 0. -1.
     999900   -1    0    0    0    0 -0.00000000000E+00 -0.00000000000E+00 -0.74505805969E-08  0.93827000000E+00  0.93827000000E+00 0. -1.
     999902    2    1    2    0    0 -0.77520837392E-02 -0.19581884116E-01 -0.98021982861E-02  0.10207001038E+01  0.10204357274E+01 0.  0.
     999903    2    3    3    0    0  0.95734222199E-01 -0.84454915595E-01 -0.27576467457E-01  0.13208666116E+00  0.19716755092E-01 0.  0.
         14    1    1    2    0    0  0.77520837392E-02  0.19581884116E-01  0.98021982861E-02  0.23229896235E-01  0.00000000000E+00 0.  1.
     999901    1    3    3    0    0 -0.10348630594E+00  0.64873031479E-01  0.17774269170E-01  0.88861344260E+00  0.88000000000E+00 0.  1.
        -11    1    4    4    0    0  0.56041739233E-01 -0.53134271593E-01 -0.71711382164E-02  0.77560387430E-01  0.51100000000E-03 0. -1.
         11    1    4    4    0    0  0.39692482966E-01 -0.31320644003E-01 -0.20405329240E-01  0.54526273732E-01  0.51100000000E-03 0.  1.
</event>
<event>
 8    1  0.1030163E+005  0.1043930E+01  0.7957747E-01            NaN
         13   -1    0    0    0    0  0.00000000000E+00  0.00000000000E+00  0.74505805969E-08  0.10566000000E+00  0.10566000000E+00 0. -1.
     999900   -1    0    0    0    0 -0.00000000000E+00 -0.00000000000E+00 -0.74505805969E-08  0.93827000000E+00  0.93827000000E+00 0. -1.
     999902    2    1    2    0    0 -0.94354259531E-02 -0.20185415329E-01 -0.10290037859E-01  0.10193869127E+01  0.10190914162E+01 0.  0.
     999903    2    3    3    0    0 -0.11838360746E+00 -0.45510948186E-01 -0.30441344188E-01  0.13207796763E+00  0.20784349325E-01 0.  0.
         14    1    1    2    0    0  0.94354259531E-02  0.20185415329E-01  0.10290037859E-01  0.24543087297E-01  0.00000000000E+00 0. -1.
     999901    1    3    3    0    0  0.10894818150E+00  0.25325532857E-01  0.20151306328E-01  0.88730894508E+00  0.88000000000E+00 0. -1.
        -11    1    4    4    0    0 -0.63165202678E-01 -0.22380620988E-01 -0.26548855795E-01  0.72082160693E-01  0.51100000000E-03 0.  1.
         11    1    4    4    0    0 -0.55218404778E-01 -0.23130327198E-01 -0.38924883932E-02  0.59995806932E-01  0.51100000000E-03 0. -1.
</event>
<event>
 8    1  0.1030163E+005  0.1043930E+01  0.7957747E-01            NaN
         13   -1    0    0    0    0  0.00000000000E+00  0.00000000000E+00  0.74505805969E-08  0.10566000000E+00  0.10566000000E+00 0.  1.
     999900   -1    0    0    0    0 -0.00000000000E+00 -0.00000000000E+00 -0.74505805969E-08  0.93827000000E+00  0.93827000000E+00 0. -1.
     999902    2    1    2    0    0  0.13987993803E-01 -0.18792424399E-01 -0.41158412808E-02  0.10201443040E+01  0.10198669725E+01 0.  0.
     999903    2    3    3    0    0  0.93191636115E-01 -0.91520864289E-01  0.17872142000E-01  0.13332633262E+00  0.19893412702E-01 0.  0.
         14    1    1    2    0    0 -0.13987993803E-01  0.18792424399E-01  0.41158412808E-02  0.23785696014E-01  0.00000000000E+00 0. -1.
     999901    1    3    3    0    0 -0.79203642312E-01  0.72728439891E-01 -0.21987983281E-01  0.88681797136E+00  0.88000000000E+00 0.  1.
        -11    1    4    4    0    0  0.68028620827E-01 -0.74640820662E-01  0.73983830463E-02  0.10126274020E+00  0.51100000000E-03 0.  1.
         11    1    4    4    0    0  0.25163015287E-01 -0.16880043627E-01  0.10473758954E-01  0.32063592419E-01  0.51100000000E-03 0. -1.
</event>
<event>
 8    1  0.1030163E+005  0.1043930E+01  0.7957747E-01            NaN
         13   -1    0    0    0    0  0.00000000000E+00  0.00000000000E+00  0.74505805969E-08  0.10566000000E+00  0.10566000000E+00 0.  1.
     999900   -1    0    0    0    0 -0.00000000000E+00 -0.00000000000E+00 -0.74505805969E-08  0.93827000000E+00  0.93827000000E+00 0. -1.
     999902    2    1    2    0    0 -0.65307581424E-02  0.11180903401E-01  0.21145331917E-01  0.10191350718E+01  0.10188334045E+01 0.  0.
     999903    2    3    3    0    0 -0.74044169259E-01 -0.78323465567E-01 -0.65568370217E-01  0.12779430706E+00  0.20373254128E-01 0.  0.
         14    1    1    2    0    0  0.65307581424E-02 -0.11180903401E-01 -0.21145331917E-01  0.24794928204E-01  0.00000000000E+00 0. -1.
     999901    1    3    3    0    0  0.67513411117E-01  0.89504368969E-01  0.86713702134E-01  0.89134076474E+00  0.88000000000E+00 0.  1.
        -11    1    4    4    0    0 -0.53644549067E-01 -0.57757267244E-01 -0.36905485097E-01  0.87039735267E-01  0.51100000000E-03 0. -1.
         11    1    4    4    0    0 -0.20399620192E-01 -0.20566198323E-01 -0.28662885120E-01  0.40754571791E-01  0.51100000000E-03 0.  1.
</event>
<event>
 8    1  0.1030163E+005  0.1043930E+01  0.7957747E-01            NaN
         13   -1    0    0    0    0  0.00000000000E+00  0.00000000000E+00  0.74505805969E-08  0.10566000000E+00  0.10566000000E+00 0.  1.
     999900   -1    0    0    0    0 -0.00000000000E+00 -0.00000000000E+00 -0.74505805969E-08  0.93827000000E+00  0.93827000000E+00 0. -1.
     999902    2    1    2    0    0  0.12063113548E-01  0.17962505862E-01  0.28906345766E-03  0.10222908253E+01  0.10220617778E+01 0.  0.
     999903    2    3    3    0    0 -0.50219504525E-01 -0.18737974465E-01 -0.11856839773E+00  0.13136257572E+00  0.18015300073E-01 0.  0.
         14    1    1    2    0    0 -0.12063113548E-01 -0.17962505862E-01 -0.28906345766E-03  0.21639174730E-01  0.00000000000E+00 0. -1.
     999901    1    3    3    0    0  0.62282618073E-01  0.36700480328E-01  0.11885746119E+00  0.89092824955E+00  0.88000000000E+00 0.  1.
        -11    1    4    4    0    0 -0.11853432210E-01  0.20167706965E-02 -0.17060460049E-01  0.20878018040E-01  0.51100000000E-03 0.  1.
         11    1    4    4    0    0 -0.38366072315E-01 -0.20754745162E-01 -0.10150793768E+00  0.11048455768E+00  0.51100000000E-03 0. -1.
</event>
<event>
 8    1  0.1030163E+005  0.1043930E+01  0.7957747E-01            NaN
         13   -1    0    0    0    0  0.00000000000E+00  0.00000000000E+00  0.74505805969E-08  0.10566000000E+00  0.10566000000E+00 0.  1.
     999900   -1    0    0    0    0 -0.00000000000E+00 -0.00000000000E+00 -0.74505805969E-08  0.93827000000E+00  0.93827000000E+00 0. -1.
     999902    2    1    2    0    0  0.17139564170E-01  0.11448456917E-01  0.76609067941E-02  0.10219408818E+01  0.10217042843E+01 0.  0.
     999903    2    3    3    0    0  0.37803147637E-01  0.11367325974E+00  0.57553359640E-01  0.13437896800E+00  0.19865293472E-01 0.  0.
         14    1    1    2    0    0 -0.17139564170E-01 -0.11448456917E-01 -0.76609067941E-02  0.21989118187E-01  0.00000000000E+00 0. -1.
     999901    1    3    3    0    0 -0.20663583467E-01 -0.10222480282E+00 -0.49892452846E-01  0.88756191381E+00  0.88000000000E+00 0.  1.
        -11    1    4    4    0    0 -0.17937097972E-02  0.14725520860E-01  0.64930240259E-02  0.16201198765E-01  0.51100000000E-03 0. -1.
         11    1    4    4    0    0  0.39596857434E-01  0.98947738881E-01  0.51060335614E-01  0.11817776924E+00  0.51100000000E-03 0.  1.
</event>
<event>
 8    1  0.1030163E+005  0.1043930E+01  0.7957747E-01            NaN
         13   -1    0    0    0    0  0.00000000000E+00  0.00000000000E+00  0.74505805969E-08  0.10566000000E+00  0.10566000000E+00 0. -1.
     999900   -1    0    0    0    0 -0.00000000000E+00 -0.00000000000E+00 -0.74505805969E-08  0.93827000000E+00  0.93827000000E+00 0.  1.
     999902    2    1    2    0    0 -0.22581990917E-01 -0.83729317780E-02  0.94016568850E-03  0.10198273816E+01  0.10195425210E+01 0.  0.
     999903    2    3    3    0    0  0.48045169626E-01 -0.24244246159E-01 -0.11571387340E+00  0.12918252578E+00  0.20057484235E-01 0.  0.
         14    1    1    2    0    0  0.22581990917E-01  0.83729317780E-02 -0.94016568850E-03  0.24102618361E-01  0.00000000000E+00 0.  1.
     999901    1    3    3    0    0 -0.70627160543E-01  0.15871314381E-01  0.11665403909E+00  0.89064485586E+00  0.88000000000E+00 0. -1.
        -11    1    4    4    0    0  0.14742733047E-01 -0.89441927267E-03 -0.47663921553E-01  0.49902491945E-01  0.51100000000E-03 0.  1.
         11    1    4    4    0    0  0.33302436579E-01 -0.23349826886E-01 -0.68049951849E-01  0.79280033838E-01  0.51100000000E-03 0. -1.
</event>
<event>
 7    1  0.1030163E+005  0.1043930E+01  0.7957747E-01            NaN
         13   -1    0    0    0    0  0.00000000000E+00  0.00000000000E+00  0.74505805969E-08  0.10566000000E+00  0.10566000000E+00 0.  1.
     999900   -1    0    0    0    0 -0.00000000000E+00 -0.00000000000E+00 -0.74505805969E-08  0.93827000000E+00  0.93827000000E+00 0. -1.
     999902    2    1    2    0    0  0.24856217491E-02 -0.68763960382E-02 -0.18489341026E-01  0.10240473727E+01  0.10238543366E+01 0.  0.
         14    1    1    2    0    0 -0.24856217491E-02  0.68763960382E-02  0.18489341026E-01  0.19882627329E-01  0.00000000000E+00 0.  1.
     999901    1    3    3    0    0  0.75435260332E-01  0.96891169505E-01 -0.59882705574E-01  0.89054158558E+00  0.88000000000E+00 0. -1.
        -11    1    3    3    0    0 -0.49409326270E-01 -0.66742779085E-01  0.26460235721E-01  0.87156670874E-01  0.51100000000E-03 0. -1.
         11    1    3    3    0    0 -0.23540312313E-01 -0.37024786458E-01  0.14933128827E-01  0.46349116212E-01  0.51100000000E-03 0.  1.
</event>
<event>
 8    1  0.1030163E+005  0.1043930E+01  0.7957747E-01            NaN
         13   -1    0    0    0    0  0.00000000000E+00  0.00000000000E+00  0.74505805969E-08  0.10566000000E+00  0.10566000000E+00 0.  1.
     999900   -1    0    0    0    0 -0.00000000000E+00 -0.00000000000E+00 -0.74505805969E-08  0.93827000000E+00  0.93827000000E+00 0.  1.
     999902    2    1    2    0    0  0.40200722067E-02  0.10968606587E-01 -0.19567752883E-01  0.10211403474E+01  0.10208860078E+01 0.  0.
     999903    2    3    3    0    0  0.10980248220E+00  0.29190074521E-01 -0.67712745546E-01  0.13331160242E+00  0.16682981817E-01 0.  0.
         14    1    1    2    0    0 -0.40200722067E-02 -0.10968606587E-01  0.19567752883E-01  0.22789652562E-01  0.00000000000E+00 0.  1.
     999901    1    3    3    0    0 -0.10578241000E+00 -0.18221467934E-01  0.48144992663E-01  0.88782874502E+00  0.88000000000E+00 0. -1.
        -11    1    4    4    0    0  0.29809035335E-01  0.37715064892E-02 -0.10950261185E-01  0.31983936434E-01  0.51100000000E-03 0. -1.
         11    1    4    4    0    0  0.79993446868E-01  0.25418568032E-01 -0.56762484361E-01  0.10132766599E+00  0.51100000000E-03 0.  1.
</event>
<event>
 8    1  0.1030163E+005  0.1043930E+01  0.7957747E-01            NaN
         13   -1    0    0    0    0  0.00000000000E+00  0.00000000000E+00  0.74505805969E-08  0.10566000000E+00  0.10566000000E+00 0. -1.
     999900   -1    0    0    0    0 -0.00000000000E+00 -0.00000000000E+00 -0.74505805969E-08  0.93827000000E+00  0.93827000000E+00 0.  1.
     999902    2    1    2    0    0  0.11279100010E-01 -0.49451382570E-02  0.20896806226E-01  0.10196740935E+01  0.10193855541E+01 0.  0.
     999903    2    3    3    0    0 -0.21963932896E-01 -0.10290398965E-01  0.12867948572E+00  0.13245891270E+00  0.19966142589E-01 0.  0.
         14    1    1    2    0    0 -0.11279100010E-01  0.49451382570E-02 -0.20896806226E-01  0.24255906495E-01  0.00000000000E+00 0.  1.
     999901    1    3    3    0    0  0.33243032906E-01  0.53452607076E-02 -0.10778267949E+00  0.88721518080E+00  0.88000000000E+00 0.  1.
        -11    1    4    4    0    0 -0.11565121314E-01 -0.96489784405E-02  0.11030749554E+00  0.11133220338E+00  0.51100000000E-03 0. -1.
         11    1    4    4    0    0 -0.10398811583E-01 -0.64142052406E-03  0.18371990177E-01  0.21126709319E-01  0.51100000000E-03 0.  1.
</event>
<event>
 8    1  0.1030163E+005  0.1043930E+01  0.7957747E-01            NaN
         13   -1    0    0    0    0  0.00000000000E+00  0.00000000000E+00  0.74505805969E-08  0.10566000000E+00  0.10566000000E+00 0.  1.
     999900   -1    0    0    0    0 -0.00000000000E+00 -0.00000000000E+00 -0.74505805969E-08  0.93827000000E+00  0.93827000000E+00 0.  1.
     999902    2    1    2    0    0  0.14295589596E-01  0.18227045361E-01  0.54576369758E-02  0.10201313684E+01  0.10198537316E+01 0.  0.
     999903    2    3    3    0    0  0.12602415633E+00  0.35619403660E-01 -0.79378775762E-02  0.13279535169E+00  0.20512572555E-01 0.  0.
         14    1    1    2    0    0 -0.14295589596E-01 -0.18227045361E-01 -0.54576369758E-02  0.23798631596E-01  0.00000000000E+00 0.  1.
     999901    1    3    3    0    0 -0.11172856674E+00 -0.17392358299E-01  0.13395514552E-01  0.88733601672E+00  0.88000000000E+00 0.  1.
        -11    1    4    4    0    0  0.39659766897E-02 -0.22421613974E-02 -0.15494193293E-02  0.48392230878E-02  0.51100000000E-03 0.  1.
         11    1    4    4    0    0  0.12205817964E+00  0.37861565057E-01 -0.63884582469E-02  0.12795612860E+00  0.51100000000E-03 0. -1.
</event>
<event>
 8    1  0.1030163E+005  0.1043930E+01  0.7957747E-01            NaN
         13   -1    0    0    0    0  0.00000000000E+00  0.00000000000E+00  0.74505805969E-08  0.10566000000E+00  0.10566000000E+00 0. -1.
     999900   -1    0    0    0    0 -0.00000000000E+00 -0.00000000000E+00 -0.74505805969E-08  0.93827000000E+00  0.93827000000E+00 0.  1.
     999902    2    1    2    0    0 -0.11252547539E-01 -0.17313549416E-01  0.42499608381E-02  0.10228482309E+01  0.10226309513E+01 0.  0.
     999903    2    3    3    0    0 -0.58763853709E-01 -0.18829392831E-01 -0.11632204062E+00  0.13335554995E+00  0.21098555226E-01 0.  0.
         14    1    1    2    0    0  0.11252547539E-01  0.17313549416E-01 -0.42499608381E-02  0.21081769058E-01  0.00000000000E+00 0.  1.
     999901    1    3    3    0    0  0.47511306171E-01  0.15158434143E-02  0.12057200146E+00  0.88949268099E+00  0.88000000000E+00 0. -1.
        -11    1    4    4    0    0 -0.13756323734E-01 -0.25113277085E-02 -0.47500264002E-01  0.49518475449E-01  0.51100000000E-03 0.  1.
         11    1    4    4    0    0 -0.45007529976E-01 -0.16318065122E-01 -0.68821776617E-01  0.83837074505E-01  0.51100000000E-03 0. -1.
</event>
<event>
 8    1  0.1030163E+005  0.1043930E+01  0.7957747E-01            NaN
         13   -1    0    0    0    0  0.00000000000E+00  0.00000000000E+00  0.74505805969E-08  0.10566000000E+00  0.10566000000E+00 0.  1.
     999900   -1    0    0    0    0 -0.00000000000E+00 -0.00000000000E+00 -0.74505805969E-08  0.93827000000E+00  0.93827000000E+00 0. -1.
     999902    2    1    2    0    0  0.82457627533E-02 -0.24009226264E-01 -0.34843233844E-02  0.10183062599E+01  0.10179838225E+01 0.  0.
     999903    2    3    3    0    0 -0.13455132535E-01 -0.10162800388E+00  0.79661966417E-01  0.13072025896E+00  0.15246817490E-01 0.  0.
         14    1    1    2    0    0 -0.82457627533E-02  0.24009226264E-01  0.34843233844E-02  0.25623740137E-01  0.00000000000E+00 0. -1.
     999901    1    3    3    0    0  0.21700895288E-01  0.77618777620E-01 -0.83146289801E-01  0.88758600091E+00  0.88000000000E+00 0. -1.
        -11    1    4    4    0    0 -0.10579732796E-01 -0.32362805131E-01  0.21928146449E-01  0.40501686751E-01  0.51100000000E-03 0.  1.
         11    1    4    4    0    0 -0.28753997390E-02 -0.69265198753E-01  0.57733819967E-01  0.90218572207E-01  0.51100000000E-03 0. -1.
</event>
<event>
 8    1  0.1030163E+005  0.1043930E+01  0.7957747E-01            NaN
         13   -1    0    0    0    0  0.00000000000E+00  0.00000000000E+00  0.74505805969E-08  0.10566000000E+00  0.10566000000E+00 0. -1.
     999900   -1    0    0    0    0 -0.00000000000E+00 -0.00000000000E+00 -0.74505805969E-08  0.93827000000E+00  0.93827000000E+00 0.  1.
     999902    2    1    2    0    0  0.17362608740E-01  0.25964212121E-02  0.12999306830E-01  0.10220854683E+01  0.10218520054E+01 0.  0.
     999903    2    3    3    0    0 -0.57692931799E-02  0.49680588258E-02  0.13204058878E+00  0.13376596706E+00  0.20016256041E-01 0.  0.
         14    1    1    2    0    0 -0.17362608740E-01 -0.25964212121E-02 -0.12999306830E-01  0.21844531660E-01  0.00000000000E+00 0.  1.
     999901    1    3    3    0    0  0.23131901920E-01 -0.23716376137E-02 -0.11904128195E+00  0.88831950128E+00  0.88000000000E+00 0.  1.
        -11    1    4    4    0    0 -0.87596985549E-02 -0.48918782040E-02  0.85943210363E-01  0.86528372917E-01  0.51100000000E-03 0. -1.
         11    1    4    4    0    0  0.29904053751E-02  0.98599370298E-02  0.46097378414E-01  0.47237594140E-01  0.51100000000E-03 0.  1.
</event>
<event>
 8    1  0.1030163E+005  0.1043930E+01  0.7957747E-01            NaN
         13   -1    0    0    0    0  0.00000000000E+00  0.00000000000E+00  0.74505805969E-08  0.10566000000E+00  0.10566000000E+00 0.  1.
     999900   -1    0    0    0    0 -0.00000000000E+00 -0.00000000000E+00 -0.74505805969E-08  0.93827000000E+00  0.93827000000E+00 0.  1.
     999902    2    1    2    0    0 -0.44122432848E-02  0.74243935722E-02 -0.21720619169E-01  0.10205553383E+01  0.10202876182E+01 0.  0.
     999903    2    3    3    0    0  0.98295733532E-01 -0.70187188343E-01  0.40662461773E-01  0.12900380593E+00  0.20006336725E-01 0.  0.
         14    1    1    2    0    0  0.44122432848E-02 -0.74243935722E-02  0.21720619169E-01  0.23374661662E-01  0.00000000000E+00 0.  1.
     999901    1    3    3    0    0 -0.10270797682E+00  0.77611581916E-01 -0.62383080942E-01  0.89155153241E+00  0.88000000000E+00 0.  1.
        -11    1    4    4    0    0  0.83523482976E-01 -0.59108083654E-01  0.26423832892E-01  0.10568073537E+00  0.51100000000E-03 0.  1.
         11    1    4    4    0    0  0.14772250556E-01 -0.11079104689E-01  0.14238628880E-01  0.23323070565E-01  0.51100000000E-03 0. -1.
</event>
<event>
 8    1  0.1030163E+005  0.1043930E+01  0.7957747E-01            NaN
         13   -1    0    0    0    0  0.00000000000E+00  0.00000000000E+00  0.74505805969E-08  0.10566000000E+00  0.10566000000E+00 0. -1.
     999900   -1    0    0    0    0 -0.00000000000E+00 -0.00000000000E+00 -0.74505805969E-08  0.93827000000E+00  0.93827000000E+00 0.  1.
     999902    2    1    2    0    0  0.14496719355E-01 -0.46447741543E-02 -0.17683229106E-01  0.10205970750E+01  0.10203303210E+01 0.  0.
     999903    2    3    3    0    0 -0.74903931761E-01  0.97982173080E-02 -0.10587381704E+00  0.13156464799E+00  0.19833996324E-01 0.  0.
         14    1    1    2    0    0 -0.14496719355E-01  0.46447741543E-02  0.17683229106E-01  0.23332925033E-01  0.00000000000E+00 0. -1.
     999901    1    3    3    0    0  0.89400651116E-01 -0.14442991462E-01  0.88190587931E-01  0.88903242698E+00  0.88000000000E+00 0. -1.
        -11    1    4    4    0    0 -0.49509223349E-01  0.10755316955E-01 -0.83667172396E-01  0.97812560018E-01  0.51100000000E-03 0. -1.
         11    1    4    4    0    0 -0.25394708412E-01 -0.95709964722E-03 -0.22206644641E-01  0.33752087969E-01  0.51100000000E-03 0.  1.
</event>
<event>
 8    1  0.1030163E+005  0.1043930E+01  0.7957747E-01            NaN
         13   -1    0    0    0    0  0.00000000000E+00  0.00000000000E+00  0.74505805969E-08  0.10566000000E+00  0.10566000000E+00 0.  1.
     999900   -1    0    0    0    0 -0.00000000000E+00 -0.00000000000E+00 -0.74505805969E-08  0.93827000000E+00  0.93827000000E+00 0.  1.
     999902    2    1    2    0    0  0.11192628183E-02  0.87291985512E-02 -0.21600658016E-01  0.10206053332E+01  0.10203387702E+01 0.  0.
     999903    2    3    3    0    0  0.11311372804E-01  0.11627382948E+00  0.55237694042E-01  0.13067620166E+00  0.19429777674E-01 0.  0.
         14    1    1    2    0    0 -0.11192628183E-02 -0.87291985512E-02  0.21600658016E-01  0.23324666843E-01  0.00000000000E+00 0.  1.
     999901    1    3    3    0    0 -0.10192109986E-01 -0.10754463093E+00 -0.76838352058E-01  0.88992913150E+00  0.88000000000E+00 0.  1.
        -11    1    4    4    0    0  0.35258140827E-02  0.80781274530E-02  0.94483358580E-02  0.12931344848E-01  0.51100000000E-03 0.  1.
         11    1    4    4    0    0  0.77855587216E-02  0.10819570202E+00  0.45789358184E-01  0.11774485681E+00  0.51100000000E-03 0. -1.
</event>
<event>
 8    1  0.1030163E+005  0.1043930E+01  0.7957747E-01            NaN
         13   -1    0    0    0    0  0.00000000000E+00  0.00000000000E+00  0.74505805969E-08  0.10566000000E+00  0.10566000000E+00 0.  1.
     999900   -1    0    0    0    0 -0.00000000000E+00 -0.00000000000E+00 -0.74505805969E-08  0.93827000000E+00  0.93827000000E+00 0. -1.
     999902    2    1    2    0    0  0.45132775761E-02  0.16215828286E-01  0.16236283927E-01  0.10205432585E+01  0.10202752584E+01 0.  0.
     999903    2    3    3    0    0  0.78964480803E-02 -0.53825360523E-02 -0.12678088226E+00  0.12872946349E+00  0.20163260574E-01 0.  0.
         14    1    1    2    0    0 -0.45132775761E-02 -0.16215828286E-01 -0.16236283927E-01  0.23386741484E-01  0.00000000000E+00 0. -1.
     999901    1    3    3    0    0 -0.33831705042E-02  0.21598364338E-01  0.14301716618E+00  0.89181379503E+00  0.88000000000E+00 0.  1.
        -11    1    4    4    0    0  0.77223312575E-02  0.66207930679E-02 -0.64663951002E-01  0.65461110448E-01  0.51100000000E-03 0.  1.
         11    1    4    4    0    0  0.17411682280E-03 -0.12003329120E-01 -0.62116931254E-01  0.63268353037E-01  0.51100000000E-03 0. -1.
</event>
<event>
 8    1  0.1030163E+005  0.1043930E+01  0.7957747E-01            NaN
         13   -1    0    0    0    0  0.00000000000E+00  0.00000000000E+00  0.74505805969E-08  0.10566000000E+00  0.10566000000E+00 0.  1.
     999900   -1    0    0    0    0 -0.00000000000E+00 -0.00000000000E+00 -0.74505805969E-08  0.93827000000E+00  0.93827000000E+00 0.  1.
     999902    2    1    2    0    0  0.42878432530E-02  0.42656734502E-02  0.15605434272E-01  0.10271934786E+01  0.10270571217E+01 0.  0.
     999903    2    3    3    0    0 -0.15611798883E-01  0.74694124375E-01  0.11412174099E+00  0.13867694800E+00  0.19610804676E-01 0.  0.
         14    1    1    2    0    0 -0.42878432530E-02 -0.42656734502E-02 -0.15605434272E-01  0.16736521400E-01  0.00000000000E+00 0. -1.
     999901    1    3    3    0    0  0.19899642136E-01 -0.70428450925E-01 -0.98516306718E-01  0.88851653060E+00  0.88000000000E+00 0.  1.
        -11    1    4    4    0    0 -0.12519599458E-01  0.73859442935E-01  0.10491919325E+00  0.12891957149E+00  0.51100000000E-03 0. -1.
         11    1    4    4    0    0 -0.30921994256E-02  0.83468144053E-03  0.92025477407E-02  0.97573765078E-02  0.51100000000E-03 0.  1.
</event>
<event>
 8    1  0.1030163E+005  0.1043930E+01  0.7957747E-01            NaN
         13   -1    0    0    0    0  0.00000000000E+00  0.00000000000E+00  0.74505805969E-08  0.10566000000E+00  0.10566000000E+00 0.  1.
     999900   -1    0    0    0    0 -0.00000000000E+00 -0.00000000000E+00 -0.74505805969E-08  0.93827000000E+00  0.93827000000E+00 0. -1.
     999902    2    1    2    0    0  0.14208120311E-01  0.39991823464E-02  0.18266064328E-01  0.10204456808E+01  0.10201754135E+01 0.  0.
     999903    2    3    3    0    0  0.60227191099E-01  0.14003154843E-01  0.11673380186E+00  0.13370235284E+00  0.20643056146E-01 0.  0.
         14    1    1    2    0    0 -0.14208120311E-01 -0.39991823464E-02 -0.18266064328E-01  0.23484319199E-01  0.00000000000E+00 0.  1.
     999901    1    3    3    0    0 -0.46019070788E-01 -0.10003972496E-01 -0.98467737528E-01  0.88674332796E+00  0.88000000000E+00 0. -1.
        -11    1    4    4    0    0  0.40937309713E-01 -0.58999116516E-03  0.70815321370E-01  0.81800258422E-01  0.51100000000E-03 0. -1.
         11    1    4    4    0    0  0.19289881386E-01  0.14593146008E-01  0.45918480486E-01  0.51902094422E-01  0.51100000000E-03 0.  1.
</event>
<event>
 8    1  0.1030163E+005  0.1043930E+01  0.7957747E-01            NaN
         13   -1    0    0    0    0  0.00000000000E+00  0.00000000000E+00  0.74505805969E-08  0.10566000000E+00  0.10566000000E+00 0.  1.
     999900   -1    0    0    0    0 -0.00000000000E+00 -0.00000000000E+00 -0.74505805969E-08  0.93827000000E+00  0.93827000000E+00 0. -1.
     999902    2    1    2    0    0  0.11127655810E-01 -0.19250790739E-01  0.95394468101E-02  0.10197345725E+01  0.10194474874E+01 0.  0.
     999903    2    3    3    0    0 -0.20214498929E-01  0.17570276192E-01  0.12674977469E+00  0.13064718498E+00  0.16906832521E-01 0.  0.
         14    1    1    2    0    0 -0.11127655810E-01  0.19250790739E-01 -0.95394468101E-02  0.24195427530E-01  0.00000000000E+00 0. -1.
     999901    1    3    3    0    0  0.31342154738E-01 -0.36821066931E-01 -0.11721032788E+00  0.88908738749E+00  0.88000000000E+00 0. -1.
        -11    1    4    4    0    0 -0.78086339877E-02  0.22170814364E-02  0.71766150212E-01  0.72225560933E-01  0.51100000000E-03 0.  1.
         11    1    4    4    0    0 -0.12405864941E-01  0.15353194755E-01  0.54983624481E-01  0.58421624046E-01  0.51100000000E-03 0. -1.
</event>
<event>
 8    1  0.1030163E+005  0.1043930E+01  0.7957747E-01            NaN
         13   -1    0    0    0    0  0.00000000000E+00  0.00000000000E+00  0.74505805969E-08  0.10566000000E+00  0.10566000000E+00 0.  1.
     999900   -1    0    0    0    0 -0.00000000000E+00 -0.00000000000E+00 -0.74505805969E-08  0.93827000000E+00  0.93827000000E+00 0. -1.
     999902    2    1    2    0    0  0.11838567768E-01 -0.17808050098E-01 -0.59138391096E-02  0.10217432511E+01  0.10215023344E+01 0.  0.
     999903    2    3    3    0    0  0.12590518196E+00  0.55105218553E-02 -0.39095300892E-01  0.13345503339E+00  0.19983060055E-01 0.  0.
         14    1    1    2    0    0 -0.11838567768E-01  0.17808050098E-01  0.59138391096E-02  0.22186748930E-01  0.00000000000E+00 0.  1.
     999901    1    3    3    0    0 -0.11406661419E+00 -0.23318571953E-01  0.33181461783E-01  0.88828821768E+00  0.88000000000E+00 0.  1.
        -11    1    4    4    0    0  0.93622210345E-01 -0.28159796658E-02 -0.34397868745E-01  0.99782375731E-01  0.51100000000E-03 0.  1.
         11    1    4    4    0    0  0.32282971612E-01  0.83265015211E-02 -0.46974321474E-02  0.33672657654E-01  0.51100000000E-03 0. -1.
</event>
<event>
 8    1  0.1030163E+005  0.1043930E+01  0.7957747E-01            NaN
         13   -1    0    0    0    0  0.00000000000E+00  0.00000000000E+00  0.74505805969E-08  0.10566000000E+00  0.10566000000E+00 0.  1.
     999900   -1    0    0    0    0 -0.00000000000E+00 -0.00000000000E+00 -0.74505805969E-08  0.93827000000E+00  0.93827000000E+00 0. -1.
     999902    2    1    2    0    0  0.14308549232E-01  0.18307268912E-01 -0.49595879911E-02  0.10201710398E+01  0.10198943388E+01 0.  0.
     999903    2    3    3    0    0 -0.79887994403E-01  0.52713304169E-01  0.85497039170E-01  0.12986818938E+00  0.19880111151E-01 0.  0.
         14    1    1    2    0    0 -0.14308549232E-01 -0.18307268912E-01  0.49595879911E-02  0.23758960187E-01  0.00000000000E+00 0.  1.
     999901    1    3    3    0    0  0.94196543635E-01 -0.34406035258E-01 -0.90456627161E-01  0.89030285043E+00  0.88000000000E+00 0. -1.
        -11    1    4    4    0    0 -0.32379007671E-01  0.21703123425E-01  0.48109356459E-01  0.61920893114E-01  0.51100000000E-03 0.  1.
         11    1    4    4    0    0 -0.47508986732E-01  0.31010180744E-01  0.37387682711E-01  0.67947296264E-01  0.51100000000E-03 0. -1.
</event>
<event>
 8    1  0.1030163E+005  0.1043930E+01  0.7957747E-01            NaN
         13   -1    0    0    0    0  0.00000000000E+00  0.00000000000E+00  0.74505805969E-08  0.10566000000E+00  0.10566000000E+00 0. -1.
     999900   -1    0    0    0    0 -0.00000000000E+00 -0.00000000000E+00 -0.74505805969E-08  0.93827000000E+00  0.93827000000E+00 0.  1.
     999902    2    1    2    0    0 -0.14170390348E-01  0.19306570463E-02 -0.14463910854E-01  0.10235895940E+01  0.10233874754E+01 0.  0.
     999903    2    3    3    0    0 -0.30257382738E-01  0.11268080232E+00  0.61138434055E-01  0.13328621842E+00  0.20367510421E-01 0.  0.
         14    1    1    2    0    0  0.14170390348E-01 -0.19306570463E-02  0.14463910854E-01  0.20340406004E-01  0.00000000000E+00 0. -1.
     999901    1    3    3    0    0  0.16086992390E-01 -0.11075014527E+00 -0.75602344909E-01  0.89030337557E+00  0.88000000000E+00 0.  1.
        -11    1    4    4    0    0 -0.29319155532E-01  0.90969104431E-01  0.56597817709E-01  0.11107909314E+00  0.51100000000E-03 0. -1.
         11    1    4    4    0    0 -0.93822720568E-03  0.21711697890E-01  0.45406163458E-02  0.22207125283E-01  0.51100000000E-03 0.  1.
</event>
<event>
 8    1  0.1030163E+005  0.1043930E+01  0.7957747E-01            NaN
         13   -1    0    0    0    0  0.00000000000E+00  0.00000000000E+00  0.74505805969E-08  0.10566000000E+00  0.10566000000E+00 0. -1.
     999900   -1    0    0    0    0 -0.00000000000E+00 -0.00000000000E+00 -0.74505805969E-08  0.93827000000E+00  0.93827000000E+00 0. -1.
     999902    2    1    2    0    0  0.43667506392E-02  0.13917523791E-01  0.17376529969E-01  0.10212427839E+01  0.10209907512E+01 0.  0.
     999903    2    3    3    0    0 -0.26093940740E-01 -0.26275693441E-01 -0.12179481559E+00  0.12887962250E+00  0.20116515172E-01 0.  0.
         14    1    1    2    0    0 -0.43667506392E-02 -0.13917523791E-01 -0.17376529969E-01  0.22687216078E-01  0.00000000000E+00 0.  1.
     999901    1    3    3    0    0  0.30460691379E-01  0.40193217232E-01  0.13917134556E+00  0.89236316142E+00  0.88000000000E+00 0.  1.
        -11    1    4    4    0    0 -0.84870352383E-02 -0.16232099401E-01 -0.32482782450E-01  0.37294813243E-01  0.51100000000E-03 0. -1.
         11    1    4    4    0    0 -0.17606905501E-01 -0.10043594040E-01 -0.89312033141E-01  0.91584809261E-01  0.51100000000E-03 0.  1.
</event>
<event>
 8    1  0.1030163E+005  0.1043930E+01  0.7957747E-01            NaN
         13   -1    0    0    0    0  0.00000000000E+00  0.00000000000E+00  0.74505805969E-08  0.10566000000E+00  0.10566000000E+00 0. -1.
     999900   -1    0    0    0    0 -0.00000000000E+00 -0.00000000000E+00 -0.74505805969E-08  0.93827000000E+00  0.93827000000E+00 0. -1.
     999902    2    1    2    0    0  0.21735957514E-01  0.11067995357E-01  0.23279045678E-02  0.10194275203E+01  0.10191330128E+01 0.  0.
     999903    2    3    3    0    0 -0.71276972167E-01 -0.44204558548E-01 -0.94122212681E-01  0.12757042112E+00  0.19513371466E-01 0.  0.
         14    1    1    2    0    0 -0.21735957514E-01 -0.11067995357E-01 -0.23279045678E-02  0.24502479669E-01  0.00000000000E+00 0.  1.
     999901    1    3    3    0    0  0.93012929681E-01  0.55272553905E-01  0.96450117249E-01  0.89185709922E+00  0.88000000000E+00 0.  1.
        -11    1    4    4    0    0 -0.10498490957E-01 -0.66157854684E-02 -0.26118573320E-01  0.28921063656E-01  0.51100000000E-03 0.  1.
         11    1    4    4    0    0 -0.60778481210E-01 -0.37588773079E-01 -0.68003639361E-01  0.98649357460E-01  0.51100000000E-03 0. -1.
</event>
<event>
 8    1  0.1030163E+005  0.1043930E+01  0.7957747E-01            NaN
         13   -1    0    0    0    0  0.00000000000E+00  0.00000000000E+00  0.74505805969E-08  0.10566000000E+00  0.10566000000E+00 0. -1.
     999900   -1    0    0    0    0 -0.00000000000E+00 -0.00000000000E+00 -0.74505805969E-08  0.93827000000E+00  0.93827000000E+00 0. -1.
     999902    2    1    2    0    0  0.56048420422E-02  0.23705311955E-02 -0.20780037238E-01  0.10222772030E+01  0.10220478639E+01 0.  0.
     999903    2    3    3    0    0 -0.79270763286E-02 -0.11914385971E+00  0.49884733549E-01  0.13101833492E+00  0.20474852805E-01 0.  0.
         14    1    1    2    0    0 -0.56048420422E-02 -0.23705311955E-02  0.20780037238E-01  0.21652797050E-01  0.00000000000E+00 0. -1.
     999901    1    3    3    0    0  0.13531918371E-01  0.12151439091E+00 -0.70664770787E-01  0.89125886803E+00  0.88000000000E+00 0.  1.
        -11    1    4    4    0    0  0.62848857054E-03 -0.32588346766E-01  0.44900339199E-02  0.32906182829E-01  0.51100000000E-03 0. -1.
         11    1    4    4    0    0 -0.85555648991E-02 -0.86555512947E-01  0.45394699629E-01  0.98112152090E-01  0.51100000000E-03 0.  1.
</event>
<event>
 8    1  0.1030163E+005  0.1043930E+01  0.7957747E-01            NaN
         13   -1    0    0    0    0  0.00000000000E+00  0.00000000000E+00  0.74505805969E-08  0.10566000000E+00  0.10566000000E+00 0.  1.
     999900   -1    0    0    0    0 -0.00000000000E+00 -0.00000000000E+00 -0.74505805969E-08  0.93827000000E+00  0.93827000000E+00 0. -1.
     999902    2    1    2    0    0  0.90668698044E-03  0.22615355069E-01 -0.73218916944E-02  0.10201416317E+01  0.10198642372E+01 0.  0.
     999903    2    3    3    0    0  0.48707690917E-01 -0.98486885718E-01  0.62475449474E-01  0.12782870595E+00  0.19102106329E-01 0.  0.
         14    1    1    2    0    0 -0.90668698044E-03 -0.22615355069E-01  0.73218916944E-02  0.23788368254E-01  0.00000000000E+00 0. -1.
     999901    1    3    3    0    0 -0.47801003937E-01  0.12110224079E+00 -0.69797341168E-01  0.89231292579E+00  0.88000000000E+00 0. -1.
        -11    1    4    4    0    0  0.21751941304E-01 -0.28256229234E-01  0.13870798354E-01  0.38265148752E-01  0.51100000000E-03 0. -1.
         11    1    4    4    0    0  0.26955749613E-01 -0.70230656484E-01  0.48604651120E-01  0.89563557203E-01  0.51100000000E-03 0.  1.
</event>
<event>
 8    1  0.1030163E+005  0.1043930E+01  0.7957747E-01            NaN
         13   -1    0    0    0    0  0.00000000000E+00  0.00000000000E+00  0.74505805969E-08  0.10566000000E+00  0.10566000000E+00 0.  1.
     999900   -1    0    0    0    0 -0.00000000000E+00 -0.00000000000E+00 -0.74505805969E-08  0.93827000000E+00  0.93827000000E+00 0.  1.
     999902    2    1    2    0    0  0.13427854844E-01 -0.83793367686E-03  0.17006748723E-01  0.10222450070E+01  0.10220149781E+01 0.  0.
     999903    2    3    3    0    0  0.13131752304E+00  0.13863095132E-01 -0.93583808695E-02  0.13387052845E+00  0.19931428170E-01 0.  0.
         14    1    1    2    0    0 -0.13427854844E-01  0.83793367686E-03 -0.17006748723E-01  0.21684992983E-01  0.00000000000E+00 0. -1.
     999901    1    3    3    0    0 -0.11788966820E+00 -0.14701028809E-01  0.26365129592E-01  0.88837447857E+00  0.88000000000E+00 0. -1.
        -11    1    4    4    0    0  0.11199921880E+00  0.87492870435E-02 -0.14382766042E-01  0.11325855427E+00  0.51100000000E-03 0.  1.
         11    1    4    4    0    0  0.19318304248E-01  0.51138080886E-02  0.50243851727E-02  0.20611974179E-01  0.51100000000E-03 0. -1.
</event>
<event>
 8    1  0.1030163E+005  0.1043930E+01  0.7957747E-01            NaN
         13   -1    0    0    0    0  0.00000000000E+00  0.00000000000E+00  0.74505805969E-08  0.10566000000E+00  0.10566000000E+00 0. -1.
     999900   -1    0    0    0    0 -0.00000000000E+00 -0.00000000000E+00 -0.74505805969E-08  0.93827000000E+00  0.93827000000E+00 0.  1.
     999902    2    1    2    0    0  0.14933874440E-01 -0.70366135063E-03  0.18505066460E-01  0.10201402285E+01  0.10198628008E+01 0.  0.
     999903    2    3    3    0    0 -0.11764223270E+00 -0.43302184991E-01 -0.18806022750E-01  0.12840978950E+00  0.20509349257E-01 0.  0.
         14    1    1    2    0    0 -0.14933874440E-01  0.70366135063E-03 -0.18505066460E-01  0.23789771537E-01  0.00000000000E+00 0.  1.
     999901    1    3    3    0    0  0.13257610714E+00  0.42598523640E-01  0.37311089210E-01  0.89173043897E+00  0.88000000000E+00 0.  1.
        -11    1    4    4    0    0 -0.80408865555E-01 -0.19814586328E-01 -0.15557963766E-01  0.84264552742E-01  0.51100000000E-03 0. -1.
         11    1    4    4    0    0 -0.37233367146E-01 -0.23487598663E-01 -0.32480589844E-02  0.44145236755E-01  0.51100000000E-03 0.  1.
</event>
<event>
 8    1  0.1030163E+005  0.1043930E+01  0.7957747E-01            NaN
         13   -1    0    0    0    0  0.00000000000E+00  0.00000000000E+00  0.74505805969E-08  0.10566000000E+00  0.10566000000E+00 0. -1.
     999900   -1    0    0    0    0 -0.00000000000E+00 -0.00000000000E+00 -0.74505805969E-08  0.93827000000E+00  0.93827000000E+00 0.  1.
     999902    2    1    2    0    0 -0.58678980138E-02  0.52142292256E-02 -0.23261841580E-01  0.10193793648E+01  0.10190836844E+01 0.  0.
     999903    2    3    3    0    0  0.25209387115E-01  0.10605646434E+00  0.65236215751E-01  0.12866792997E+00  0.20400625773E-01 0.  0.
         14    1    1    2    0    0  0.58678980138E-02 -0.52142292256E-02  0.23261841580E-01  0.24550635170E-01  0.00000000000E+00 0. -1.
     999901    1    3    3    0    0 -0.31077285129E-01 -0.10084223511E+00 -0.88498057331E-01  0.89071143486E+00  0.88000000000E+00 0.  1.
        -11    1    4    4    0    0  0.72061654843E-02  0.42530769538E-01  0.14901972080E-01  0.45641265006E-01  0.51100000000E-03 0. -1.
         11    1    4    4    0    0  0.18003221631E-01  0.63525694799E-01  0.50334243671E-01  0.83026664967E-01  0.51100000000E-03 0.  1.
</event>
<event>
 8    1  0.1030163E+005  0.1043930E+01  0.7957747E-01            NaN
         13   -1    0    0    0    0  0.00000000000E+00  0.00000000000E+00  0.74505805969E-08  0.10566000000E+00  0.10566000000E+00 0.  1.
     999900   -1    0    0    0    0 -0.00000000000E+00 -0.00000000000E+00 -0.74505805969E-08  0.93827000000E+00  0.93827000000E+00 0. -1.
     999902    2    1    2    0    0 -0.17565107173E-01 -0.68663543456E-02  0.14262315186E-01  0.10202848431E+01  0.10200108174E+01 0.  0.
     999903    2    3    3    0    0 -0.88725746497E-01  0.18228414689E-01  0.95458469278E-01  0.13333140603E+00  0.21457196572E-01 0.  0.
         14    1    1    2    0    0  0.17565107173E-01  0.68663543456E-02 -0.14262315186E-01  0.23645156935E-01  0.00000000000E+00 0. -1.
     999901    1    3    3    0    0  0.71160639325E-01 -0.25094769035E-01 -0.81196154091E-01  0.88695343703E+00  0.88000000000E+00 0. -1.
        -11    1    4    4    0    0 -0.55094440365E-02 -0.13311760655E-02  0.14571064434E-01  0.15642987024E-01  0.51100000000E-03 0.  1.
         11    1    4    4    0    0 -0.83216302461E-01  0.19559590755E-01  0.80887404844E-01  0.11768841901E+00  0.51100000000E-03 0. -1.
</event>
<event>
 8    1  0.1030163E+005  0.1043930E+01  0.7957747E-01            NaN
         13   -1    0    0    0    0  0.00000000000E+00  0.00000000000E+00  0.74505805969E-08  0.10566000000E+00  0.10566000000E+00 0.  1.
     999900   -1    0    0    0    0 -0.00000000000E+00 -0.00000000000E+00 -0.74505805969E-08  0.93827000000E+00  0.93827000000E+00 0.  1.
     999902    2    1    2    0    0  0.16759768254E-01 -0.92947145482E-02  0.14721174565E-01  0.10197640212E+01  0.10194776429E+01 0.  0.
     999903    2    3    3    0    0 -0.81320776310E-01 -0.47446113945E-01  0.88754022986E-01  0.13040684597E+00  0.16262425763E-01 0.  0.
         14    1    1    2    0    0 -0.16759768254E-01  0.92947145482E-02 -0.14721174565E-01  0.24165978793E-01  0.00000000000E+00 0. -1.
     999901    1    3    3    0    0  0.98080544564E-01  0.38151399397E-01 -0.74032848421E-01  0.88935717524E+00  0.88000000000E+00 0.  1.
        -11    1    4    4    0    0 -0.46504436163E-01 -0.35924060790E-01  0.57541775473E-01  0.82246688517E-01  0.51100000000E-03 0.  1.
         11    1    4    4    0    0 -0.34816340147E-01 -0.11522053155E-01  0.31212247514E-01  0.48160157454E-01  0.51100000000E-03 0. -1.
</event>
<event>
 8    1  0.1030163E+005  0.1043930E+01  0.7957747E-01            NaN
         13   -1    0    0    0    0  0.00000000000E+00  0.00000000000E+00  0.74505805969E-08  0.10566000000E+00  0.10566000000E+00 0. -1.
     999900   -1    0    0    0    0 -0.00000000000E+00 -0.00000000000E+00 -0.74505805969E-08  0.93827000000E+00  0.93827000000E+00 0. -1.
     999902    2    1    2    0    0  0.24211741645E-02 -0.19490024008E-01  0.96942538600E-02  0.10220279070E+01  0.10217931987E+01 0.  0.
     999903    2    3    3    0    0 -0.37770974172E-01  0.11392083954E+00 -0.44390644101E-01  0.12942550755E+00  0.19386298002E-01 0.  0.
         14    1    1    2    0    0 -0.24211741645E-02  0.19490024008E-01 -0.96942538600E-02  0.21902093007E-01  0.00000000000E+00 0. -1.
     999901    1    3    3    0    0  0.40192148337E-01 -0.13341086355E+00  0.54084897961E-01  0.89260239944E+00  0.88000000000E+00 0.  1.
        -11    1    4    4    0    0 -0.39017329800E-01  0.96849532054E-01 -0.39217699890E-01  0.11153686830E+00  0.51100000000E-03 0. -1.
         11    1    4    4    0    0  0.12463556274E-02  0.17071307485E-01 -0.51729442111E-02  0.17888639256E-01  0.51100000000E-03 0.  1.
</event>
<event>
 8    1  0.1030163E+005  0.1043930E+01  0.7957747E-01            NaN
         13   -1    0    0    0    0  0.00000000000E+00  0.00000000000E+00  0.74505805969E-08  0.10566000000E+00  0.10566000000E+00 0.  1.
     999900   -1    0    0    0    0 -0.00000000000E+00 -0.00000000000E+00 -0.74505805969E-08  0.93827000000E+00  0.93827000000E+00 0.  1.
     999902    2    1    2    0    0 -0.98459683169E-02  0.11011375922E-01  0.18289436846E-01  0.10204204915E+01  0.10201496373E+01 0.  0.
     999903    2    3    3    0    0 -0.11239309880E+00  0.32010428929E-01  0.60943812959E-01  0.13319094393E+00  0.19204244031E-01 0.  0.
         14    1    1    2    0    0  0.98459683169E-02 -0.11011375922E-01 -0.18289436846E-01  0.23509508543E-01  0.00000000000E+00 0. -1.
     999901    1    3    3    0    0  0.10254713049E+00 -0.20999053006E-01 -0.42654376113E-01  0.88722954752E+00  0.88000000000E+00 0. -1.
        -11    1    4    4    0    0 -0.20811213188E-01 -0.13329717198E-02  0.12924274185E-01  0.24539384511E-01  0.51100000000E-03 0.  1.
         11    1    4    4    0    0 -0.91581885615E-01  0.33343400649E-01  0.48019538774E-01  0.10865155942E+00  0.51100000000E-03 0. -1.
</event>
<event>
 8    1  0.1030163E+005  0.1043930E+01  0.7957747E-01            NaN
         13   -1    0    0    0    0  0.00000000000E+00  0.00000000000E+00  0.74505805969E-08  0.10566000000E+00  0.10566000000E+00 0. -1.
     999900   -1    0    0    0    0 -0.00000000000E+00 -0.00000000000E+00 -0.74505805969E-08  0.93827000000E+00  0.93827000000E+00 0. -1.
     999902    2    1    2    0    0 -0.50899993021E-02 -0.75113849429E-02  0.20516338703E-01  0.10214967847E+01  0.10212504257E+01 0.  0.
     999903    2    3    3    0    0 -0.42386016815E-02  0.12091541410E+00 -0.42727994657E-01  0.12992849603E+00  0.20426195029E-01 0.  0.
         14    1    1    2    0    0  0.50899993021E-02  0.75113849429E-02 -0.20516338703E-01  0.22433215338E-01  0.00000000000E+00 0.  1.
     999901    1    3    3    0    0 -0.85139762059E-03 -0.12842679904E+00  0.63244333360E-01  0.89156828863E+00  0.88000000000E+00 0.  1.
        -11    1    4    4    0    0 -0.10335562009E-01  0.62754531336E-01 -0.28757155874E-01  0.69801075781E-01  0.51100000000E-03 0.  1.
         11    1    4    4    0    0  0.60969603272E-02  0.58160882760E-01 -0.13970838783E-01  0.60127420250E-01  0.51100000000E-03 0. -1.
</event>
<event>
 8    1  0.1030163E+005  0.1043930E+01  0.7957747E-01            NaN
         13   -1    0    0    0    0  0.00000000000E+00  0.00000000000E+00  0.74505805969E-08  0.10566000000E+00  0.10566000000E+00 0. -1.
     999900   -1    0    0    0    0 -0.00000000000E+00 -0.00000000000E+00 -0.74505805969E-08  0.93827000000E+00  0.93827000000E+00 0. -1.
     999902    2    1    2    0    0  0.14185025848E-01  0.19350137151E-01 -0.33211986706E-02  0.10197086638E+01  0.10194209562E+01 0.  0.
     999903    2    3    3    0    0 -0.64661129065E-01  0.91617884631E-01 -0.64965437547E-01  0.13109212353E+00  0.19741792740E-01 0.  0.
         14    1    1    2    0    0 -0.14185025848E-01 -0.19350137151E-01  0.33211986706E-02  0.24221336187E-01  0.00000000000E+00 0. -1.
     999901    1    3    3    0    0  0.78846154913E-01 -0.72267747480E-01  0.61644238877E-01  0.88861654028E+00  0.88000000000E+00 0. -1.
        -11    1    4    4    0    0 -0.47092835545E-01  0.76740211438E-01 -0.45211298973E-01  0.10075275623E+00  0.51100000000E-03 0. -1.
         11    1    4    4    0    0 -0.17568293521E-01  0.14877673193E-01 -0.19754138574E-01  0.30339367309E-01  0.51100000000E-03 0.  1.
</event>
<event>
 8    1  0.1030163E+005  0.1043930E+01  0.7957747E-01            NaN
         13   -1    0    0    0    0  0.00000000000E+00  0.00000000000E+00  0.74505805969E-08  0.10566000000E+00  0.10566000000E+00 0.  1.
     999900   -1    0    0    0    0 -0.00000000000E+00 -0.00000000000E+00 -0.74505805969E-08  0.93827000000E+00  0.93827000000E+00 0. -1.
     999902    2    1    2    0    0  0.21059861773E-01  0.14466577725E-02 -0.10041945232E-01  0.10205537030E+01  0.10202859450E+01 0.  0.
     999903    2    3    3    0    0 -0.61290993549E-01 -0.11151260863E+00 -0.13339206264E-01  0.12951367520E+00  0.20104971194E-01 0.  0.
         14    1    1    2    0    0 -0.21059861773E-01 -0.14466577725E-02  0.10041945232E-01  0.23376296983E-01  0.00000000000E+00 0.  1.
     999901    1    3    3    0    0  0.82350855322E-01  0.11295926640E+00  0.32972610317E-02  0.89104002782E+00  0.88000000000E+00 0. -1.
        -11    1    4    4    0    0 -0.11310610762E-01 -0.32355844648E-01  0.32690866537E-02  0.34435136812E-01  0.51100000000E-03 0. -1.
         11    1    4    4    0    0 -0.49980382787E-01 -0.79156763982E-01 -0.16608292918E-01  0.95078538390E-01  0.51100000000E-03 0.  1.
</event>
<event>
 8    1  0.1030163E+005  0.1043930E+01  0.7957747E-01            NaN
         13   -1    0    0    0    0  0.00000000000E+00  0.00000000000E+00  0.74505805969E-08  0.10566000000E+00  0.10566000000E+00 0.  1.
     999900   -1    0    0    0    0 -0.00000000000E+00 -0.00000000000E+00 -0.74505805969E-08  0.93827000000E+00  0.93827000000E+00 0.  1.
     999902    2    1    2    0    0  0.22592010489E-01 -0.32829194126E-02  0.50668300724E-02  0.10205451916E+01  0.10202772362E+01 0.  0.
     999903    2    3    3    0    0 -0.10161633502E+00  0.58825386804E-01  0.49261866516E-01  0.12855956611E+00  0.17734849070E-01 0.  0.
         14    1    1    2    0    0 -0.22592010489E-01  0.32829194126E-02 -0.50668300724E-02  0.23384808419E-01  0.00000000000E+00 0. -1.
     999901    1    3    3    0    0  0.12420834551E+00 -0.62108306217E-01 -0.44195036444E-01  0.89198562547E+00  0.88000000000E+00 0.  1.
        -11    1    4    4    0    0 -0.19708639965E-01  0.16371920820E-01  0.17312661189E-01  0.30926681668E-01  0.51100000000E-03 0. -1.
         11    1    4    4    0    0 -0.81907695053E-01  0.42453465984E-01  0.31949205328E-01  0.97632884445E-01  0.51100000000E-03 0.  1.
</event>
<event>
 8    1  0.1030163E+005  0.1043930E+01  0.7957747E-01            NaN
         13   -1    0    0    0    0  0.00000000000E+00  0.00000000000E+00  0.74505805969E-08  0.10566000000E+00  0.10566000000E+00 0.  1.
     999900   -1    0    0    0    0 -0.00000000000E+00 -0.00000000000E+00 -0.74505805969E-08  0.93827000000E+00  0.93827000000E+00 0.  1.
     999902    2    1    2    0    0  0.93221951361E-02  0.18052865246E-01 -0.44001300597E-02  0.10231412913E+01  0.10229300717E+01 0.  0.
     999903    2    3    3    0    0  0.10736147854E+00  0.79094415482E-01 -0.99767383667E-02  0.13557784538E+00  0.22347331249E-01 0.  0.
         14    1    1    2    0    0 -0.93221951361E-02 -0.18052865246E-01  0.44001300597E-02  0.20788708721E-01  0.00000000000E+00 0. -1.
     999901    1    3    3    0    0 -0.98039283402E-01 -0.61041550236E-01  0.55766083070E-02  0.88756344590E+00  0.88000000000E+00 0. -1.
        -11    1    4    4    0    0  0.66821647597E-01  0.60447560022E-01 -0.12999972745E-02  0.90116542400E-01  0.51100000000E-03 0. -1.
         11    1    4    4    0    0  0.40539830940E-01  0.18646855460E-01 -0.86767410922E-02  0.45461302975E-01  0.51100000000E-03 0.  1.
</event>
<event>
 8    1  0.1030163E+005  0.1043930E+01  0.7957747E-01            NaN
         13   -1    0    0    0    0  0.00000000000E+00  0.00000000000E+00  0.74505805969E-08  0.10566000000E+00  0.10566000000E+00 0. -1.
     999900   -1    0    0    0    0 -0.00000000000E+00 -0.00000000000E+00 -0.74505805969E-08  0.93827000000E+00  0.93827000000E+00 0.  1.
     999902    2    1    2    0    0  0.18684703001E-01  0.18941040531E-02  0.14781578233E-01  0.10200301922E+01  0.10197501617E+01 0.  0.
     999903    2    3    3    0    0 -0.58658232108E-01  0.11062588826E+00 -0.24176555771E-01  0.12911927260E+00  0.20209041587E-01 0.  0.
         14    1    1    2    0    0 -0.18684703001E-01 -0.18941040531E-02 -0.14781578233E-01  0.23899807771E-01  0.00000000000E+00 0.  1.
     999901    1    3    3    0    0  0.77342935109E-01 -0.10873178420E+00  0.38958134004E-01  0.89091091963E+00  0.88000000000E+00 0. -1.
        -11    1    4    4    0    0 -0.43855428795E-01  0.91834423644E-01 -0.26255161311E-01  0.10510211519E+00  0.51100000000E-03 0. -1.
         11    1    4    4    0    0 -0.14802803313E-01  0.18791464612E-01  0.20786055404E-02  0.24017157412E-01  0.51100000000E-03 0.  1.
</event>
<event>
 8    1  0.1030163E+005  0.1043930E+01  0.7957747E-01            NaN
         13   -1    0    0    0    0  0.00000000000E+00  0.00000000000E+00  0.74505805969E-08  0.10566000000E+00  0.10566000000E+00 0.  1.
     999900   -1    0    0    0    0 -0.00000000000E+00 -0.00000000000E+00 -0.74505805969E-08  0.93827000000E+00  0.93827000000E+00 0. -1.
     999902    2    1    2    0    0  0.21468622979E-01  0.40137266970E-02 -0.89294604104E-02  0.10203345123E+01  0.10200616501E+01 0.  0.
     999903    2    3    3    0    0  0.12990550234E+00 -0.18663169722E-01 -0.13883049982E-01  0.13337490983E+00  0.19296995993E-01 0.  0.
         14    1    1    2    0    0 -0.21468622979E-01 -0.40137266970E-02  0.89294604104E-02  0.23595487658E-01  0.00000000000E+00 0. -1.
     999901    1    3    3    0    0 -0.10843687936E+00  0.22676896419E-01  0.49535895711E-02  0.88695960251E+00  0.88000000000E+00 0.  1.
        -11    1    4    4    0    0  0.10058857291E+00 -0.72702761552E-02 -0.64901330374E-02  0.10106087702E+00  0.51100000000E-03 0.  1.
         11    1    4    4    0    0  0.29316929425E-01 -0.11392893567E-01 -0.73929169441E-02  0.32314032814E-01  0.51100000000E-03 0. -1.
</event>
<event>
 8    1  0.1060156E+005  0.1043930E+01  0.7957747E-01            NaN
         13   -1    0    0    0    0  0.00000000000E+00  0.00000000000E+00  0.74505805969E-08  0.10566000000E+00  0.10566000000E+00 0.  1.
     999900   -1    0    0    0    0 -0.00000000000E+00 -0.00000000000E+00 -0.74505805969E-08  0.93827000000E+00  0.93827000000E+00 0. -1.
     999902    2    1    2    0    0  0.18202034731E-01 -0.13646465996E-01 -0.63956691960E-02  0.10202985657E+01  0.10200248617E+01 0.  0.
     999903    2    3    3    0    0 -0.98429226335E-01 -0.73979887730E-01 -0.37478328160E-01  0.13001259787E+00  0.18366113820E-01 0.  0.
         14    1    1    2    0    0 -0.18202034731E-01  0.13646465996E-01  0.63956691960E-02  0.23631434298E-01  0.00000000000E+00 0.  1.
     999901    1    3    3    0    0  0.11663126107E+00  0.60333421734E-01  0.31082658964E-01  0.89028596784E+00  0.88000000000E+00 0. -1.
        -11    1    4    4    0    0 -0.32199636379E-01 -0.21804332138E-01 -0.32879867501E-02  0.39029699727E-01  0.51100000000E-03 0.  1.
         11    1    4    4    0    0 -0.66229589956E-01 -0.52175555592E-01 -0.34190341410E-01  0.90982898139E-01  0.51100000000E-03 0. -1.
</event>
<event>
 8    1  0.1030163E+005  0.1043930E+01  0.7957747E-01            NaN
         13   -1    0    0    0    0  0.00000000000E+00  0.00000000000E+00  0.74505805969E-08  0.10566000000E+00  0.10566000000E+00 0.  1.
     999900   -1    0    0    0    0 -0.00000000000E+00 -0.00000000000E+00 -0.74505805969E-08  0.93827000000E+00  0.93827000000E+00 0. -1.
     999902    2    1    2    0    0 -0.65817437847E-02 -0.94035475720E-02 -0.21449241964E-01  0.10196027305E+01  0.10193124703E+01 0.  0.
     999903    2    3    3    0    0 -0.42452495202E-01 -0.11153364096E+00  0.48162533030E-01  0.13024168688E+00  0.20032473573E-01 0.  0.
         14    1    1    2    0    0  0.65817437847E-02  0.94035475720E-02  0.21449241964E-01  0.24327269453E-01  0.00000000000E+00 0.  1.
     999901    1    3    3    0    0  0.35870751418E-01  0.10213009339E+00 -0.69611774994E-01  0.88936104367E+00  0.88000000000E+00 0. -1.
        -11    1    4    4    0    0 -0.38320845093E-01 -0.89831026940E-01  0.31682553153E-01  0.10267495247E+00  0.51100000000E-03 0.  1.
         11    1    4    4    0    0 -0.41316501092E-02 -0.21702614021E-01  0.16479979877E-01  0.27566734404E-01  0.51100000000E-03 0. -1.
</event>
<event>
 8    1  0.1030163E+005  0.1043930E+01  0.7957747E-01            NaN
         13   -1    0    0    0    0  0.00000000000E+00  0.00000000000E+00  0.74505805969E-08  0.10566000000E+00  0.10566000000E+00 0. -1.
     999900   -1    0    0    0    0 -0.00000000000E+00 -0.00000000000E+00 -0.74505805969E-08  0.93827000000E+00  0.93827000000E+00 0.  1.
     999902    2    1    2    0    0 -0.12920356995E-01 -0.17897997700E-01  0.78448348787E-02  0.10205031910E+01  0.10202342611E+01 0.  0.
     999903    2    3    3    0    0 -0.15293493000E-01  0.22892307319E-01 -0.12503770197E+00  0.12958947498E+00  0.20026393793E-01 0.  0.
         14    1    1    2    0    0  0.12920356995E-01  0.17897997700E-01 -0.78448348787E-02  0.23426809019E-01  0.00000000000E+00 0. -1.
     999901    1    3    3    0    0  0.23731360049E-02 -0.40790305019E-01  0.13288253685E+00  0.89091371600E+00  0.88000000000E+00 0. -1.
        -11    1    4    4    0    0 -0.40260610394E-02  0.63965079073E-02 -0.79500110157E-01  0.79860209848E-01  0.51100000000E-03 0.  1.
         11    1    4    4    0    0 -0.11267431960E-01  0.16495799411E-01 -0.45537591816E-01  0.49729265132E-01  0.51100000000E-03 0. -1.
</event>
<event>
 8    1  0.1030163E+005  0.1043930E+01  0.7957747E-01            NaN
         13   -1    0    0    0    0  0.00000000000E+00  0.00000000000E+00  0.74505805969E-08  0.10566000000E+00  0.10566000000E+00 0.  1.
     999900   -1    0    0    0    0 -0.00000000000E+00 -0.00000000000E+00 -0.74505805969E-08  0.93827000000E+00  0.93827000000E+00 0. -1.
     999902    2    1    2    0    0 -0.19347507969E-01  0.11836782403E-01 -0.79134512184E-02  0.10199079644E+01  0.10196250280E+01 0.  0.
     999903    2    3    3    0    0 -0.27097545800E-01 -0.10337549357E+00  0.69413158192E-01  0.12900205687E+00  0.20064258960E-01 0.  0.
         14    1    1    2    0    0  0.19347507969E-01 -0.11836782403E-01  0.79134512184E-02  0.24022035560E-01  0.00000000000E+00 0.  1.
     999901    1    3    3    0    0  0.77500378318E-02  0.11521227597E+00 -0.77326609411E-01  0.89090590757E+00  0.88000000000E+00 0. -1.
        -11    1    4    4    0    0 -0.12191646995E-01 -0.41531409124E-01  0.16746998922E-01  0.46413546451E-01  0.51100000000E-03 0. -1.
         11    1    4    4    0    0 -0.14905898806E-01 -0.61844084444E-01  0.52666159270E-01  0.82588510418E-01  0.51100000000E-03 0.  1.
</event>
<event>
 8    1  0.1030163E+005  0.1043930E+01  0.7957747E-01            NaN
         13   -1    0    0    0    0  0.00000000000E+00  0.00000000000E+00  0.74505805969E-08  0.10566000000E+00  0.10566000000E+00 0. -1.
     999900   -1    0    0    0    0 -0.00000000000E+00 -0.00000000000E+00 -0.74505805969E-08  0.93827000000E+00  0.93827000000E+00 0.  1.
     999902    2    1    2    0    0 -0.14014923600E-01 -0.15244736404E-01 -0.11357080963E-01  0.10203121390E+01  0.10200387530E+01 0.  0.
     999903    2    3    3    0    0 -0.49811688213E-01  0.28981736116E-01  0.11468491889E+00  0.12951251226E+00  0.17312275963E-01 0.  0.
         14    1    1    2    0    0  0.14014923600E-01  0.15244736404E-01  0.11357080963E-01  0.23617861028E-01  0.00000000000E+00 0. -1.
     999901    1    3    3    0    0  0.35796764613E-01 -0.44226472520E-01 -0.12604199985E+00  0.89079962672E+00  0.88000000000E+00 0.  1.
        -11    1    4    4    0    0 -0.37463328101E-01  0.21687535355E-01  0.10005575523E+00  0.10901956438E+00  0.51100000000E-03 0.  1.
         11    1    4    4    0    0 -0.12348360112E-01  0.72942007608E-02  0.14629163660E-01  0.20492947875E-01  0.51100000000E-03 0. -1.
</event>
<event>
 8    1  0.1030163E+005  0.1043930E+01  0.7957747E-01            NaN
         13   -1    0    0    0    0  0.00000000000E+00  0.00000000000E+00  0.74505805969E-08  0.10566000000E+00  0.10566000000E+00 0. -1.
     999900   -1    0    0    0    0 -0.00000000000E+00 -0.00000000000E+00 -0.74505805969E-08  0.93827000000E+00  0.93827000000E+00 0. -1.
     999902    2    1    2    0    0  0.87598447885E-02  0.18584556619E-01  0.13450789819E-01  0.10193730382E+01  0.10190772035E+01 0.  0.
     999903    2    3    3    0    0  0.11155624711E+00  0.24679088507E-01 -0.59366848708E-01  0.13038110792E+00  0.20517234139E-01 0.  0.
         14    1    1    2    0    0 -0.87598447885E-02 -0.18584556619E-01 -0.13450789819E-01  0.24556961787E-01  0.00000000000E+00 0. -1.
     999901    1    3    3    0    0 -0.10279640233E+00 -0.60945318879E-02  0.72817638527E-01  0.88899193030E+00  0.88000000000E+00 0.  1.
        -11    1    4    4    0    0  0.10340892404E+00  0.28162189729E-01 -0.54034712657E-01  0.12002718773E+00  0.51100000000E-03 0. -1.
         11    1    4    4    0    0  0.81473230696E-02 -0.34831012212E-02 -0.53321360514E-02  0.10353920185E-01  0.51100000000E-03 0.  1.
</event>
<event>
 8    1  0.1030163E+005  0.1043930E+01  0.7957747E-01            NaN
         13   -1    0    0    0    0  0.00000000000E+00  0.00000000000E+00  0.74505805969E-08  0.10566000000E+00  0.10566000000E+00 0.  1.
     999900   -1    0    0    0    0 -0.00000000000E+00 -0.00000000000E+00 -0.74505805969E-08  0.93827000000E+00  0.93827000000E+00 0.  1.
     999902    2    1    2    0    0 -0.10342144974E-01 -0.12086891305E-01  0.17518622437E-01  0.10202666309E+01  0.10199921780E+01 0.  0.
     999903    2    3    3    0    0  0.68980431855E-01 -0.40761861171E-01 -0.98384326900E-01  0.12866816818E+00  0.21358661447E-01 0.  0.
         14    1    1    2    0    0  0.10342144974E-01  0.12086891305E-01 -0.17518622437E-01  0.23663369079E-01  0.00000000000E+00 0. -1.
     999901    1    3    3    0    0 -0.79322576829E-01  0.28674969866E-01  0.11590294934E+00  0.89159846274E+00  0.88000000000E+00 0. -1.
        -11    1    4    4    0    0  0.22425206112E-01 -0.25071415500E-01 -0.43816765765E-01  0.55241613187E-01  0.51100000000E-03 0. -1.
         11    1    4    4    0    0  0.46555225743E-01 -0.15690445671E-01 -0.54567561135E-01  0.73426554996E-01  0.51100000000E-03 0.  1.
</event>
<event>
 8    1  0.1030163E+005  0.1043930E+01  0.7957747E-01            NaN
         13   -1    0    0    0    0  0.00000000000E+00  0.00000000000E+00  0.74505805969E-08  0.10566000000E+00  0.10566000000E+00 0.  1.
     999900   -1    0    0    0    0 -0.00000000000E+00 -0.00000000000E+00 -0.74505805969E-08  0.93827000000E+00  0.93827000000E+00 0.  1.
     999902    2    1    2    0    0 -0.31662640571E-01  0.40128257359E-02  0.22279975952E-02  0.10119364139E+01  0.10114305296E+01 0.  0.
     999903    2    3    3    0    0 -0.17410864657E-02  0.79599751339E-01  0.92389099336E-01  0.12360218232E+00  0.20064944647E-01 0.  0.
         14    1    1    2    0    0  0.31662640571E-01 -0.40128257359E-02 -0.22279975952E-02  0.31993586101E-01  0.00000000000E+00 0.  1.
     999901    1    3    3    0    0 -0.29921554105E-01 -0.75586925603E-01 -0.90161101741E-01  0.88833423158E+00  0.88000000000E+00 0.  1.
        -11    1    4    4    0    0 -0.24768166490E-03  0.41103136992E-02 -0.16903997074E-03  0.41527966992E-02  0.51100000000E-03 0.  1.
         11    1    4    4    0    0 -0.14934048008E-02  0.75489437640E-01  0.92558139307E-01  0.11944938562E+00  0.51100000000E-03 0. -1.
</event>
<event>
 8    1  0.1030163E+005  0.1043930E+01  0.7957747E-01            NaN
         13   -1    0    0    0    0  0.00000000000E+00  0.00000000000E+00  0.74505805969E-08  0.10566000000E+00  0.10566000000E+00 0. -1.
     999900   -1    0    0    0    0 -0.00000000000E+00 -0.00000000000E+00 -0.74505805969E-08  0.93827000000E+00  0.93827000000E+00 0. -1.
     999902    2    1    2    0    0  0.17359907019E-01  0.10111835895E-01  0.12449071046E-01  0.10202953863E+01  0.10200216077E+01 0.  0.
     999903    2    3    3    0    0  0.14682050100E-01  0.10287079112E+00 -0.77156858713E-01  0.13089074418E+00  0.19525465575E-01 0.  0.
         14    1    1    2    0    0 -0.17359907019E-01 -0.10111835895E-01 -0.12449071046E-01  0.23634613744E-01  0.00000000000E+00 0.  1.
     999901    1    3    3    0    0  0.26778569193E-02 -0.92758955224E-01  0.89605929760E-01  0.88940464207E+00  0.88000000000E+00 0. -1.
        -11    1    4    4    0    0  0.45950158736E-02  0.41889511179E-01 -0.43258575020E-01  0.60393797293E-01  0.51100000000E-03 0. -1.
         11    1    4    4    0    0  0.10087034227E-01  0.60981279940E-01 -0.33898283693E-01  0.70496946891E-01  0.51100000000E-03 0.  1.
</event>
<event>
 8    1  0.1030163E+005  0.1043930E+01  0.7957747E-01            NaN
         13   -1    0    0    0    0  0.00000000000E+00  0.00000000000E+00  0.74505805969E-08  0.10566000000E+00  0.10566000000E+00 0. -1.
     999900   -1    0    0    0    0 -0.00000000000E+00 -0.00000000000E+00 -0.74505805969E-08  0.93827000000E+00  0.93827000000E+00 0.  1.
     999902    2    1    2    0    0 -0.38571607617E-02  0.64656427150E-02  0.21805497661E-01  0.10208613643E+01  0.10206006874E+01 0.  0.
     999903    2    3    3    0    0  0.96555380919E-01  0.76815167209E-01  0.43307730316E-01  0.13210150915E+00  0.18754671831E-01 0.  0.
         14    1    1    2    0    0  0.38571607617E-02 -0.64656427150E-02 -0.21805497661E-01  0.23068635701E-01  0.00000000000E+00 0.  1.
     999901    1    3    3    0    0 -0.10041254168E+00 -0.70349524494E-01 -0.21502232655E-01  0.88875985515E+00  0.88000000000E+00 0.  1.
        -11    1    4    4    0    0  0.48745062108E-01  0.27104421813E-01  0.17473292895E-01  0.58449190305E-01  0.51100000000E-03 0. -1.
         11    1    4    4    0    0  0.47810318811E-01  0.49710745396E-01  0.25834437421E-01  0.73652318840E-01  0.51100000000E-03 0.  1.
</event>
<event>
 8    1  0.1030163E+005  0.1043930E+01  0.7957747E-01            NaN
         13   -1    0    0    0    0  0.00000000000E+00  0.00000000000E+00  0.74505805969E-08  0.10566000000E+00  0.10566000000E+00 0. -1.
     999900   -1    0    0    0    0 -0.00000000000E+00 -0.00000000000E+00 -0.74505805969E-08  0.93827000000E+00  0.93827000000E+00 0.  1.
     999902    2    1    2    0    0 -0.15185344543E-01 -0.10648428811E-01  0.13692644114E-01  0.10208763186E+01  0.10206159834E+01 0.  0.
     999903    2    3    3    0    0 -0.87759565631E-01 -0.18747336130E-01  0.97364746903E-01  0.13389625641E+00  0.19877363251E-01 0.  0.
         14    1    1    2    0    0  0.15185344543E-01  0.10648428811E-01 -0.13692644114E-01  0.23053681439E-01  0.00000000000E+00 0.  1.
     999901    1    3    3    0    0  0.72574221089E-01  0.80989073185E-02 -0.83672102788E-01  0.88698006215E+00  0.88000000000E+00 0.  1.
        -11    1    4    4    0    0 -0.70949329360E-01 -0.22940720147E-01  0.78075107302E-01  0.10796326912E+00  0.51100000000E-03 0. -1.
         11    1    4    4    0    0 -0.16810236271E-01  0.41933840175E-02  0.19289639601E-01  0.25932987293E-01  0.51100000000E-03 0.  1.
</event>
<event>
 8    1  0.1030163E+005  0.1043930E+01  0.7957747E-01            NaN
         13   -1    0    0    0    0  0.00000000000E+00  0.00000000000E+00  0.74505805969E-08  0.10566000000E+00  0.10566000000E+00 0.  1.
     999900   -1    0    0    0    0 -0.00000000000E+00 -0.00000000000E+00 -0.74505805969E-08  0.93827000000E+00  0.93827000000E+00 0. -1.
     999902    2    1    2    0    0 -0.14070509264E-01 -0.17286701034E-01 -0.55123926210E-02  0.10209692566E+01  0.10207110400E+01 0.  0.
     999903    2    3    3    0    0  0.20564470667E-02 -0.13184414931E+00 -0.40159547298E-02  0.13339631484E+00  0.19782321343E-01 0.  0.
         14    1    1    2    0    0  0.14070509264E-01  0.17286701034E-01  0.55123926210E-02  0.22960743368E-01  0.00000000000E+00 0.  1.
     999901    1    3    3    0    0 -0.16126956330E-01  0.11455744828E+00 -0.14964378912E-02  0.88757294179E+00  0.88000000000E+00 0.  1.
        -11    1    4    4    0    0  0.44208316914E-02 -0.10895906355E-01  0.32368168399E-02  0.12206663442E-01  0.51100000000E-03 0.  1.
         11    1    4    4    0    0 -0.23643846247E-02 -0.12094824296E+00 -0.72527715697E-02  0.12118965140E+00  0.51100000000E-03 0. -1.
</event>
<event>
 8    1  0.1030163E+005  0.1043930E+01  0.7957747E-01            NaN
         13   -1    0    0    0    0  0.00000000000E+00  0.00000000000E+00  0.74505805969E-08  0.10566000000E+00  0.10566000000E+00 0.  1.
     999900   -1    0    0    0    0 -0.00000000000E+00 -0.00000000000E+00 -0.74505805969E-08  0.93827000000E+00  0.93827000000E+00 0.  1.
     999902    2    1    2    0    0 -0.36026501685E-02 -0.23374274406E-01 -0.21295110714E-02  0.10201840401E+01  0.10199076454E+01 0.  0.
     999903    2    3    3    0    0  0.78781950845E-01  0.91043114915E-01  0.38373115945E-01  0.12804110078E+00  0.20653883616E-01 0.  0.
         14    1    1    2    0    0  0.36026501685E-02  0.23374274406E-01  0.21295110714E-02  0.23745959859E-01  0.00000000000E+00 0.  1.
     999901    1    3    3    0    0 -0.82384601013E-01 -0.11441738932E+00 -0.40502627016E-01  0.89214293936E+00  0.88000000000E+00 0. -1.
        -11    1    4    4    0    0  0.26070851316E-01  0.39160104763E-01  0.23528679479E-01  0.52602879887E-01  0.51100000000E-03 0.  1.
         11    1    4    4    0    0  0.52711099529E-01  0.51883010152E-01  0.14844436465E-01  0.75438220889E-01  0.51100000000E-03 0. -1.
</event>
<event>
 8    1  0.1030163E+005  0.1043930E+01  0.7957747E-01            NaN
         13   -1    0    0    0    0  0.00000000000E+00  0.00000000000E+00  0.74505805969E-08  0.10566000000E+00  0.10566000000E+00 0.  1.
     999900   -1    0    0    0    0 -0.00000000000E+00 -0.00000000000E+00 -0.74505805969E-08  0.93827000000E+00  0.93827000000E+00 0.  1.
     999902    2    1    2    0    0  0.11029723231E-01  0.83875693096E-02 -0.19135187857E-01  0.10203045576E+01  0.10200309940E+01 0.  0.
     999903    2    3    3    0    0  0.66809584666E-01  0.10292450301E+00 -0.47231120856E-01  0.13304021920E+00  0.20296483033E-01 0.  0.
         14    1    1    2    0    0 -0.11029723231E-01 -0.83875693096E-02  0.19135187857E-01  0.23625442383E-01  0.00000000000E+00 0.  1.
     999901    1    3    3    0    0 -0.55779861435E-01 -0.94536933705E-01  0.28095932999E-01  0.88726433842E+00  0.88000000000E+00 0. -1.
        -11    1    4    4    0    0  0.41235841142E-01  0.50263966045E-01 -0.32422885411E-01  0.72652360572E-01  0.51100000000E-03 0.  1.
         11    1    4    4    0    0  0.25573743524E-01  0.52660536969E-01 -0.14808235445E-01  0.60387858628E-01  0.51100000000E-03 0. -1.
</event>
<event>
 8    1  0.1030163E+005  0.1043930E+01  0.7957747E-01            NaN
         13   -1    0    0    0    0  0.00000000000E+00  0.00000000000E+00  0.74505805969E-08  0.10566000000E+00  0.10566000000E+00 0. -1.
     999900   -1    0    0    0    0 -0.00000000000E+00 -0.00000000000E+00 -0.74505805969E-08  0.93827000000E+00  0.93827000000E+00 0.  1.
     999902    2    1    2    0    0 -0.90346481777E-02  0.13039782724E-01  0.17351242374E-01  0.10204198657E+01  0.10201489969E+01 0.  0.
     999903    2    3    3    0    0 -0.96726656382E-01 -0.54323909296E-01  0.68866053191E-01  0.13200468631E+00  0.19379647807E-01 0.  0.
         14    1    1    2    0    0  0.90346481777E-02 -0.13039782724E-01 -0.17351242374E-01  0.23510134264E-01  0.00000000000E+00 0.  1.
     999901    1    3    3    0    0  0.87692008204E-01  0.67363692020E-01 -0.51514810818E-01  0.88841517943E+00  0.88000000000E+00 0.  1.
        -11    1    4    4    0    0 -0.31839428502E-01 -0.24056771104E-01  0.15978691487E-01  0.42989035182E-01  0.51100000000E-03 0.  1.
         11    1    4    4    0    0 -0.64887227880E-01 -0.30267138192E-01  0.52887361705E-01  0.89015651126E-01  0.51100000000E-03 0. -1.
</event>
<event>
 8    1  0.1030163E+005  0.1043930E+01  0.7957747E-01            NaN
         13   -1    0    0    0    0  0.00000000000E+00  0.00000000000E+00  0.74505805969E-08  0.10566000000E+00  0.10566000000E+00 0. -1.
     999900   -1    0    0    0    0 -0.00000000000E+00 -0.00000000000E+00 -0.74505805969E-08  0.93827000000E+00  0.93827000000E+00 0. -1.
     999902    2    1    2    0    0 -0.35865467607E-02 -0.81621390618E-02  0.21816666232E-01  0.10203619972E+01  0.10200897777E+01 0.  0.
     999903    2    3    3    0    0 -0.12309245085E+00 -0.32638511577E-01 -0.23447701796E-01  0.13079490193E+00  0.18452310342E-01 0.  0.
         14    1    1    2    0    0  0.35865467607E-02  0.81621390618E-02 -0.21816666232E-01  0.23568002826E-01  0.00000000000E+00 0.  1.
     999901    1    3    3    0    0  0.11950590409E+00  0.24476372515E-01  0.45264368028E-01  0.88956709524E+00  0.88000000000E+00 0. -1.
        -11    1    4    4    0    0 -0.80052729282E-01 -0.23133887034E-01 -0.23981152139E-01  0.86712011704E-01  0.51100000000E-03 0.  1.
         11    1    4    4    0    0 -0.43039721570E-01 -0.95046245430E-02  0.53345034307E-03  0.44082890227E-01  0.51100000000E-03 0. -1.
</event>
<event>
 8    1  0.1030163E+005  0.1043930E+01  0.7957747E-01            NaN
         13   -1    0    0    0    0  0.00000000000E+00  0.00000000000E+00  0.74505805969E-08  0.10566000000E+00  0.10566000000E+00 0. -1.
     999900   -1    0    0    0    0 -0.00000000000E+00 -0.00000000000E+00 -0.74505805969E-08  0.93827000000E+00  0.93827000000E+00 0. -1.
     999902    2    1    2    0    0 -0.21990528060E-01  0.99065540239E-02 -0.22260464917E-02  0.10197085545E+01  0.10194208443E+01 0.  0.
     999903    2    3    3    0    0  0.95208115046E-01  0.84360139190E-01 -0.83786474660E-03  0.12882091554E+00  0.20320137976E-01 0.  0.
         14    1    1    2    0    0  0.21990528060E-01 -0.99065540239E-02  0.22260464917E-02  0.24221445456E-01  0.00000000000E+00 0. -1.
     999901    1    3    3    0    0 -0.11719864311E+00 -0.74453585166E-01 -0.13881817451E-02  0.89088763901E+00  0.88000000000E+00 0. -1.
        -11    1    4    4    0    0  0.51491895453E-01  0.54112017766E-01 -0.82152015421E-02  0.75148362732E-01  0.51100000000E-03 0. -1.
         11    1    4    4    0    0  0.43716219593E-01  0.30248121425E-01  0.73773367955E-02  0.53672552803E-01  0.51100000000E-03 0.  1.
</event>
<event>
 8    1  0.1030163E+005  0.1043930E+01  0.7957747E-01            NaN
         13   -1    0    0    0    0  0.00000000000E+00  0.00000000000E+00  0.74505805969E-08  0.10566000000E+00  0.10566000000E+00 0. -1.
     999900   -1    0    0    0    0 -0.00000000000E+00 -0.00000000000E+00 -0.74505805969E-08  0.93827000000E+00  0.93827000000E+00 0.  1.
     999902    2    1    2    0    0  0.12623554987E-01 -0.23889986695E-02  0.19544605641E-01  0.10205408345E+01  0.10202727781E+01 0.  0.
     999903    2    3    3    0    0  0.11593972525E+00 -0.36568512381E-01  0.50378949569E-01  0.13330173085E+00  0.21261159411E-01 0.  0.
         14    1    1    2    0    0 -0.12623554987E-01  0.23889986695E-02 -0.19544605641E-01  0.23389165543E-01  0.00000000000E+00 0.  1.
     999901    1    3    3    0    0 -0.10331617027E+00  0.34179513712E-01 -0.30834343928E-01  0.88723910360E+00  0.88000000000E+00 0.  1.
        -11    1    4    4    0    0  0.87719030177E-01 -0.36048860600E-01  0.42946459761E-01  0.10410959674E+00  0.51100000000E-03 0.  1.
         11    1    4    4    0    0  0.28220695076E-01 -0.51965178090E-03  0.74324898078E-02  0.29192134117E-01  0.51100000000E-03 0. -1.
</event>
<event>
 8    1  0.1030163E+005  0.1043930E+01  0.7957747E-01            NaN
         13   -1    0    0    0    0  0.00000000000E+00  0.00000000000E+00  0.74505805969E-08  0.10566000000E+00  0.10566000000E+00 0.  1.
     999900   -1    0    0    0    0 -0.00000000000E+00 -0.00000000000E+00 -0.74505805969E-08  0.93827000000E+00  0.93827000000E+00 0.  1.
     999902    2    1    2    0    0 -0.10061715215E-01 -0.19162238464E-01 -0.10453044225E-01  0.10198947003E+01  0.10196114476E+01 0.  0.
     999903    2    3    3    0    0  0.18975053186E-01  0.66966941357E-01  0.10560425744E+00  0.12763315416E+00  0.17127141375E-01 0.  0.
         14    1    1    2    0    0  0.10061715215E-01  0.19162238464E-01  0.10453044225E-01  0.24035299657E-01  0.00000000000E+00 0.  1.
     999901    1    3    3    0    0 -0.29036768402E-01 -0.86129179821E-01 -0.11605730167E+00  0.89226154619E+00  0.88000000000E+00 0.  1.
        -11    1    4    4    0    0  0.91296044009E-02  0.29871297480E-01  0.62792766772E-01  0.70134419293E-01  0.51100000000E-03 0.  1.
         11    1    4    4    0    0  0.98454487854E-02  0.37095643877E-01  0.42811490670E-01  0.57498734862E-01  0.51100000000E-03 0. -1.
</event>
<event>
 8    1  0.1030163E+005  0.1043930E+01  0.7957747E-01            NaN
         13   -1    0    0    0    0  0.00000000000E+00  0.00000000000E+00  0.74505805969E-08  0.10566000000E+00  0.10566000000E+00 0. -1.
     999900   -1    0    0    0    0 -0.00000000000E+00 -0.00000000000E+00 -0.74505805969E-08  0.93827000000E+00  0.93827000000E+00 0. -1.
     999902    2    1    2    0    0  0.21169536145E-01  0.11480143433E-01 -0.77603760461E-03  0.10198354946E+01  0.10195508280E+01 0.  0.
     999903    2    3    3    0    0  0.19048335821E-01  0.12857110844E+00 -0.68688016626E-02  0.13205629048E+00  0.22322956684E-01 0.  0.
         14    1    1    2    0    0 -0.21169536145E-01 -0.11480143433E-01  0.77603760461E-03  0.24094505352E-01  0.00000000000E+00 0.  1.
     999901    1    3    3    0    0  0.21212003241E-02 -0.11709096501E+00  0.60927640580E-02  0.88777920417E+00  0.88000000000E+00 0.  1.
        -11    1    4    4    0    0 -0.41812917247E-02  0.20018416296E-01  0.26948333960E-02  0.20633551306E-01  0.51100000000E-03 0.  1.
         11    1    4    4    0    0  0.23229627545E-01  0.10855269215E+00 -0.95636350586E-02  0.11142273917E+00  0.51100000000E-03 0. -1.
</event>
<event>
 8    1  0.1030163E+005  0.1043930E+01  0.7957747E-01            NaN
         13   -1    0    0    0    0  0.00000000000E+00  0.00000000000E+00  0.74505805969E-08  0.10566000000E+00  0.10566000000E+00 0.  1.
     999900   -1    0    0    0    0 -0.00000000000E+00 -0.00000000000E+00 -0.74505805969E-08  0.93827000000E+00  0.93827000000E+00 0.  1.
     999902    2    1    2    0    0  0.26709792577E-02  0.20134835941E-01 -0.13852330259E-01  0.10193447849E+01  0.10190482607E+01 0.  0.
     999903    2    3    3    0    0 -0.23985968834E-01 -0.50837981489E-01  0.11218359196E+00  0.12713808945E+00  0.20472137652E-01 0.  0.
         14    1    1    2    0    0 -0.26709792577E-02 -0.20134835941E-01  0.13852330259E-01  0.24585215113E-01  0.00000000000E+00 0.  1.
     999901    1    3    3    0    0  0.26656948091E-01  0.70972817430E-01 -0.12603592222E+00  0.89220669544E+00  0.88000000000E+00 0.  1.
        -11    1    4    4    0    0 -0.11611911188E-01 -0.43619157812E-01  0.78938231902E-01  0.90933893496E-01  0.51100000000E-03 0.  1.
         11    1    4    4    0    0 -0.12374057646E-01 -0.72188236766E-02  0.33245360061E-01  0.36204195952E-01  0.51100000000E-03 0. -1.
</event>
<event>
 8    1  0.1030163E+005  0.1043930E+01  0.7957747E-01            NaN
         13   -1    0    0    0    0  0.00000000000E+00  0.00000000000E+00  0.74505805969E-08  0.10566000000E+00  0.10566000000E+00 0. -1.
     999900   -1    0    0    0    0 -0.00000000000E+00 -0.00000000000E+00 -0.74505805969E-08  0.93827000000E+00  0.93827000000E+00 0.  1.
     999902    2    1    2    0    0  0.14639077347E-01 -0.80242695173E-02 -0.16998461556E-01  0.10201048204E+01  0.10198265566E+01 0.  0.
     999903    2    3    3    0    0  0.10764834944E-01 -0.10114847634E+00  0.78530048030E-01  0.13004143852E+00  0.19922634183E-01 0.  0.
         14    1    1    2    0    0 -0.14639077347E-01  0.80242695173E-02  0.16998461556E-01  0.23825179582E-01  0.00000000000E+00 0. -1.
     999901    1    3    3    0    0  0.38742424029E-02  0.93124206818E-01 -0.95528509586E-01  0.89006338190E+00  0.88000000000E+00 0.  1.
        -11    1    4    4    0    0  0.61891626512E-02 -0.89799783560E-01  0.61310160464E-01  0.10891053098E+00  0.51100000000E-03 0. -1.
         11    1    4    4    0    0  0.45756722931E-02 -0.11348692775E-01  0.17219887565E-01  0.21130907539E-01  0.51100000000E-03 0.  1.
</event>
<event>
 8    1  0.1030163E+005  0.1043930E+01  0.7957747E-01            NaN
         13   -1    0    0    0    0  0.00000000000E+00  0.00000000000E+00  0.74505805969E-08  0.10566000000E+00  0.10566000000E+00 0.  1.
     999900   -1    0    0    0    0 -0.00000000000E+00 -0.00000000000E+00 -0.74505805969E-08  0.93827000000E+00  0.93827000000E+00 0. -1.
     999902    2    1    2    0    0 -0.59392894240E-02 -0.16905941721E-01  0.15858371478E-01  0.10200014821E+01  0.10197207703E+01 0.  0.
     999903    2    3    3    0    0  0.66674337864E-01  0.14996270829E-01 -0.10571013424E+00  0.12811057416E+00  0.23818716635E-01 0.  0.
         14    1    1    2    0    0  0.59392894240E-02  0.16905941721E-01 -0.15858371478E-01  0.23928517929E-01  0.00000000000E+00 0. -1.
     999901    1    3    3    0    0 -0.72613627288E-01 -0.31902212550E-01  0.12156850572E+00  0.89189090791E+00  0.88000000000E+00 0.  1.
        -11    1    4    4    0    0  0.42816831194E-01  0.13860088501E-01 -0.86293201258E-01  0.97325026541E-01  0.51100000000E-03 0. -1.
         11    1    4    4    0    0  0.23857506670E-01  0.11361823284E-02 -0.19416932981E-01  0.30785547619E-01  0.51100000000E-03 0.  1.
</event>
<event>
 8    1  0.1030163E+005  0.1043930E+01  0.7957747E-01            NaN
         13   -1    0    0    0    0  0.00000000000E+00  0.00000000000E+00  0.74505805969E-08  0.10566000000E+00  0.10566000000E+00 0. -1.
     999900   -1    0    0    0    0 -0.00000000000E+00 -0.00000000000E+00 -0.74505805969E-08  0.93827000000E+00  0.93827000000E+00 0. -1.
     999902    2    1    2    0    0  0.17891229263E-01  0.27116620997E-01 -0.18530717963E-02  0.10113901614E+01  0.10108665676E+01 0.  0.
     999903    2    3    3    0    0  0.79639443311E-01  0.93284975238E-01 -0.69083384588E-02  0.12673392946E+00  0.31132558541E-01 0.  0.
         14    1    1    2    0    0 -0.17891229263E-01 -0.27116620997E-01  0.18530717963E-02  0.32539838566E-01  0.00000000000E+00 0.  1.
     999901    1    3    3    0    0 -0.61748214048E-01 -0.66168354241E-01  0.50552666625E-02  0.88465623197E+00  0.88000000000E+00 0.  1.
        -11    1    4    4    0    0  0.33946893711E-01  0.19840236801E-01 -0.84498357783E-02  0.40220485261E-01  0.51100000000E-03 0.  1.
         11    1    4    4    0    0  0.45692549599E-01  0.73444738437E-01  0.15414973196E-02  0.86513444203E-01  0.51100000000E-03 0. -1.
</event>
<event>
 8    1  0.1030163E+005  0.1043930E+01  0.7957747E-01            NaN
         13   -1    0    0    0    0  0.00000000000E+00  0.00000000000E+00  0.74505805969E-08  0.10566000000E+00  0.10566000000E+00 0. -1.
     999900   -1    0    0    0    0 -0.00000000000E+00 -0.00000000000E+00 -0.74505805969E-08  0.93827000000E+00  0.93827000000E+00 0.  1.
     999902    2    1    2    0    0 -0.13357128536E-01  0.19064132529E-01  0.47523658889E-02  0.10201720747E+01  0.10198953981E+01 0.  0.
     999903    2    3    3    0    0  0.16390666485E-01  0.12823952194E+00 -0.21560107159E-01  0.13253670860E+00  0.19675161250E-01 0.  0.
         14    1    1    2    0    0  0.13357128536E-01 -0.19064132529E-01 -0.47523658889E-02  0.23757925275E-01  0.00000000000E+00 0.  1.
     999901    1    3    3    0    0 -0.29747795021E-01 -0.10917538941E+00  0.26312473048E-01  0.88763536613E+00  0.88000000000E+00 0.  1.
        -11    1    4    4    0    0 -0.19789240462E-02  0.35198643341E-01 -0.11880217937E-01  0.37205662642E-01  0.51100000000E-03 0. -1.
         11    1    4    4    0    0  0.18369590531E-01  0.93040878599E-01 -0.96798892226E-02  0.95331045956E-01  0.51100000000E-03 0.  1.
</event>
<event>
 8    1  0.1030163E+005  0.1043930E+01  0.7957747E-01            NaN
         13   -1    0    0    0    0  0.00000000000E+00  0.00000000000E+00  0.74505805969E-08  0.10566000000E+00  0.10566000000E+00 0.  1.
     999900   -1    0    0    0    0 -0.00000000000E+00 -0.00000000000E+00 -0.74505805969E-08  0.93827000000E+00  0.93827000000E+00 0. -1.
     999902    2    1    2    0    0  0.38464496956E-02  0.23397115791E-01  0.31177626082E-02  0.10200147194E+01  0.10197343218E+01 0.  0.
     999903    2    3    3    0    0 -0.45108324536E-01 -0.10478212029E-01 -0.11939364582E+00  0.12953554898E+00  0.19495176788E-01 0.  0.
         14    1    1    2    0    0 -0.38464496956E-02 -0.23397115791E-01 -0.31177626082E-02  0.23915280603E-01  0.00000000000E+00 0. -1.
     999901    1    3    3    0    0  0.48954774231E-01  0.33875327820E-01  0.12251140843E+00  0.89047917042E+00  0.88000000000E+00 0.  1.
        -11    1    4    4    0    0 -0.26630002553E-01 -0.11524389604E-01 -0.50988983022E-01  0.58669464821E-01  0.51100000000E-03 0.  1.
         11    1    4    4    0    0 -0.18478321983E-01  0.10461775754E-02 -0.68404662795E-01  0.70866084158E-01  0.51100000000E-03 0. -1.
</event>
<event>
 8    1  0.1030163E+005  0.1043930E+01  0.7957747E-01            NaN
         13   -1    0    0    0    0  0.00000000000E+00  0.00000000000E+00  0.74505805969E-08  0.10566000000E+00  0.10566000000E+00 0. -1.
     999900   -1    0    0    0    0 -0.00000000000E+00 -0.00000000000E+00 -0.74505805969E-08  0.93827000000E+00  0.93827000000E+00 0. -1.
     999902    2    1    2    0    0  0.21519722746E-01  0.58308466864E-02  0.67851045254E-02  0.10206247456E+01  0.10203586313E+01 0.  0.
     999903    2    3    3    0    0 -0.89054461520E-01 -0.89885779633E-01 -0.51470077825E-02  0.12847526366E+00  0.21662206432E-01 0.  0.
         14    1    1    2    0    0 -0.21519722746E-01 -0.58308466864E-02 -0.67851045254E-02  0.23305254420E-01  0.00000000000E+00 0. -1.
     999901    1    3    3    0    0  0.11057418427E+00  0.95716626319E-01  0.11932112308E-01  0.89214948192E+00  0.88000000000E+00 0. -1.
        -11    1    4    4    0    0 -0.60568564510E-01 -0.74078314740E-01 -0.16185386225E-02  0.95702813489E-01  0.51100000000E-03 0. -1.
         11    1    4    4    0    0 -0.28485897010E-01 -0.15807464893E-01 -0.35284691601E-02  0.32772450174E-01  0.51100000000E-03 0.  1.
</event>
<event>
 8    1  0.1030163E+005  0.1043930E+01  0.7957747E-01            NaN
         13   -1    0    0    0    0  0.00000000000E+00  0.00000000000E+00  0.74505805969E-08  0.10566000000E+00  0.10566000000E+00 0. -1.
     999900   -1    0    0    0    0 -0.00000000000E+00 -0.00000000000E+00 -0.74505805969E-08  0.93827000000E+00  0.93827000000E+00 0. -1.
     999902    2    1    2    0    0  0.40931924513E-02 -0.16720252419E-01  0.15634736951E-01  0.10206756227E+01  0.10204106823E+01 0.  0.
     999903    2    3    3    0    0  0.17735026042E-01 -0.12902889678E+00 -0.16617986401E-01  0.13284705285E+00  0.20228559677E-01 0.  0.
         14    1    1    2    0    0 -0.40931924513E-02  0.16720252419E-01 -0.15634736951E-01  0.23254377328E-01  0.00000000000E+00 0.  1.
     999901    1    3    3    0    0 -0.13641833591E-01  0.11230864436E+00  0.32252723352E-01  0.88782856982E+00  0.88000000000E+00 0. -1.
        -11    1    4    4    0    0  0.14786690321E-01 -0.51019095668E-01 -0.44900918369E-03  0.53123037034E-01  0.51100000000E-03 0. -1.
         11    1    4    4    0    0  0.29483357214E-02 -0.78009801113E-01 -0.16168977217E-01  0.79724015820E-01  0.51100000000E-03 0.  1.
</event>
<event>
 8    1  0.1030163E+005  0.1043930E+01  0.7957747E-01            NaN
         13   -1    0    0    0    0  0.00000000000E+00  0.00000000000E+00  0.74505805969E-08  0.10566000000E+00  0.10566000000E+00 0.  1.
     999900   -1    0    0    0    0 -0.00000000000E+00 -0.00000000000E+00 -0.74505805969E-08  0.93827000000E+00  0.93827000000E+00 0. -1.
     999902    2    1    2    0    0  0.19786366787E-01 -0.78997977664E-02 -0.10097723257E-01  0.10203530806E+01  0.10200806526E+01 0.  0.
     999903    2    3    3    0    0 -0.79018030907E-01 -0.98649370519E-01 -0.18987235981E-01  0.13014141056E+00  0.24509673624E-01 0.  0.
         14    1    1    2    0    0 -0.19786366787E-01  0.78997977664E-02  0.10097723257E-01  0.23576919441E-01  0.00000000000E+00 0.  1.
     999901    1    3    3    0    0  0.98804397693E-01  0.90749572753E-01  0.88895127241E-02  0.89021166999E+00  0.88000000000E+00 0.  1.
        -11    1    4    4    0    0 -0.47028478584E-01 -0.40396872523E-01 -0.48030131006E-02  0.62184525112E-01  0.51100000000E-03 0. -1.
         11    1    4    4    0    0 -0.31989552323E-01 -0.58252497996E-01 -0.14184222880E-01  0.67956885452E-01  0.51100000000E-03 0.  1.
</event>
<event>
 8    1  0.1030163E+005  0.1043930E+01  0.7957747E-01            NaN
         13   -1    0    0    0    0  0.00000000000E+00  0.00000000000E+00  0.74505805969E-08  0.10566000000E+00  0.10566000000E+00 0. -1.
     999900   -1    0    0    0    0 -0.00000000000E+00 -0.00000000000E+00 -0.74505805969E-08  0.93827000000E+00  0.93827000000E+00 0. -1.
     999902    2    1    2    0    0  0.17714499269E-01  0.13158441044E-01  0.80614108340E-02  0.10204367159E+01  0.10201662397E+01 0.  0.
     999903    2    3    3    0    0 -0.70787460734E-01 -0.74855460341E-01  0.75069802159E-01  0.12910671621E+00  0.20466177828E-01 0.  0.
         14    1    1    2    0    0 -0.17714499269E-01 -0.13158441044E-01 -0.80614108340E-02  0.23493284141E-01  0.00000000000E+00 0. -1.
     999901    1    3    3    0    0  0.88501960004E-01  0.88013901386E-01 -0.67008391325E-01  0.89132999965E+00  0.88000000000E+00 0. -1.
        -11    1    4    4    0    0 -0.64663031129E-02 -0.38476362583E-02  0.12744293401E-01  0.14808629782E-01  0.51100000000E-03 0.  1.
         11    1    4    4    0    0 -0.64321157622E-01 -0.71007824083E-01  0.62325508758E-01  0.11429808643E+00  0.51100000000E-03 0. -1.
</event>
<event>
 8    1  0.1030163E+005  0.1043930E+01  0.7957747E-01            NaN
         13   -1    0    0    0    0  0.00000000000E+00  0.00000000000E+00  0.74505805969E-08  0.10566000000E+00  0.10566000000E+00 0.  1.
     999900   -1    0    0    0    0 -0.00000000000E+00 -0.00000000000E+00 -0.74505805969E-08  0.93827000000E+00  0.93827000000E+00 0.  1.
     999902    2    1    2    0    0  0.83648366988E-02  0.59873462810E-02  0.20302423804E-01  0.10211702280E+01  0.10209165624E+01 0.  0.
     999903    2    3    3    0    0  0.47056692211E-01 -0.67515723307E-01 -0.98556379327E-01  0.12930298677E+00  0.15270799143E-01 0.  0.
         14    1    1    2    0    0 -0.83648366988E-02 -0.59873462810E-02 -0.20302423804E-01  0.22759771985E-01  0.00000000000E+00 0. -1.
     999901    1    3    3    0    0 -0.38691855512E-01  0.73503069588E-01  0.11885880313E+00  0.89186724124E+00  0.88000000000E+00 0. -1.
        -11    1    4    4    0    0  0.32882526056E-01 -0.34787330761E-01 -0.52492365144E-01  0.71043144783E-01  0.51100000000E-03 0.  1.
         11    1    4    4    0    0  0.14174166155E-01 -0.32728392546E-01 -0.46064014183E-01  0.58259841988E-01  0.51100000000E-03 0. -1.
</event>
<event>
 8    1  0.1030163E+005  0.1043930E+01  0.7957747E-01            NaN
         13   -1    0    0    0    0  0.00000000000E+00  0.00000000000E+00  0.74505805969E-08  0.10566000000E+00  0.10566000000E+00 0.  1.
     999900   -1    0    0    0    0 -0.00000000000E+00 -0.00000000000E+00 -0.74505805969E-08  0.93827000000E+00  0.93827000000E+00 0.  1.
     999902    2    1    2    0    0  0.37024818081E-03  0.19881440769E-01 -0.96422234095E-02  0.10218306506E+01  0.10215916490E+01 0.  0.
     999903    2    3    3    0    0 -0.11475613709E+00  0.19752103826E-01  0.55767736203E-01  0.13192472069E+00  0.27110420909E-01 0.  0.
         14    1    1    2    0    0 -0.37024818081E-03 -0.19881440769E-01  0.96422234095E-02  0.22099349380E-01  0.00000000000E+00 0.  1.
     999901    1    3    3    0    0  0.11512638527E+00  0.12933694263E-03 -0.65409959612E-01  0.88990592993E+00  0.88000000000E+00 0. -1.
        -11    1    4    4    0    0 -0.62068477816E-01 -0.26687495132E-02  0.32508781116E-01  0.70119185199E-01  0.51100000000E-03 0.  1.
         11    1    4    4    0    0 -0.52687659274E-01  0.22420853339E-01  0.23258955087E-01  0.61805535488E-01  0.51100000000E-03 0. -1.
</event>
<event>
 8    1  0.1030163E+005  0.1043930E+01  0.7957747E-01            NaN
         13   -1    0    0    0    0  0.00000000000E+00  0.00000000000E+00  0.74505805969E-08  0.10566000000E+00  0.10566000000E+00 0.  1.
     999900   -1    0    0    0    0 -0.00000000000E+00 -0.00000000000E+00 -0.74505805969E-08  0.93827000000E+00  0.93827000000E+00 0. -1.
     999902    2    1    2    0    0  0.98962709069E-02 -0.21273975614E-01 -0.41023706252E-02  0.10201109391E+01  0.10198328199E+01 0.  0.
     999903    2    3    3    0    0 -0.56308074073E-01  0.55481387082E-01  0.10023226909E+00  0.12816917082E+00  0.11491086308E-01 0.  0.
         14    1    1    2    0    0 -0.98962709069E-02  0.21273975614E-01  0.41023706252E-02  0.23819060877E-01  0.00000000000E+00 0.  1.
     999901    1    3    3    0    0  0.66204344980E-01 -0.76755362696E-01 -0.10433463971E+00  0.89194176830E+00  0.88000000000E+00 0. -1.
        -11    1    4    4    0    0 -0.20375614208E-01  0.13154279148E-01  0.27615321696E-01  0.36756874562E-01  0.51100000000E-03 0. -1.
         11    1    4    4    0    0 -0.35932459865E-01  0.42327107934E-01  0.72616947391E-01  0.91412296260E-01  0.51100000000E-03 0.  1.
</event>
<event>
 8    1  0.1030163E+005  0.1043930E+01  0.7957747E-01            NaN
         13   -1    0    0    0    0  0.00000000000E+00  0.00000000000E+00  0.74505805969E-08  0.10566000000E+00  0.10566000000E+00 0.  1.
     999900   -1    0    0    0    0 -0.00000000000E+00 -0.00000000000E+00 -0.74505805969E-08  0.93827000000E+00  0.93827000000E+00 0. -1.
     999902    2    1    2    0    0 -0.18448112031E-01  0.13874979572E-01  0.67704131271E-02  0.10198740987E+01  0.10195903544E+01 0.  0.
     999903    2    3    3    0    0 -0.11433037401E+00  0.22655875400E-01  0.60943066130E-01  0.13296644358E+00  0.19526768757E-01 0.  0.
         14    1    1    2    0    0  0.18448112031E-01 -0.13874979572E-01 -0.67704131271E-02  0.24055901346E-01  0.00000000000E+00 0. -1.
     999901    1    3    3    0    0  0.95882261978E-01 -0.87808958276E-02 -0.54172653003E-01  0.88690765507E+00  0.88000000000E+00 0. -1.
        -11    1    4    4    0    0 -0.47298738382E-01  0.10404301076E-01  0.14701998606E-01  0.50614523779E-01  0.51100000000E-03 0.  1.
         11    1    4    4    0    0 -0.67031635628E-01  0.12251574325E-01  0.46241067524E-01  0.82351919802E-01  0.51100000000E-03 0. -1.
</event>
<event>
 8    1  0.1030163E+005  0.1043930E+01  0.7957747E-01            NaN
         13   -1    0    0    0    0  0.00000000000E+00  0.00000000000E+00  0.74505805969E-08  0.10566000000E+00  0.10566000000E+00 0. -1.
     999900   -1    0    0    0    0 -0.00000000000E+00 -0.00000000000E+00 -0.74505805969E-08  0.93827000000E+00  0.93827000000E+00 0. -1.
     999902    2    1    2    0    0 -0.63308337976E-02  0.12138725158E-01  0.19471728185E-01  0.10201271367E+01  0.10198494000E+01 0.  0.
     999903    2    3    3    0    0 -0.39560254304E-01 -0.10240425822E+00  0.67980464175E-01  0.13075804179E+00  0.20607672416E-01 0.  0.
         14    1    1    2    0    0  0.63308337976E-02 -0.12138725158E-01 -0.19471728185E-01  0.23802863348E-01  0.00000000000E+00 0.  1.
     999901    1    3    3    0    0  0.33229420507E-01  0.11454298337E+00 -0.48508735990E-01  0.88936909486E+00  0.88000000000E+00 0. -1.
        -11    1    4    4    0    0 -0.31918072612E-01 -0.64869130131E-01  0.52914317086E-01  0.89593266918E-01  0.51100000000E-03 0.  1.
         11    1    4    4    0    0 -0.76421816920E-02 -0.37535128084E-01  0.15066147088E-01  0.41164774873E-01  0.51100000000E-03 0. -1.
</event>
<event>
 8    1  0.1030163E+005  0.1043930E+01  0.7957747E-01            NaN
         13   -1    0    0    0    0  0.00000000000E+00  0.00000000000E+00  0.74505805969E-08  0.10566000000E+00  0.10566000000E+00 0. -1.
     999900   -1    0    0    0    0 -0.00000000000E+00 -0.00000000000E+00 -0.74505805969E-08  0.93827000000E+00  0.93827000000E+00 0.  1.
     999902    2    1    2    0    0  0.18300543007E-01  0.10074853710E-01 -0.11086704215E-01  0.10202798930E+01  0.10200057512E+01 0.  0.
     999903    2    3    3    0    0  0.10209466628E+00 -0.37939205025E-01 -0.74729596622E-01  0.13271174197E+00  0.12852613950E-01 0.  0.
         14    1    1    2    0    0 -0.18300543007E-01 -0.10074853710E-01  0.11086704215E-01  0.23650107019E-01  0.00000000000E+00 0. -1.
     999901    1    3    3    0    0 -0.83794123272E-01  0.48014058735E-01  0.63642892407E-01  0.88756815101E+00  0.88000000000E+00 0. -1.
        -11    1    4    4    0    0  0.25511632129E-01 -0.43211603114E-02 -0.20694933013E-01  0.33136945751E-01  0.51100000000E-03 0.  1.
         11    1    4    4    0    0  0.76583034151E-01 -0.33618044714E-01 -0.54034663609E-01  0.99574796221E-01  0.51100000000E-03 0. -1.
</event>
<event>
 7    1  0.1030163E+005  0.1043930E+01  0.7957747E-01            NaN
         13   -1    0    0    0    0  0.00000000000E+00  0.00000000000E+00  0.74505805969E-08  0.10566000000E+00  0.10566000000E+00 0. -1.
     999900   -1    0    0    0    0 -0.00000000000E+00 -0.00000000000E+00 -0.74505805969E-08  0.93827000000E+00  0.93827000000E+00 0. -1.
     999902    2    1    2    0    0  0.21510830185E-01  0.92986919302E-03  0.76296660747E-02  0.10210872270E+01  0.10208316869E+01 0.  0.
         14    1    1    2    0    0 -0.21510830185E-01 -0.92986919302E-03 -0.76296660747E-02  0.22842772957E-01  0.00000000000E+00 0. -1.
     999901    1    3    3    0    0 -0.83132031552E-01  0.34705589436E-01  0.86657606182E-02  0.88464145732E+00  0.88000000000E+00 0. -1.
        -11    1    3    3    0    0  0.32593312062E-01 -0.45604332348E-01 -0.22403445485E-01  0.60367661961E-01  0.51100000000E-03 0. -1.
         11    1    3    3    0    0  0.72049549676E-01  0.11828612105E-01  0.21367350941E-01  0.76078107758E-01  0.51100000000E-03 0.  1.
</event>
<event>
 8    1  0.1030163E+005  0.1043930E+01  0.7957747E-01            NaN
         13   -1    0    0    0    0  0.00000000000E+00  0.00000000000E+00  0.74505805969E-08  0.10566000000E+00  0.10566000000E+00 0. -1.
     999900   -1    0    0    0    0 -0.00000000000E+00 -0.00000000000E+00 -0.74505805969E-08  0.93827000000E+00  0.93827000000E+00 0.  1.
     999902    2    1    2    0    0  0.70121811551E-02  0.19305078198E-01  0.11853679069E-01  0.10202157335E+01  0.10199400847E+01 0.  0.
     999903    2    3    3    0    0  0.46206147035E-01 -0.10638925418E+00  0.53802362948E-01  0.12943241290E+00  0.20109048273E-01 0.  0.
         14    1    1    2    0    0 -0.70121811551E-02 -0.19305078198E-01 -0.11853679069E-01  0.23714266514E-01  0.00000000000E+00 0.  1.
     999901    1    3    3    0    0 -0.39193965880E-01  0.12569433238E+00 -0.41948683879E-01  0.89078332058E+00  0.88000000000E+00 0. -1.
        -11    1    4    4    0    0  0.23034402217E-01 -0.40631716281E-01  0.12336705409E-01  0.48311235492E-01  0.51100000000E-03 0.  1.
         11    1    4    4    0    0  0.23171744818E-01 -0.65757537896E-01  0.41465657539E-01  0.81121177409E-01  0.51100000000E-03 0. -1.
</event>
<event>
 8    1  0.1030163E+005  0.1043930E+01  0.7957747E-01            NaN
         13   -1    0    0    0    0  0.00000000000E+00  0.00000000000E+00  0.74505805969E-08  0.10566000000E+00  0.10566000000E+00 0.  1.
     999900   -1    0    0    0    0 -0.00000000000E+00 -0.00000000000E+00 -0.74505805969E-08  0.93827000000E+00  0.93827000000E+00 0.  1.
     999902    2    1    2    0    0 -0.17748610984E-01 -0.53866932391E-02 -0.19201962782E-01  0.10172327149E+01  0.10168823193E+01 0.  0.
     999903    2    3    3    0    0 -0.11327541566E+00 -0.57018553340E-01 -0.23924255960E-01  0.13054589341E+00  0.19683115723E-01 0.  0.
         14    1    1    2    0    0  0.17748610984E-01  0.53866932391E-02  0.19201962782E-01  0.26697285079E-01  0.00000000000E+00 0. -1.
     999901    1    3    3    0    0  0.95526804677E-01  0.51631860101E-01  0.47222931784E-02  0.88668682151E+00  0.88000000000E+00 0.  1.
        -11    1    4    4    0    0 -0.10581434784E+00 -0.46913731897E-01 -0.20990889330E-01  0.11763695425E+00  0.51100000000E-03 0.  1.
         11    1    4    4    0    0 -0.74610678198E-02 -0.10104821443E-01 -0.29333666304E-02  0.12908939158E-01  0.51100000000E-03 0. -1.
</event>
<event>
 8    1  0.1030163E+005  0.1043930E+01  0.7957747E-01            NaN
         13   -1    0    0    0    0  0.00000000000E+00  0.00000000000E+00  0.74505805969E-08  0.10566000000E+00  0.10566000000E+00 0. -1.
     999900   -1    0    0    0    0 -0.00000000000E+00 -0.00000000000E+00 -0.74505805969E-08  0.93827000000E+00  0.93827000000E+00 0. -1.
     999902    2    1    2    0    0  0.20525644941E-01 -0.26425963484E-02  0.12668716242E-01  0.10196651739E+01  0.10193764197E+01 0.  0.
     999903    2    3    3    0    0 -0.11563948142E+00  0.49652720885E-01  0.21911655587E-05  0.12756866413E+00  0.20877780249E-01 0.  0.
         14    1    1    2    0    0 -0.20525644941E-01  0.26425963484E-02 -0.12668716242E-01  0.24264826126E-01  0.00000000000E+00 0.  1.
     999901    1    3    3    0    0  0.13616512636E+00 -0.52295317233E-01  0.12666525076E-01  0.89209650975E+00  0.88000000000E+00 0. -1.
        -11    1    4    4    0    0 -0.94849642084E-01  0.41394494697E-01  0.80181896592E-02  0.10380034336E+00  0.51100000000E-03 0.  1.
         11    1    4    4    0    0 -0.20789839338E-01  0.82582261871E-02 -0.80159984936E-02  0.23768320772E-01  0.51100000000E-03 0. -1.
</event>
<event>
 8    1  0.1030163E+005  0.1043930E+01  0.7957747E-01            NaN
         13   -1    0    0    0    0  0.00000000000E+00  0.00000000000E+00  0.74505805969E-08  0.10566000000E+00  0.10566000000E+00 0.  1.
     999900   -1    0    0    0    0 -0.00000000000E+00 -0.00000000000E+00 -0.74505805969E-08  0.93827000000E+00  0.93827000000E+00 0. -1.
     999902    2    1    2    0    0  0.19992697412E-01 -0.56482075536E-02 -0.68380465732E-02  0.10220583499E+01  0.10218243007E+01 0.  0.
     999903    2    3    3    0    0  0.54689775114E-02  0.18796122835E-02  0.12977222293E+00  0.13136762227E+00  0.19574975816E-01 0.  0.
         14    1    1    2    0    0 -0.19992697412E-01  0.56482075536E-02  0.68380465732E-02  0.21871650128E-01  0.00000000000E+00 0.  1.
     999901    1    3    3    0    0  0.14523719901E-01 -0.75278198371E-02 -0.13661026950E+00  0.89069072761E+00  0.88000000000E+00 0. -1.
        -11    1    4    4    0    0  0.11392238699E-01  0.18765146275E-02  0.11267612416E+00  0.11326727014E+00  0.51100000000E-03 0. -1.
         11    1    4    4    0    0 -0.59232611873E-02  0.30976559895E-05  0.17096098771E-01  0.18100352120E-01  0.51100000000E-03 0.  1.
</event>
<event>
 8    1  0.1030163E+005  0.1043930E+01  0.7957747E-01            NaN
         13   -1    0    0    0    0  0.00000000000E+00  0.00000000000E+00  0.74505805969E-08  0.10566000000E+00  0.10566000000E+00 0.  1.
     999900   -1    0    0    0    0 -0.00000000000E+00 -0.00000000000E+00 -0.74505805969E-08  0.93827000000E+00  0.93827000000E+00 0.  1.
     999902    2    1    2    0    0  0.27082771263E-01 -0.20017081285E-02 -0.35669312334E-02  0.10165401053E+01  0.10161710384E+01 0.  0.
     999903    2    3    3    0    0 -0.57052116362E-01  0.27837956819E-01  0.10619011588E+00  0.12524010285E+00  0.19463988069E-01 0.  0.
         14    1    1    2    0    0 -0.27082771263E-01  0.20017081285E-02  0.35669312334E-02  0.27389894727E-01  0.00000000000E+00 0. -1.
     999901    1    3    3    0    0  0.84134887626E-01 -0.29839664948E-01 -0.10975704711E+00  0.89130000242E+00  0.88000000000E+00 0.  1.
        -11    1    4    4    0    0 -0.30128409045E-01  0.11038969717E-01  0.70613697098E-01  0.77563749412E-01  0.51100000000E-03 0.  1.
         11    1    4    4    0    0 -0.26923707318E-01  0.16798987102E-01  0.35576418781E-01  0.47676353443E-01  0.51100000000E-03 0. -1.
</event>
<event>
 8    1  0.1030163E+005  0.1043930E+01  0.7957747E-01            NaN
         13   -1    0    0    0    0  0.00000000000E+00  0.00000000000E+00  0.74505805969E-08  0.10566000000E+00  0.10566000000E+00 0.  1.
     999900   -1    0    0    0    0 -0.00000000000E+00 -0.00000000000E+00 -0.74505805969E-08  0.93827000000E+00  0.93827000000E+00 0.  1.
     999902    2    1    2    0    0  0.19173195898E-01  0.11268895931E-01 -0.77405706796E-02  0.10203818389E+01  0.10201100829E+01 0.  0.
     999903    2    3    3    0    0  0.13947380479E-01 -0.18859196965E-01 -0.12798126231E+00  0.13167894421E+00  0.20247027265E-01 0.  0.
         14    1    1    2    0    0 -0.19173195898E-01 -0.11268895931E-01  0.77405706796E-02  0.23548161093E-01  0.00000000000E+00 0.  1.
     999901    1    3    3    0    0  0.52258154187E-02  0.30128092896E-01  0.12024069163E+00  0.88870289470E+00  0.88000000000E+00 0. -1.
        -11    1    4    4    0    0  0.17999276974E-01 -0.86395486338E-02 -0.81002578984E-01  0.83428380634E-01  0.51100000000E-03 0. -1.
         11    1    4    4    0    0 -0.40518964949E-02 -0.10219648331E-01 -0.46978683323E-01  0.48250563571E-01  0.51100000000E-03 0.  1.
</event>
<event>
 8    1  0.1030163E+005  0.1043930E+01  0.7957747E-01            NaN
         13   -1    0    0    0    0  0.00000000000E+00  0.00000000000E+00  0.74505805969E-08  0.10566000000E+00  0.10566000000E+00 0.  1.
     999900   -1    0    0    0    0 -0.00000000000E+00 -0.00000000000E+00 -0.74505805969E-08  0.93827000000E+00  0.93827000000E+00 0. -1.
     999902    2    1    2    0    0 -0.21069620683E-01  0.97186136149E-02 -0.64538496027E-02  0.10198461353E+01  0.10195617230E+01 0.  0.
     999903    2    3    3    0    0 -0.79772603107E-01  0.94868921403E-01 -0.43952033475E-01  0.13299624443E+00  0.19810081567E-01 0.  0.
         14    1    1    2    0    0  0.21069620683E-01 -0.97186136149E-02  0.64538496027E-02  0.24083864744E-01  0.00000000000E+00 0. -1.
     999901    1    3    3    0    0  0.58702982424E-01 -0.85150307788E-01  0.37498183872E-01  0.88684989082E+00  0.88000000000E+00 0.  1.
        -11    1    4    4    0    0 -0.55035104380E-01  0.50403189382E-01 -0.26859839323E-01  0.79316179330E-01  0.51100000000E-03 0.  1.
         11    1    4    4    0    0 -0.24737498727E-01  0.44465732020E-01 -0.17092194152E-01  0.53680065101E-01  0.51100000000E-03 0. -1.
</event>
<event>
 8    1  0.1030163E+005  0.1043930E+01  0.7957747E-01            NaN
         13   -1    0    0    0    0  0.00000000000E+00  0.00000000000E+00  0.74505805969E-08  0.10566000000E+00  0.10566000000E+00 0.  1.
     999900   -1    0    0    0    0 -0.00000000000E+00 -0.00000000000E+00 -0.74505805969E-08  0.93827000000E+00  0.93827000000E+00 0. -1.
     999902    2    1    2    0    0  0.19664625198E-01  0.31541769819E-02  0.69557793243E-02  0.10228342852E+01  0.10226167150E+01 0.  0.
     999903    2    3    3    0    0 -0.98484971622E-01  0.79484838190E-01  0.29832214149E-01  0.13136974394E+00  0.18732845056E-01 0.  0.
         14    1    1    2    0    0 -0.19664625198E-01 -0.31541769819E-02 -0.69557793243E-02  0.21095714793E-01  0.00000000000E+00 0. -1.
     999901    1    3    3    0    0  0.11814959682E+00 -0.76330661208E-01 -0.22876434824E-01  0.89146454127E+00  0.88000000000E+00 0.  1.
        -11    1    4    4    0    0 -0.85011995216E-01  0.70562360461E-01  0.19520400647E-01  0.11219355243E+00  0.51100000000E-03 0.  1.
         11    1    4    4    0    0 -0.13472976406E-01  0.89224777289E-02  0.10311813502E-01  0.19176191508E-01  0.51100000000E-03 0. -1.
</event>
<event>
 8    1  0.1030163E+005  0.1043930E+01  0.7957747E-01            NaN
         13   -1    0    0    0    0  0.00000000000E+00  0.00000000000E+00  0.74505805969E-08  0.10566000000E+00  0.10566000000E+00 0.  1.
     999900   -1    0    0    0    0 -0.00000000000E+00 -0.00000000000E+00 -0.74505805969E-08  0.93827000000E+00  0.93827000000E+00 0. -1.
     999902    2    1    2    0    0  0.15222933767E-01  0.92524074486E-02 -0.24209999268E-01  0.10138722419E+01  0.10134265904E+01 0.  0.
     999903    2    3    3    0    0  0.31445663390E-01  0.10027565225E+00  0.63856445405E-01  0.12465679743E+00  0.20436128405E-01 0.  0.
         14    1    1    2    0    0 -0.15222933767E-01 -0.92524074486E-02  0.24209999268E-01  0.30057758077E-01  0.00000000000E+00 0.  1.
     999901    1    3    3    0    0 -0.16222729623E-01 -0.91023244805E-01 -0.88066444673E-01  0.88921544450E+00  0.88000000000E+00 0. -1.
        -11    1    4    4    0    0  0.14312179130E-01  0.50577528881E-01  0.43684269951E-01  0.68348383019E-01  0.51100000000E-03 0. -1.
         11    1    4    4    0    0  0.17133484260E-01  0.49698123372E-01  0.20172175454E-01  0.56308414408E-01  0.51100000000E-03 0.  1.
</event>
<event>
 8    1  0.1030163E+005  0.1043930E+01  0.7957747E-01            NaN
         13   -1    0    0    0    0  0.00000000000E+00  0.00000000000E+00  0.74505805969E-08  0.10566000000E+00  0.10566000000E+00 0.  1.
     999900   -1    0    0    0    0 -0.00000000000E+00 -0.00000000000E+00 -0.74505805969E-08  0.93827000000E+00  0.93827000000E+00 0.  1.
     999902    2    1    2    0    0 -0.12026032779E-01  0.13404985362E-01  0.16023928809E-01  0.10198242872E+01  0.10195393525E+01 0.  0.
     999903    2    3    3    0    0  0.10216975578E+00 -0.59274241230E-01 -0.43575957586E-01  0.12748181111E+00  0.20016328718E-01 0.  0.
         14    1    1    2    0    0  0.12026032779E-01 -0.13404985362E-01 -0.16023928809E-01  0.24105712838E-01  0.00000000000E+00 0. -1.
     999901    1    3    3    0    0 -0.11419578856E+00  0.72679226592E-01  0.59599886395E-01  0.89234247605E+00  0.88000000000E+00 0.  1.
        -11    1    4    4    0    0  0.46592685090E-01 -0.21559999124E-01 -0.28202192843E-01  0.58577612347E-01  0.51100000000E-03 0. -1.
         11    1    4    4    0    0  0.55577070691E-01 -0.37714242106E-01 -0.15373764744E-01  0.68904198766E-01  0.51100000000E-03 0.  1.
</event>
<event>
 8    1  0.1030163E+005  0.1043930E+01  0.7957747E-01            NaN
         13   -1    0    0    0    0  0.00000000000E+00  0.00000000000E+00  0.74505805969E-08  0.10566000000E+00  0.10566000000E+00 0.  1.
     999900   -1    0    0    0    0 -0.00000000000E+00 -0.00000000000E+00 -0.74505805969E-08  0.93827000000E+00  0.93827000000E+00 0.  1.
     999902    2    1    2    0    0 -0.18497431342E-01  0.10588643469E-01  0.87199513955E-02  0.10209014983E+01  0.10206417380E+01 0.  0.
     999903    2    3    3    0    0 -0.31886663039E-01  0.97278527019E-01 -0.80957129294E-01  0.13200533666E+00  0.19785879411E-01 0.  0.
         14    1    1    2    0    0  0.18497431342E-01 -0.10588643469E-01 -0.87199513955E-02  0.23028501669E-01  0.00000000000E+00 0.  1.
     999901    1    3    3    0    0  0.13389231697E-01 -0.86689883550E-01  0.89677080689E-01  0.88889616167E+00  0.88000000000E+00 0. -1.
        -11    1    4    4    0    0 -0.20250267441E-01  0.32578578791E-01 -0.33426780546E-01  0.50882687686E-01  0.51100000000E-03 0.  1.
         11    1    4    4    0    0 -0.11636395598E-01  0.64699948229E-01 -0.47530348748E-01  0.81122648973E-01  0.51100000000E-03 0. -1.
</event>
<event>
 8    1  0.1030163E+005  0.1043930E+01  0.7957747E-01            NaN
         13   -1    0    0    0    0  0.00000000000E+00  0.00000000000E+00  0.74505805969E-08  0.10566000000E+00  0.10566000000E+00 0. -1.
     999900   -1    0    0    0    0 -0.00000000000E+00 -0.00000000000E+00 -0.74505805969E-08  0.93827000000E+00  0.93827000000E+00 0. -1.
     999902    2    1    2    0    0  0.45638582668E-02  0.18117518133E-01 -0.43655694927E-02  0.10247432477E+01  0.10245636107E+01 0.  0.
     999903    2    3    3    0    0 -0.11968690959E+00  0.42947823420E-01  0.39717968369E-01  0.13457576030E+00  0.19069514527E-01 0.  0.
         14    1    1    2    0    0 -0.45638582668E-02 -0.18117518133E-01  0.43655694927E-02  0.19186752268E-01  0.00000000000E+00 0.  1.
     999901    1    3    3    0    0  0.12425076786E+00 -0.24830305287E-01 -0.44083537862E-01  0.89016748743E+00  0.88000000000E+00 0. -1.
        -11    1    4    4    0    0 -0.45937339359E-01  0.24943677590E-01  0.21359112436E-01  0.56470337383E-01  0.51100000000E-03 0.  1.
         11    1    4    4    0    0 -0.73749570233E-01  0.18004145830E-01  0.18358855934E-01  0.78105422916E-01  0.51100000000E-03 0. -1.
</event>
<event>
 8    1  0.1030163E+005  0.1043930E+01  0.7957747E-01            NaN
         13   -1    0    0    0    0  0.00000000000E+00  0.00000000000E+00  0.74505805969E-08  0.10566000000E+00  0.10566000000E+00 0.  1.
     999900   -1    0    0    0    0 -0.00000000000E+00 -0.00000000000E+00 -0.74505805969E-08  0.93827000000E+00  0.93827000000E+00 0.  1.
     999902    2    1    2    0    0 -0.13147158742E-01  0.33982740110E-03 -0.20214910218E-01  0.10198134940E+01  0.10195283011E+01 0.  0.
     999903    2    3    3    0    0 -0.30553657788E-01 -0.88640220853E-02 -0.12766754068E+00  0.13305886908E+00  0.19838467839E-01 0.  0.
         14    1    1    2    0    0  0.13147158742E-01 -0.33982740110E-03  0.20214910218E-01  0.24116505982E-01  0.00000000000E+00 0.  1.
     999901    1    3    3    0    0  0.17406499046E-01  0.92038494864E-02  0.10745263046E+00  0.88675462494E+00  0.88000000000E+00 0. -1.
        -11    1    4    4    0    0 -0.20257070709E-01 -0.94263642219E-02 -0.50769130461E-01  0.55470451458E-01  0.51100000000E-03 0.  1.
         11    1    4    4    0    0 -0.10296587079E-01  0.56234213663E-03 -0.76898410218E-01  0.77588417623E-01  0.51100000000E-03 0. -1.
</event>
<event>
 8    1  0.1030163E+005  0.1043930E+01  0.7957747E-01            NaN
         13   -1    0    0    0    0  0.00000000000E+00  0.00000000000E+00  0.74505805969E-08  0.10566000000E+00  0.10566000000E+00 0. -1.
     999900   -1    0    0    0    0 -0.00000000000E+00 -0.00000000000E+00 -0.74505805969E-08  0.93827000000E+00  0.93827000000E+00 0. -1.
     999902    2    1    2    0    0  0.12318064476E-01  0.17321973989E-01  0.11384816779E-01  0.10198177718E+01  0.10195326813E+01 0.  0.
     999903    2    3    3    0    0 -0.17855253924E-01 -0.10911561101E+00 -0.60485170116E-01  0.12737046969E+00  0.18432419425E-01 0.  0.
         14    1    1    2    0    0 -0.12318064476E-01 -0.17321973989E-01 -0.11384816779E-01  0.24112228192E-01  0.00000000000E+00 0. -1.
     999901    1    3    3    0    0  0.30173318400E-01  0.12643758500E+00  0.71869986896E-01  0.89244730212E+00  0.88000000000E+00 0.  1.
        -11    1    4    4    0    0  0.52560561073E-03 -0.52698830860E-01 -0.26535329210E-01  0.59007015283E-01  0.51100000000E-03 0.  1.
         11    1    4    4    0    0 -0.18380859534E-01 -0.56416780150E-01 -0.33949840907E-01  0.68363454406E-01  0.51100000000E-03 0. -1.
</event>
<event>
 8    1  0.1030163E+005  0.1043930E+01  0.7957747E-01            NaN
         13   -1    0    0    0    0  0.00000000000E+00  0.00000000000E+00  0.74505805969E-08  0.10566000000E+00  0.10566000000E+00 0.  1.
     999900   -1    0    0    0    0 -0.00000000000E+00 -0.00000000000E+00 -0.74505805969E-08  0.93827000000E+00  0.93827000000E+00 0. -1.
     999902    2    1    2    0    0  0.21344725394E-01  0.35132542094E-02  0.66770531812E-02  0.10212910226E+01  0.10210400725E+01 0.  0.
     999903    2    3    3    0    0  0.10942835798E-01  0.12477626173E+00 -0.36299429861E-01  0.13187554357E+00  0.19612476547E-01 0.  0.
         14    1    1    2    0    0 -0.21344725394E-01 -0.35132542094E-02 -0.66770531812E-02  0.22638977372E-01  0.00000000000E+00 0.  1.
     999901    1    3    3    0    0  0.10401889596E-01 -0.12126300752E+00  0.42976483042E-01  0.88941547906E+00  0.88000000000E+00 0. -1.
        -11    1    4    4    0    0  0.60685497268E-02  0.29899245248E-01 -0.10110607495E-02  0.30529912005E-01  0.51100000000E-03 0. -1.
         11    1    4    4    0    0  0.48742860714E-02  0.94877016481E-01 -0.35288369112E-01  0.10134563156E+00  0.51100000000E-03 0.  1.
</event>
<event>
 8    1  0.1030163E+005  0.1043930E+01  0.7957747E-01            NaN
         13   -1    0    0    0    0  0.00000000000E+00  0.00000000000E+00  0.74505805969E-08  0.10566000000E+00  0.10566000000E+00 0.  1.
     999900   -1    0    0    0    0 -0.00000000000E+00 -0.00000000000E+00 -0.74505805969E-08  0.93827000000E+00  0.93827000000E+00 0.  1.
     999902    2    1    2    0    0 -0.10973046753E-01 -0.25754357689E-02  0.21852739863E-01  0.10193417332E+01  0.10190451345E+01 0.  0.
     999903    2    3    3    0    0 -0.89274935168E-01  0.35247206962E-01 -0.83004664111E-01  0.12886050757E+00  0.22424908034E-01 0.  0.
         14    1    1    2    0    0  0.10973046753E-01  0.25754357689E-02 -0.21852739863E-01  0.24588266795E-01  0.00000000000E+00 0. -1.
     999901    1    3    3    0    0  0.78301888415E-01 -0.37822642730E-01  0.10485740397E+00  0.89048122563E+00  0.88000000000E+00 0.  1.
        -11    1    4    4    0    0 -0.50269079963E-01  0.10975217196E-01 -0.53662366042E-01  0.74346125945E-01  0.51100000000E-03 0. -1.
         11    1    4    4    0    0 -0.39005855205E-01  0.24271989766E-01 -0.29342298069E-01  0.54514381630E-01  0.51100000000E-03 0.  1.
</event>
<event>
 8    1  0.1030163E+005  0.1043930E+01  0.7957747E-01            NaN
         13   -1    0    0    0    0  0.00000000000E+00  0.00000000000E+00  0.74505805969E-08  0.10566000000E+00  0.10566000000E+00 0.  1.
     999900   -1    0    0    0    0 -0.00000000000E+00 -0.00000000000E+00 -0.74505805969E-08  0.93827000000E+00  0.93827000000E+00 0. -1.
     999902    2    1    2    0    0 -0.19908132974E-01  0.11290225467E-01  0.68396698198E-02  0.10200430991E+01  0.10197633745E+01 0.  0.
     999903    2    3    3    0    0 -0.11230400669E+00  0.20347306828E-01 -0.63836171364E-01  0.13234151486E+00  0.20322818900E-01 0.  0.
         14    1    1    2    0    0  0.19908132974E-01 -0.11290225467E-01 -0.68396698198E-02  0.23886900863E-01  0.00000000000E+00 0. -1.
     999901    1    3    3    0    0  0.92395873711E-01 -0.90570813605E-02  0.70675841184E-01  0.88770158428E+00  0.88000000000E+00 0.  1.
        -11    1    4    4    0    0 -0.93078230686E-01  0.24480521230E-01 -0.52317777644E-01  0.10954571615E+00  0.51100000000E-03 0. -1.
         11    1    4    4    0    0 -0.19225775999E-01 -0.41332144025E-02 -0.11518393720E-01  0.22795798713E-01  0.51100000000E-03 0.  1.
</event>
<event>
 8    1  0.1030163E+005  0.1043930E+01  0.7957747E-01            NaN
         13   -1    0    0    0    0  0.00000000000E+00  0.00000000000E+00  0.74505805969E-08  0.10566000000E+00  0.10566000000E+00 0. -1.
     999900   -1    0    0    0    0 -0.00000000000E+00 -0.00000000000E+00 -0.74505805969E-08  0.93827000000E+00  0.93827000000E+00 0. -1.
     999902    2    1    2    0    0  0.86163671281E-02  0.21010546009E-02 -0.20025296165E-01  0.10220286599E+01  0.10217939679E+01 0.  0.
     999903    2    3    3    0    0 -0.10504864861E-01 -0.57431173786E-01 -0.11927581739E+00  0.13424469195E+00  0.19652602741E-01 0.  0.
         14    1    1    2    0    0 -0.86163671281E-02 -0.21010546009E-02  0.20025296165E-01  0.21901340129E-01  0.00000000000E+00 0. -1.
     999901    1    3    3    0    0  0.19121231989E-01  0.59532228387E-01  0.99250521228E-01  0.88778396792E+00  0.88000000000E+00 0.  1.
        -11    1    4    4    0    0 -0.52647394457E-02 -0.44518650434E-01 -0.70778225403E-01  0.83782134313E-01  0.51100000000E-03 0.  1.
         11    1    4    4    0    0 -0.52401254150E-02 -0.12912523352E-01 -0.48497591990E-01  0.50462557639E-01  0.51100000000E-03 0. -1.
</event>
<event>
 8    1  0.1030163E+005  0.1043930E+01  0.7957747E-01            NaN
         13   -1    0    0    0    0  0.00000000000E+00  0.00000000000E+00  0.74505805969E-08  0.10566000000E+00  0.10566000000E+00 0.  1.
     999900   -1    0    0    0    0 -0.00000000000E+00 -0.00000000000E+00 -0.74505805969E-08  0.93827000000E+00  0.93827000000E+00 0.  1.
     999902    2    1    2    0    0 -0.21171570952E-01 -0.42352883274E-02  0.12439237836E-01  0.10190119800E+01  0.10187072728E+01 0.  0.
     999903    2    3    3    0    0 -0.10021053678E+00  0.76127035707E-01  0.32656736774E-01  0.13159211965E+00  0.20311234598E-01 0.  0.
         14    1    1    2    0    0  0.21171570952E-01  0.42352883274E-02 -0.12439237836E-01  0.24918020021E-01  0.00000000000E+00 0. -1.
     999901    1    3    3    0    0  0.79038965824E-01 -0.80362324034E-01 -0.20217498938E-01  0.88741986033E+00  0.88000000000E+00 0.  1.
        -11    1    4    4    0    0 -0.29545489535E-01  0.32648086600E-01  0.16729729338E-01  0.47106034382E-01  0.51100000000E-03 0. -1.
         11    1    4    4    0    0 -0.70665047242E-01  0.43478949107E-01  0.15927007435E-01  0.84486085268E-01  0.51100000000E-03 0.  1.
</event>
<event>
 8    1  0.1030163E+005  0.1043930E+01  0.7957747E-01            NaN
         13   -1    0    0    0    0  0.00000000000E+00  0.00000000000E+00  0.74505805969E-08  0.10566000000E+00  0.10566000000E+00 0. -1.
     999900   -1    0    0    0    0 -0.00000000000E+00 -0.00000000000E+00 -0.74505805969E-08  0.93827000000E+00  0.93827000000E+00 0. -1.
     999902    2    1    2    0    0 -0.77201307807E-02 -0.15807533355E-01 -0.18928311590E-01  0.10180889569E+01  0.10177609565E+01 0.  0.
     999903    2    3    3    0    0 -0.10640146539E+00  0.33827273010E-01 -0.64456848677E-01  0.13001549849E+00  0.16846016447E-01 0.  0.
         14    1    1    2    0    0  0.77201307807E-02  0.15807533355E-01  0.18928311590E-01  0.25841043123E-01  0.00000000000E+00 0. -1.
     999901    1    3    3    0    0  0.98681334607E-01 -0.49634806364E-01  0.45528537087E-01  0.88807345839E+00  0.88000000000E+00 0.  1.
        -11    1    4    4    0    0 -0.66052149876E-01  0.16251106836E-01 -0.46920643543E-01  0.82636510624E-01  0.51100000000E-03 0. -1.
         11    1    4    4    0    0 -0.40349315512E-01  0.17576166174E-01 -0.17536205134E-01  0.47378987865E-01  0.51100000000E-03 0.  1.
</event>
<event>
 8    1  0.1030163E+005  0.1043930E+01  0.7957747E-01            NaN
         13   -1    0    0    0    0  0.00000000000E+00  0.00000000000E+00  0.74505805969E-08  0.10566000000E+00  0.10566000000E+00 0.  1.
     999900   -1    0    0    0    0 -0.00000000000E+00 -0.00000000000E+00 -0.74505805969E-08  0.93827000000E+00  0.93827000000E+00 0.  1.
     999902    2    1    2    0    0  0.38746340692E-02  0.25055564035E-01  0.17227451095E-02  0.10185181538E+01  0.10182010939E+01 0.  0.
     999903    2    3    3    0    0  0.10884874540E+00 -0.56562605807E-01 -0.28863814030E-01  0.12800334350E+00  0.22457925950E-01 0.  0.
         14    1    1    2    0    0 -0.38746340692E-02 -0.25055564035E-01 -0.17227451095E-02  0.25411846233E-01  0.00000000000E+00 0.  1.
     999901    1    3    3    0    0 -0.10497411133E+00  0.81618169842E-01  0.30586559139E-01  0.89051481026E+00  0.88000000000E+00 0. -1.
        -11    1    4    4    0    0  0.26501696039E-01 -0.66144010872E-02  0.46746814062E-03  0.27323430278E-01  0.51100000000E-03 0. -1.
         11    1    4    4    0    0  0.82347049357E-01 -0.49948204720E-01 -0.29331282170E-01  0.10067991323E+00  0.51100000000E-03 0.  1.
</event>
<event>
 8    1  0.1030163E+005  0.1043930E+01  0.7957747E-01            NaN
         13   -1    0    0    0    0  0.00000000000E+00  0.00000000000E+00  0.74505805969E-08  0.10566000000E+00  0.10566000000E+00 0.  1.
     999900   -1    0    0    0    0 -0.00000000000E+00 -0.00000000000E+00 -0.74505805969E-08  0.93827000000E+00  0.93827000000E+00 0.  1.
     999902    2    1    2    0    0  0.19117892975E-01 -0.13311061200E-01 -0.42848688108E-02  0.10202437533E+01  0.10199687632E+01 0.  0.
     999903    2    3    3    0    0  0.84913153064E-01  0.96619696417E-01 -0.12315454408E-01  0.13093037882E+00  0.21106500938E-01 0.  0.
         14    1    1    2    0    0 -0.19117892975E-01  0.13311061200E-01  0.42848688108E-02  0.23686246701E-01  0.00000000000E+00 0.  1.
     999901    1    3    3    0    0 -0.65795260089E-01 -0.10993075762E+00  0.80305855975E-02  0.88931337448E+00  0.88000000000E+00 0.  1.
        -11    1    4    4    0    0  0.62222246291E-02  0.14531548790E-01  0.32770218678E-02  0.16151841471E-01  0.51100000000E-03 0.  1.
         11    1    4    4    0    0  0.78690928435E-01  0.82088147627E-01 -0.15592476276E-01  0.11477853735E+00  0.51100000000E-03 0. -1.
</event>
<event>
 8    1  0.1030163E+005  0.1043930E+01  0.7957747E-01            NaN
         13   -1    0    0    0    0  0.00000000000E+00  0.00000000000E+00  0.74505805969E-08  0.10566000000E+00  0.10566000000E+00 0. -1.
     999900   -1    0    0    0    0 -0.00000000000E+00 -0.00000000000E+00 -0.74505805969E-08  0.93827000000E+00  0.93827000000E+00 0.  1.
     999902    2    1    2    0    0 -0.83116479694E-05  0.10581245111E-01  0.20475219239E-01  0.10208822795E+01  0.10206220805E+01 0.  0.
     999903    2    3    3    0    0  0.95022483245E-01  0.51944273031E-01  0.74959210776E-01  0.13312653754E+00  0.19398760122E-01 0.  0.
         14    1    1    2    0    0  0.83116479694E-05 -0.10581245111E-01 -0.20475219239E-01  0.23047720497E-01  0.00000000000E+00 0. -1.
     999901    1    3    3    0    0 -0.95030794893E-01 -0.41363027919E-01 -0.54483991536E-01  0.88775574196E+00  0.88000000000E+00 0.  1.
        -11    1    4    4    0    0  0.53294157135E-01  0.30941872653E-01  0.53933512372E-01  0.81894758964E-01  0.51100000000E-03 0. -1.
         11    1    4    4    0    0  0.41728326111E-01  0.21002400378E-01  0.21025698404E-01  0.51231778575E-01  0.51100000000E-03 0.  1.
</event>
<event>
 8    1  0.1030163E+005  0.1043930E+01  0.7957747E-01            NaN
         13   -1    0    0    0    0  0.00000000000E+00  0.00000000000E+00  0.74505805969E-08  0.10566000000E+00  0.10566000000E+00 0. -1.
     999900   -1    0    0    0    0 -0.00000000000E+00 -0.00000000000E+00 -0.74505805969E-08  0.93827000000E+00  0.93827000000E+00 0.  1.
     999902    2    1    2    0    0  0.12871592221E-02  0.22607873267E-01  0.49092568382E-02  0.10207594688E+01  0.10204964575E+01 0.  0.
     999903    2    3    3    0    0  0.11634592569E+00  0.46581003144E-01  0.37666534303E-01  0.13234162235E+00  0.19732534605E-01 0.  0.
         14    1    1    2    0    0 -0.12871592221E-02 -0.22607873267E-01 -0.49092568382E-02  0.23170531181E-01  0.00000000000E+00 0.  1.
     999901    1    3    3    0    0 -0.11505876647E+00 -0.23973129877E-01 -0.32757277465E-01  0.88841784647E+00  0.88000000000E+00 0.  1.
        -11    1    4    4    0    0  0.66981049201E-01  0.17288643901E-01  0.16153950385E-01  0.71039210258E-01  0.51100000000E-03 0. -1.
         11    1    4    4    0    0  0.49364876486E-01  0.29292359243E-01  0.21512583918E-01  0.61302412093E-01  0.51100000000E-03 0.  1.
</event>
<event>
 8    1  0.1030163E+005  0.1043930E+01  0.7957747E-01            NaN
         13   -1    0    0    0    0  0.00000000000E+00  0.00000000000E+00  0.74505805969E-08  0.10566000000E+00  0.10566000000E+00 0.  1.
     999900   -1    0    0    0    0 -0.00000000000E+00 -0.00000000000E+00 -0.74505805969E-08  0.93827000000E+00  0.93827000000E+00 0.  1.
     999902    2    1    2    0    0 -0.98889198783E-02  0.14422327297E-01 -0.16356298221E-01  0.10199858410E+01  0.10197047578E+01 0.  0.
     999903    2    3    3    0    0 -0.11507466017E+00  0.41375106549E-01  0.43829568680E-01  0.13127169633E+00  0.18898420920E-01 0.  0.
         14    1    1    2    0    0  0.98889198783E-02 -0.14422327297E-01  0.16356298221E-01  0.23944159048E-01  0.00000000000E+00 0.  1.
     999901    1    3    3    0    0  0.10518574029E+00 -0.26952779252E-01 -0.60185866900E-01  0.88871414462E+00  0.88000000000E+00 0.  1.
        -11    1    4    4    0    0 -0.37532399240E-01  0.23079194515E-01  0.15960753842E-01  0.46865093581E-01  0.51100000000E-03 0.  1.
         11    1    4    4    0    0 -0.77542260927E-01  0.18295912034E-01  0.27868814838E-01  0.84406602753E-01  0.51100000000E-03 0. -1.
</event>
<event>
 8    1  0.1030163E+005  0.1043930E+01  0.7957747E-01            NaN
         13   -1    0    0    0    0  0.00000000000E+00  0.00000000000E+00  0.74505805969E-08  0.10566000000E+00  0.10566000000E+00 0. -1.
     999900   -1    0    0    0    0 -0.00000000000E+00 -0.00000000000E+00 -0.74505805969E-08  0.93827000000E+00  0.93827000000E+00 0. -1.
     999902    2    1    2    0    0  0.66999431307E-02  0.19946563104E-01 -0.11259695968E-01  0.10200650598E+01  0.10197858554E+01 0.  0.
     999903    2    3    3    0    0  0.91291983562E-01 -0.25563634201E-01 -0.90095732159E-01  0.13133444146E+00  0.11990367160E-01 0.  0.
         14    1    1    2    0    0 -0.66999431307E-02 -0.19946563104E-01  0.11259695968E-01  0.23864940204E-01  0.00000000000E+00 0.  1.
     999901    1    3    3    0    0 -0.84592040431E-01  0.45510197306E-01  0.78836036190E-01  0.88873061833E+00  0.88000000000E+00 0.  1.
        -11    1    4    4    0    0  0.53882835754E-01 -0.21059586568E-01 -0.53186699220E-01  0.78587227144E-01  0.51100000000E-03 0. -1.
         11    1    4    4    0    0  0.37409147808E-01 -0.45040476334E-02 -0.36909032939E-01  0.52747214318E-01  0.51100000000E-03 0.  1.
</event>
<event>
 8    1  0.1030163E+005  0.1043930E+01  0.7957747E-01            NaN
         13   -1    0    0    0    0  0.00000000000E+00  0.00000000000E+00  0.74505805969E-08  0.10566000000E+00  0.10566000000E+00 0.  1.
     999900   -1    0    0    0    0 -0.00000000000E+00 -0.00000000000E+00 -0.74505805969E-08  0.93827000000E+00  0.93827000000E+00 0. -1.
     999902    2    1    2    0    0  0.18507223302E-02  0.18483445122E-01  0.14255464867E-01  0.10205145949E+01  0.10202459298E+01 0.  0.
     999903    2    3    3    0    0  0.11185795672E+00 -0.45586010766E-02  0.67234342986E-01  0.13178556476E+00  0.17719900576E-01 0.  0.
         14    1    1    2    0    0 -0.18507223302E-02 -0.18483445122E-01 -0.14255464867E-01  0.23415405085E-01  0.00000000000E+00 0.  1.
     999901    1    3    3    0    0 -0.11000723439E+00  0.23042046199E-01 -0.52978878118E-01  0.88872903015E+00  0.88000000000E+00 0. -1.
        -11    1    4    4    0    0  0.78019976124E-01 -0.98999882691E-02  0.41415253702E-01  0.88885380139E-01  0.51100000000E-03 0.  1.
         11    1    4    4    0    0  0.33837980599E-01  0.53413871925E-02  0.25819089284E-01  0.42900184622E-01  0.51100000000E-03 0. -1.
</event>
<event>
 8    1  0.1030163E+005  0.1043930E+01  0.7957747E-01            NaN
         13   -1    0    0    0    0  0.00000000000E+00  0.00000000000E+00  0.74505805969E-08  0.10566000000E+00  0.10566000000E+00 0. -1.
     999900   -1    0    0    0    0 -0.00000000000E+00 -0.00000000000E+00 -0.74505805969E-08  0.93827000000E+00  0.93827000000E+00 0. -1.
     999902    2    1    2    0    0 -0.73076533749E-03  0.10015204327E-01  0.21782088450E-01  0.10199446354E+01  0.10196625725E+01 0.  0.
     999903    2    3    3    0    0  0.83859297101E-01  0.22319684027E-01 -0.92503745124E-01  0.12844694580E+00  0.20276218039E-01 0.  0.
         14    1    1    2    0    0  0.73076533749E-03 -0.10015204327E-01 -0.21782088450E-01  0.23985364557E-01  0.00000000000E+00 0.  1.
     999901    1    3    3    0    0 -0.84590062439E-01 -0.12304479700E-01  0.11428583357E+00  0.89149768964E+00  0.88000000000E+00 0.  1.
        -11    1    4    4    0    0  0.21501183410E-01  0.62961336026E-02 -0.37876596572E-01  0.44009543002E-01  0.51100000000E-03 0.  1.
         11    1    4    4    0    0  0.62358113691E-01  0.16023550424E-01 -0.54627148552E-01  0.84437402798E-01  0.51100000000E-03 0. -1.
</event>
<event>
 8    1  0.1030163E+005  0.1043930E+01  0.7957747E-01            NaN
         13   -1    0    0    0    0  0.00000000000E+00  0.00000000000E+00  0.74505805969E-08  0.10566000000E+00  0.10566000000E+00 0. -1.
     999900   -1    0    0    0    0 -0.00000000000E+00 -0.00000000000E+00 -0.74505805969E-08  0.93827000000E+00  0.93827000000E+00 0. -1.
     999902    2    1    2    0    0  0.84565605847E-02  0.21372925529E-01  0.46360492397E-02  0.10204820083E+01  0.10202125861E+01 0.  0.
     999903    2    3    3    0    0  0.66135172784E-01 -0.62499404371E-01 -0.89588429519E-01  0.12961746055E+00  0.22238766816E-01 0.  0.
         14    1    1    2    0    0 -0.84565605847E-02 -0.21372925529E-01 -0.46360492397E-02  0.23447991708E-01  0.00000000000E+00 0.  1.
     999901    1    3    3    0    0 -0.57678612200E-01  0.83872329900E-01  0.94224478759E-01  0.89086454774E+00  0.88000000000E+00 0.  1.
        -11    1    4    4    0    0  0.71837127966E-02  0.24222640404E-03 -0.10339140449E-01  0.12602513614E-01  0.51100000000E-03 0.  1.
         11    1    4    4    0    0  0.58951459988E-01 -0.62741630775E-01 -0.79249289071E-01  0.11701494693E+00  0.51100000000E-03 0. -1.
</event>
<event>
 8    1  0.1030163E+005  0.1043930E+01  0.7957747E-01            NaN
         13   -1    0    0    0    0  0.00000000000E+00  0.00000000000E+00  0.74505805969E-08  0.10566000000E+00  0.10566000000E+00 0. -1.
     999900   -1    0    0    0    0 -0.00000000000E+00 -0.00000000000E+00 -0.74505805969E-08  0.93827000000E+00  0.93827000000E+00 0. -1.
     999902    2    1    2    0    0  0.37375255414E-02  0.67498911805E-02 -0.23176152591E-01  0.10195032897E+01  0.10192106227E+01 0.  0.
     999903    2    3    3    0    0 -0.94519340493E-01  0.16628697795E-01  0.82092444238E-01  0.12774464519E+00  0.19212122638E-01 0.  0.
         14    1    1    2    0    0 -0.37375255414E-02 -0.67498911805E-02  0.23176152591E-01  0.24426710320E-01  0.00000000000E+00 0. -1.
     999901    1    3    3    0    0  0.98256866035E-01 -0.98788066145E-02 -0.10526859683E+00  0.89175864449E+00  0.88000000000E+00 0. -1.
        -11    1    4    4    0    0 -0.74150687776E-01  0.20416758292E-01  0.68205034239E-01  0.10279764751E+00  0.51100000000E-03 0. -1.
         11    1    4    4    0    0 -0.20368652718E-01 -0.37880604973E-02  0.13887410000E-01  0.24946997682E-01  0.51100000000E-03 0.  1.
</event>
<event>
 8    1  0.1030163E+005  0.1043930E+01  0.7957747E-01            NaN
         13   -1    0    0    0    0  0.00000000000E+00  0.00000000000E+00  0.74505805969E-08  0.10566000000E+00  0.10566000000E+00 0. -1.
     999900   -1    0    0    0    0 -0.00000000000E+00 -0.00000000000E+00 -0.74505805969E-08  0.93827000000E+00  0.93827000000E+00 0.  1.
     999902    2    1    2    0    0  0.64733252687E-02 -0.15418244160E-01  0.17208139734E-01  0.10199352867E+01  0.10196530012E+01 0.  0.
     999903    2    3    3    0    0  0.12971681916E-01  0.12197215680E+00 -0.30622931651E-01  0.12796770753E+00  0.19811578919E-01 0.  0.
         14    1    1    2    0    0 -0.64733252687E-02  0.15418244160E-01 -0.17208139734E-01  0.23994713295E-01  0.00000000000E+00 0.  1.
     999901    1    3    3    0    0 -0.64983566472E-02 -0.13739040096E+00  0.47831071385E-01  0.89196757918E+00  0.88000000000E+00 0.  1.
        -11    1    4    4    0    0 -0.33142939664E-02  0.51661565866E-01 -0.83805679674E-02  0.52444227258E-01  0.51100000000E-03 0. -1.
         11    1    4    4    0    0  0.16285975882E-01  0.70310590938E-01 -0.22242363683E-01  0.75523480268E-01  0.51100000000E-03 0.  1.
</event>
<event>
 8    1  0.1030163E+005  0.1043930E+01  0.7957747E-01            NaN
         13   -1    0    0    0    0  0.00000000000E+00  0.00000000000E+00  0.74505805969E-08  0.10566000000E+00  0.10566000000E+00 0. -1.
     999900   -1    0    0    0    0 -0.00000000000E+00 -0.00000000000E+00 -0.74505805969E-08  0.93827000000E+00  0.93827000000E+00 0. -1.
     999902    2    1    2    0    0  0.87185368058E-02 -0.20304450916E-02 -0.22202562174E-01  0.10199907152E+01  0.10197097478E+01 0.  0.
     999903    2    3    3    0    0 -0.87619441521E-01  0.84988568770E-01 -0.40766579929E-01  0.13027281740E+00  0.20220523266E-01 0.  0.
         14    1    1    2    0    0 -0.87185368058E-02  0.20304450916E-02  0.22202562174E-01  0.23939284834E-01  0.00000000000E+00 0. -1.
     999901    1    3    3    0    0  0.96337978327E-01 -0.87019013862E-01  0.18564017755E-01  0.88971789776E+00  0.88000000000E+00 0. -1.
        -11    1    4    4    0    0 -0.39275516962E-01  0.25953980164E-01 -0.20310099970E-01  0.51273156727E-01  0.51100000000E-03 0.  1.
         11    1    4    4    0    0 -0.48343924559E-01  0.59034588607E-01 -0.20456479958E-01  0.78999660677E-01  0.51100000000E-03 0. -1.
</event>
<event>
 8    1  0.1030163E+005  0.1043930E+01  0.7957747E-01            NaN
         13   -1    0    0    0    0  0.00000000000E+00  0.00000000000E+00  0.74505805969E-08  0.10566000000E+00  0.10566000000E+00 0.  1.
     999900   -1    0    0    0    0 -0.00000000000E+00 -0.00000000000E+00 -0.74505805969E-08  0.93827000000E+00  0.93827000000E+00 0. -1.
     999902    2    1    2    0    0 -0.17607753513E-01 -0.74427322241E-02  0.13922529391E-01  0.10202812353E+01  0.10200071250E+01 0.  0.
     999903    2    3    3    0    0 -0.23929599199E-01 -0.10598526954E+00 -0.68964742568E-01  0.13088767943E+00  0.23873538319E-01 0.  0.
         14    1    1    2    0    0  0.17607753513E-01  0.74427322241E-02 -0.13922529391E-01  0.23648764691E-01  0.00000000000E+00 0. -1.
     999901    1    3    3    0    0  0.63218456858E-02  0.98542537311E-01  0.82887271959E-01  0.88939355588E+00  0.88000000000E+00 0.  1.
        -11    1    4    4    0    0 -0.31124686279E-02 -0.24501525404E-01 -0.27997417512E-01  0.37338033109E-01  0.51100000000E-03 0.  1.
         11    1    4    4    0    0 -0.20817130571E-01 -0.81483744132E-01 -0.40967325056E-01  0.93549646318E-01  0.51100000000E-03 0. -1.
</event>
<event>
 8    1  0.1030163E+005  0.1043930E+01  0.7957747E-01            NaN
         13   -1    0    0    0    0  0.00000000000E+00  0.00000000000E+00  0.74505805969E-08  0.10566000000E+00  0.10566000000E+00 0. -1.
     999900   -1    0    0    0    0 -0.00000000000E+00 -0.00000000000E+00 -0.74505805969E-08  0.93827000000E+00  0.93827000000E+00 0.  1.
     999902    2    1    2    0    0 -0.10308407373E-01 -0.20984036269E-01 -0.39495350704E-02  0.10202194144E+01  0.10199438522E+01 0.  0.
     999903    2    3    3    0    0 -0.51372876083E-01  0.10805020734E+00  0.42901570345E-01  0.12863029791E+00  0.19778500931E-01 0.  0.
         14    1    1    2    0    0  0.10308407373E-01  0.20984036269E-01  0.39495350704E-02  0.23710585568E-01  0.00000000000E+00 0. -1.
     999901    1    3    3    0    0  0.41064468711E-01 -0.12903424361E+00 -0.46851105416E-01  0.89158911652E+00  0.88000000000E+00 0.  1.
        -11    1    4    4    0    0 -0.16933456611E-01  0.36198839332E-01  0.24412491905E-01  0.46832988414E-01  0.51100000000E-03 0. -1.
         11    1    4    4    0    0 -0.34439419472E-01  0.71851368012E-01  0.18489078440E-01  0.81797309499E-01  0.51100000000E-03 0.  1.
</event>
<event>
 8    1  0.1030163E+005  0.1043930E+01  0.7957747E-01            NaN
         13   -1    0    0    0    0  0.00000000000E+00  0.00000000000E+00  0.74505805969E-08  0.10566000000E+00  0.10566000000E+00 0. -1.
     999900   -1    0    0    0    0 -0.00000000000E+00 -0.00000000000E+00 -0.74505805969E-08  0.93827000000E+00  0.93827000000E+00 0.  1.
     999902    2    1    2    0    0  0.42999520157E-02  0.22283905851E-01 -0.53971801671E-02  0.10206020854E+01  0.10203354473E+01 0.  0.
     999903    2    3    3    0    0 -0.10579664604E+00 -0.43912962715E-01  0.55984855240E-01  0.12915885073E+00  0.20650087102E-01 0.  0.
         14    1    1    2    0    0 -0.42999520157E-02 -0.22283905851E-01  0.53971801671E-02  0.23327914632E-01  0.00000000000E+00 0.  1.
     999901    1    3    3    0    0  0.11009659806E+00  0.66196868567E-01 -0.61382035407E-01  0.89144323464E+00  0.88000000000E+00 0. -1.
        -11    1    4    4    0    0 -0.39810470427E-01 -0.23993475360E-01  0.14430913717E-01  0.48673122021E-01  0.51100000000E-03 0. -1.
         11    1    4    4    0    0 -0.65986175615E-01 -0.19919487355E-01  0.41553941523E-01  0.80485728709E-01  0.51100000000E-03 0.  1.
</event>
<event>
 8    1  0.1339901E+005  0.1043930E+01  0.7957747E-01            NaN
         13   -1    0    0    0    0  0.00000000000E+00  0.00000000000E+00  0.74505805969E-08  0.10566000000E+00  0.10566000000E+00 0. -1.
     999900   -1    0    0    0    0 -0.00000000000E+00 -0.00000000000E+00 -0.74505805969E-08  0.93827000000E+00  0.93827000000E+00 0. -1.
     999902    2    1    2    0    0 -0.31970992419E-03 -0.21625285049E-01  0.80297116001E-02  0.10208598583E+01  0.10205991470E+01 0.  0.
     999903    2    3    3    0    0 -0.10948106066E+00  0.63709111476E-01  0.22540739052E-01  0.12990041502E+00  0.17918687879E-01 0.  0.
         14    1    1    2    0    0  0.31970992419E-03  0.21625285049E-01 -0.80297116001E-02  0.23070141661E-01  0.00000000000E+00 0.  1.
     999901    1    3    3    0    0  0.10916135074E+00 -0.85334396525E-01 -0.14511027452E-01  0.89095944332E+00  0.88000000000E+00 0.  1.
        -11    1    4    4    0    0 -0.51453192347E-01  0.32660472238E-01  0.19602042813E-01  0.64020611157E-01  0.51100000000E-03 0. -1.
         11    1    4    4    0    0 -0.58027868318E-01  0.31048639237E-01  0.29386962391E-02  0.65879803860E-01  0.51100000000E-03 0.  1.
</event>
<event>
 8    1  0.1030163E+005  0.1043930E+01  0.7957747E-01            NaN
         13   -1    0    0    0    0  0.00000000000E+00  0.00000000000E+00  0.74505805969E-08  0.10566000000E+00  0.10566000000E+00 0. -1.
     999900   -1    0    0    0    0 -0.00000000000E+00 -0.00000000000E+00 -0.74505805969E-08  0.93827000000E+00  0.93827000000E+00 0. -1.
     999902    2    1    2    0    0 -0.11136780287E-01  0.12447212394E-01  0.16910730936E-01  0.10201616641E+01  0.10198847421E+01 0.  0.
     999903    2    3    3    0    0 -0.10894909636E+00  0.32079960598E-01  0.62534645130E-01  0.13335039018E+00  0.31188383244E-01 0.  0.
         14    1    1    2    0    0  0.11136780287E-01 -0.12447212394E-01 -0.16910730936E-01  0.23768335918E-01  0.00000000000E+00 0.  1.
     999901    1    3    3    0    0  0.97812316073E-01 -0.19632748204E-01 -0.45623914195E-01  0.88681127390E+00  0.88000000000E+00 0.  1.
        -11    1    4    4    0    0 -0.63554800081E-01  0.14416714299E-01  0.18654953207E-01  0.67788809288E-01  0.51100000000E-03 0.  1.
         11    1    4    4    0    0 -0.45394296278E-01  0.17663246299E-01  0.43879691923E-01  0.65561580889E-01  0.51100000000E-03 0. -1.
</event>
<event>
 8    1  0.1030163E+005  0.1043930E+01  0.7957747E-01            NaN
         13   -1    0    0    0    0  0.00000000000E+00  0.00000000000E+00  0.74505805969E-08  0.10566000000E+00  0.10566000000E+00 0. -1.
     999900   -1    0    0    0    0 -0.00000000000E+00 -0.00000000000E+00 -0.74505805969E-08  0.93827000000E+00  0.93827000000E+00 0.  1.
     999902    2    1    2    0    0  0.40104830656E-02 -0.10069313179E-01  0.19728703128E-01  0.10214200740E+01  0.10211720084E+01 0.  0.
     999903    2    3    3    0    0 -0.32934768829E-01 -0.38793881590E-01 -0.11750720979E+00  0.12955475440E+00  0.19667887242E-01 0.  0.
         14    1    1    2    0    0 -0.40104830656E-02  0.10069313179E-01 -0.19728703128E-01  0.22509926020E-01  0.00000000000E+00 0.  1.
     999901    1    3    3    0    0  0.36945251895E-01  0.28724568411E-01  0.13723591292E+00  0.89186531958E+00  0.88000000000E+00 0. -1.
        -11    1    4    4    0    0 -0.69926978933E-02 -0.16567676493E-01 -0.23947185838E-01  0.29951870706E-01  0.51100000000E-03 0. -1.
         11    1    4    4    0    0 -0.25942070936E-01 -0.22226205097E-01 -0.93560023955E-01  0.99602883698E-01  0.51100000000E-03 0.  1.
</event>
<event>
 8    1  0.1030163E+005  0.1043930E+01  0.7957747E-01            NaN
         13   -1    0    0    0    0  0.00000000000E+00  0.00000000000E+00  0.74505805969E-08  0.10566000000E+00  0.10566000000E+00 0. -1.
     999900   -1    0    0    0    0 -0.00000000000E+00 -0.00000000000E+00 -0.74505805969E-08  0.93827000000E+00  0.93827000000E+00 0. -1.
     999902    2    1    2    0    0  0.16918116992E-01  0.46271323778E-02 -0.11300355790E-01  0.10230654109E+01  0.10228526306E+01 0.  0.
     999903    2    3    3    0    0  0.58192224412E-01  0.10084105908E+00 -0.65588120160E-01  0.13519839779E+00  0.20531709149E-01 0.  0.
         14    1    1    2    0    0 -0.16918116992E-01 -0.46271323778E-02  0.11300355790E-01  0.20864589083E-01  0.00000000000E+00 0. -1.
     999901    1    3    3    0    0 -0.41274107420E-01 -0.96213926704E-01  0.54287764370E-01  0.88786701312E+00  0.88000000000E+00 0.  1.
        -11    1    4    4    0    0  0.47491043716E-01  0.64586376493E-01 -0.48623681746E-01  0.93762054208E-01  0.51100000000E-03 0. -1.
         11    1    4    4    0    0  0.10701180696E-01  0.36254682589E-01 -0.16964438414E-01  0.41436343584E-01  0.51100000000E-03 0.  1.
</event>
<event>
 8    1  0.1030163E+005  0.1043930E+01  0.7957747E-01            NaN
         13   -1    0    0    0    0  0.00000000000E+00  0.00000000000E+00  0.74505805969E-08  0.10566000000E+00  0.10566000000E+00 0. -1.
     999900   -1    0    0    0    0 -0.00000000000E+00 -0.00000000000E+00 -0.74505805969E-08  0.93827000000E+00  0.93827000000E+00 0.  1.
     999902    2    1    2    0    0 -0.52439458050E-02  0.23442706942E-01  0.62213934109E-02  0.10191153831E+01  0.10188132306E+01 0.  0.
     999903    2    3    3    0    0 -0.29633103210E-02  0.15690254833E-01 -0.12657708635E+00  0.12911496846E+00  0.19848198576E-01 0.  0.
         14    1    1    2    0    0  0.52439458050E-02 -0.23442706942E-01 -0.62213934109E-02  0.24814616909E-01  0.00000000000E+00 0.  1.
     999901    1    3    3    0    0 -0.22806354840E-02  0.77524521089E-02  0.13279847976E+00  0.89000041463E+00  0.88000000000E+00 0. -1.
        -11    1    4    4    0    0  0.30503863855E-02  0.12878696470E-01 -0.37151563196E-01  0.39441925014E-01  0.51100000000E-03 0. -1.
         11    1    4    4    0    0 -0.60136967066E-02  0.28115583629E-02 -0.89425523156E-01  0.89673043448E-01  0.51100000000E-03 0.  1.
</event>
<event>
 8    1  0.1030163E+005  0.1043930E+01  0.7957747E-01            NaN
         13   -1    0    0    0    0  0.00000000000E+00  0.00000000000E+00  0.74505805969E-08  0.10566000000E+00  0.10566000000E+00 0.  1.
     999900   -1    0    0    0    0 -0.00000000000E+00 -0.00000000000E+00 -0.74505805969E-08  0.93827000000E+00  0.93827000000E+00 0.  1.
     999902    2    1    2    0    0  0.20892455739E-01  0.52783271833E-04  0.11435766028E-01  0.10201124804E+01  0.10198343976E+01 0.  0.
     999903    2    3    3    0    0  0.29938458273E-01  0.12128547369E+00  0.35506426849E-01  0.13142885165E+00  0.20158355226E-01 0.  0.
         14    1    1    2    0    0 -0.20892455739E-01 -0.52783271833E-04 -0.11435766028E-01  0.23817519551E-01  0.00000000000E+00 0.  1.
     999901    1    3    3    0    0 -0.90460025342E-02 -0.12123269042E+00 -0.24070660821E-01  0.88868362880E+00  0.88000000000E+00 0. -1.
        -11    1    4    4    0    0  0.89958373862E-02  0.30827894754E-01  0.27800136099E-03  0.32118882156E-01  0.51100000000E-03 0. -1.
         11    1    4    4    0    0  0.20942620887E-01  0.90457578938E-01  0.35228425488E-01  0.99309969491E-01  0.51100000000E-03 0.  1.
</event>
<event>
 8    1  0.1030163E+005  0.1043930E+01  0.7957747E-01            NaN
         13   -1    0    0    0    0  0.00000000000E+00  0.00000000000E+00  0.74505805969E-08  0.10566000000E+00  0.10566000000E+00 0. -1.
     999900   -1    0    0    0    0 -0.00000000000E+00 -0.00000000000E+00 -0.74505805969E-08  0.93827000000E+00  0.93827000000E+00 0. -1.
     999902    2    1    2    0    0 -0.14616018044E-01 -0.15485857994E-01  0.73338121710E-02  0.10214083530E+01  0.10211600262E+01 0.  0.
     999903    2    3    3    0    0 -0.64056124404E-01 -0.10702577037E+00  0.45654619443E-01  0.13445155366E+00  0.20860810383E-01 0.  0.
         14    1    1    2    0    0  0.14616018044E-01  0.15485857994E-01 -0.73338121710E-02  0.22521646970E-01  0.00000000000E+00 0.  1.
     999901    1    3    3    0    0  0.49440106360E-01  0.91539912372E-01 -0.38320807272E-01  0.88695679937E+00  0.88000000000E+00 0. -1.
        -11    1    4    4    0    0 -0.14829614367E-01 -0.10968764040E-01  0.50679185483E-02  0.19135730094E-01  0.51100000000E-03 0. -1.
         11    1    4    4    0    0 -0.49226510037E-01 -0.96057006326E-01  0.40586700894E-01  0.11531582357E+00  0.51100000000E-03 0.  1.
</event>
<event>
 8    1  0.1030163E+005  0.1043930E+01  0.7957747E-01            NaN
         13   -1    0    0    0    0  0.00000000000E+00  0.00000000000E+00  0.74505805969E-08  0.10566000000E+00  0.10566000000E+00 0. -1.
     999900   -1    0    0    0    0 -0.00000000000E+00 -0.00000000000E+00 -0.74505805969E-08  0.93827000000E+00  0.93827000000E+00 0.  1.
     999902    2    1    2    0    0 -0.71512203123E-02  0.48867875707E-02  0.21904445496E-01  0.10203752685E+01  0.10201033590E+01 0.  0.
     999903    2    3    3    0    0 -0.12163040306E+00  0.41323722131E-01  0.23678478863E-01  0.13221071127E+00  0.20430292571E-01 0.  0.
         14    1    1    2    0    0  0.71512203123E-02 -0.48867875707E-02 -0.21904445496E-01  0.23554731525E-01  0.00000000000E+00 0.  1.
     999901    1    3    3    0    0  0.11447918274E+00 -0.36436934561E-01 -0.17740333665E-02  0.88816455721E+00  0.88000000000E+00 0.  1.
        -11    1    4    4    0    0 -0.80386940827E-01  0.37037611343E-01  0.13777069381E-01  0.89576300835E-01  0.51100000000E-03 0.  1.
         11    1    4    4    0    0 -0.41243462229E-01  0.42861107887E-02  0.99014094817E-02  0.42634410434E-01  0.51100000000E-03 0. -1.
</event>
<event>
 8    1  0.1030163E+005  0.1043930E+01  0.7957747E-01            NaN
         13   -1    0    0    0    0  0.00000000000E+00  0.00000000000E+00  0.74505805969E-08  0.10566000000E+00  0.10566000000E+00 0.  1.
     999900   -1    0    0    0    0 -0.00000000000E+00 -0.00000000000E+00 -0.74505805969E-08  0.93827000000E+00  0.93827000000E+00 0.  1.
     999902    2    1    2    0    0  0.15269471613E-01  0.82033445469E-02 -0.16406601265E-01  0.10200631152E+01  0.10197838647E+01 0.  0.
     999903    2    3    3    0    0 -0.55517745672E-01 -0.10804823535E+00  0.35303301970E-01  0.12809945335E+00  0.20161983331E-01 0.  0.
         14    1    1    2    0    0 -0.15269471613E-01 -0.82033445469E-02  0.16406601265E-01  0.23866884802E-01  0.00000000000E+00 0.  1.
     999901    1    3    3    0    0  0.70787217285E-01  0.11625157990E+00 -0.51709903235E-01  0.89196366185E+00  0.88000000000E+00 0.  1.
        -11    1    4    4    0    0 -0.92239872269E-02 -0.26019190662E-01  0.16126657665E-01  0.31975153346E-01  0.51100000000E-03 0.  1.
         11    1    4    4    0    0 -0.46293758446E-01 -0.82029044690E-01  0.19176644304E-01  0.96124300006E-01  0.51100000000E-03 0. -1.
</event>
<event>
 8    1  0.1030163E+005  0.1043930E+01  0.7957747E-01            NaN
         13   -1    0    0    0    0  0.00000000000E+00  0.00000000000E+00  0.74505805969E-08  0.10566000000E+00  0.10566000000E+00 0. -1.
     999900   -1    0    0    0    0 -0.00000000000E+00 -0.00000000000E+00 -0.74505805969E-08  0.93827000000E+00  0.93827000000E+00 0.  1.
     999902    2    1    2    0    0 -0.21352771782E-01  0.87440127793E-02  0.48812401565E-02  0.10203455745E+01  0.10200729710E+01 0.  0.
     999903    2    3    3    0    0 -0.70189606349E-01 -0.19082856461E-01 -0.10775020057E+00  0.13138820063E+00  0.19026752000E-01 0.  0.
         14    1    1    2    0    0  0.21352771782E-01 -0.87440127793E-02 -0.48812401565E-02  0.23584425533E-01  0.00000000000E+00 0.  1.
     999901    1    3    3    0    0  0.48836834568E-01  0.27826869240E-01  0.11263144073E+00  0.88895737384E+00  0.88000000000E+00 0. -1.
        -11    1    4    4    0    0 -0.52911346803E-01 -0.83611753225E-02 -0.88083317862E-01  0.10309438336E+00  0.51100000000E-03 0.  1.
         11    1    4    4    0    0 -0.17278259546E-01 -0.10721681138E-01 -0.19666882707E-01  0.28293817271E-01  0.51100000000E-03 0. -1.
</event>
<event>
 8    1  0.1030163E+005  0.1043930E+01  0.7957747E-01            NaN
         13   -1    0    0    0    0  0.00000000000E+00  0.00000000000E+00  0.74505805969E-08  0.10566000000E+00  0.10566000000E+00 0.  1.
     999900   -1    0    0    0    0 -0.00000000000E+00 -0.00000000000E+00 -0.74505805969E-08  0.93827000000E+00  0.93827000000E+00 0.  1.
     999902    2    1    2    0    0  0.81624968005E-02  0.26442211062E-02 -0.21652772288E-01  0.10206392120E+01  0.10203734317E+01 0.  0.
     999903    2    3    3    0    0 -0.28632329542E-01  0.11442492093E+00  0.50555943806E-01  0.12987387655E+00  0.19961150555E-01 0.  0.
         14    1    1    2    0    0 -0.81624968005E-02 -0.26442211062E-02  0.21652772288E-01  0.23290788029E-01  0.00000000000E+00 0.  1.
     999901    1    3    3    0    0  0.36794826343E-01 -0.11178069983E+00 -0.72208716094E-01  0.89076533542E+00  0.88000000000E+00 0.  1.
        -11    1    4    4    0    0 -0.12360863563E-02  0.41779677792E-01  0.14247535933E-01  0.44162459024E-01  0.51100000000E-03 0. -1.
         11    1    4    4    0    0 -0.27396243186E-01  0.72645243142E-01  0.36308407873E-01  0.85711417531E-01  0.51100000000E-03 0.  1.
</event>
<event>
 8    1  0.1030163E+005  0.1043930E+01  0.7957747E-01            NaN
         13   -1    0    0    0    0  0.00000000000E+00  0.00000000000E+00  0.74505805969E-08  0.10566000000E+00  0.10566000000E+00 0.  1.
     999900   -1    0    0    0    0 -0.00000000000E+00 -0.00000000000E+00 -0.74505805969E-08  0.93827000000E+00  0.93827000000E+00 0. -1.
     999902    2    1    2    0    0  0.11702040968E-01 -0.16592461410E-01  0.12007179782E-01  0.10203414455E+01  0.10200687454E+01 0.  0.
     999903    2    3    3    0    0  0.10491124212E+00 -0.55560853145E-01 -0.54271409638E-01  0.13208509613E+00  0.20191819890E-01 0.  0.
         14    1    1    2    0    0 -0.11702040968E-01  0.16592461410E-01 -0.12007179782E-01  0.23588554529E-01  0.00000000000E+00 0. -1.
     999901    1    3    3    0    0 -0.93209201148E-01  0.38968391735E-01  0.66278589420E-01  0.88825634934E+00  0.88000000000E+00 0.  1.
        -11    1    4    4    0    0  0.29583369230E-01 -0.26092197347E-01 -0.15505799493E-01  0.42387137628E-01  0.51100000000E-03 0. -1.
         11    1    4    4    0    0  0.75327872886E-01 -0.29468655798E-01 -0.38765610144E-01  0.89697958499E-01  0.51100000000E-03 0.  1.
</event>
<event>
 8    1  0.1030163E+005  0.1043930E+01  0.7957747E-01            NaN
         13   -1    0    0    0    0  0.00000000000E+00  0.00000000000E+00  0.74505805969E-08  0.10566000000E+00  0.10566000000E+00 0. -1.
     999900   -1    0    0    0    0 -0.00000000000E+00 -0.00000000000E+00 -0.74505805969E-08  0.93827000000E+00  0.93827000000E+00 0. -1.
     999902    2    1    2    0    0  0.21160478147E-01 -0.50833063919E-03  0.44092503461E-02  0.10223090443E+01  0.10220803865E+01 0.  0.
     999903    2    3    3    0    0  0.49097067021E-01 -0.74462528485E-01  0.97845968415E-01  0.13383839391E+00  0.19588057857E-01 0.  0.
         14    1    1    2    0    0 -0.21160478147E-01  0.50833063919E-03 -0.44092503461E-02  0.21620955669E-01  0.00000000000E+00 0.  1.
     999901    1    3    3    0    0 -0.27936588874E-01  0.73954197846E-01 -0.93436718069E-01  0.88847065042E+00  0.88000000000E+00 0. -1.
        -11    1    4    4    0    0  0.81474043278E-02 -0.31330535066E-02  0.13022339885E-01  0.15685620122E-01  0.51100000000E-03 0. -1.
         11    1    4    4    0    0  0.40949662693E-01 -0.71329474978E-01  0.84823628531E-01  0.11815277379E+00  0.51100000000E-03 0.  1.
</event>
<event>
 8    1  0.1030163E+005  0.1043930E+01  0.7957747E-01            NaN
         13   -1    0    0    0    0  0.00000000000E+00  0.00000000000E+00  0.74505805969E-08  0.10566000000E+00  0.10566000000E+00 0. -1.
     999900   -1    0    0    0    0 -0.00000000000E+00 -0.00000000000E+00 -0.74505805969E-08  0.93827000000E+00  0.93827000000E+00 0. -1.
     999902    2    1    2    0    0 -0.14708645121E-02  0.12591113793E-01  0.20226030958E-01  0.10200596854E+01  0.10197803538E+01 0.  0.
     999903    2    3    3    0    0 -0.10816949085E+00 -0.49322410768E-01  0.49581491290E-01  0.13097047482E+00  0.23698144271E-01 0.  0.
         14    1    1    2    0    0  0.14708645121E-02 -0.12591113793E-01 -0.20226030958E-01  0.23870314562E-01  0.00000000000E+00 0.  1.
     999901    1    3    3    0    0  0.10669862634E+00  0.61913524561E-01 -0.29355460332E-01  0.88908921062E+00  0.88000000000E+00 0.  1.
        -11    1    4    4    0    0 -0.24968697058E-01 -0.13894466413E-02  0.73347180568E-02  0.26065793767E-01  0.51100000000E-03 0.  1.
         11    1    4    4    0    0 -0.83200793790E-01 -0.47932964127E-01  0.42246773233E-01  0.10490468105E+00  0.51100000000E-03 0. -1.
</event>
<event>
 8    1  0.1030163E+005  0.1043930E+01  0.7957747E-01            NaN
         13   -1    0    0    0    0  0.00000000000E+00  0.00000000000E+00  0.74505805969E-08  0.10566000000E+00  0.10566000000E+00 0.  1.
     999900   -1    0    0    0    0 -0.00000000000E+00 -0.00000000000E+00 -0.74505805969E-08  0.93827000000E+00  0.93827000000E+00 0.  1.
     999902    2    1    2    0    0 -0.56093842055E-02  0.98065508740E-02  0.20718154272E-01  0.10203317893E+01  0.10200588634E+01 0.  0.
     999903    2    3    3    0    0 -0.81858903485E-01  0.28654553510E-01  0.99345565683E-01  0.13334165057E+00  0.19710170987E-01 0.  0.
         14    1    1    2    0    0  0.56093842055E-02 -0.98065508740E-02 -0.20718154272E-01  0.23598210688E-01  0.00000000000E+00 0.  1.
     999901    1    3    3    0    0  0.76249519280E-01 -0.18848002636E-01 -0.78627411411E-01  0.88699013874E+00  0.88000000000E+00 0.  1.
        -11    1    4    4    0    0 -0.53287314986E-01  0.92344360203E-02  0.65937695539E-01  0.85281026970E-01  0.51100000000E-03 0. -1.
         11    1    4    4    0    0 -0.28571588499E-01  0.19420117490E-01  0.33407870144E-01  0.48060623605E-01  0.51100000000E-03 0.  1.
</event>
<event>
 8    1  0.1030163E+005  0.1043930E+01  0.7957747E-01            NaN
         13   -1    0    0    0    0  0.00000000000E+00  0.00000000000E+00  0.74505805969E-08  0.10566000000E+00  0.10566000000E+00 0. -1.
     999900   -1    0    0    0    0 -0.00000000000E+00 -0.00000000000E+00 -0.74505805969E-08  0.93827000000E+00  0.93827000000E+00 0. -1.
     999902    2    1    2    0    0  0.12341720840E-01  0.99663400803E-02 -0.17569956703E-01  0.10202582999E+01  0.10199836514E+01 0.  0.
     999903    2    3    3    0    0 -0.10157437783E+00  0.34441398192E-02 -0.79748396160E-01  0.13071595971E+00  0.19940890178E-01 0.  0.
         14    1    1    2    0    0 -0.12341720840E-01 -0.99663400803E-02  0.17569956703E-01  0.23671700118E-01  0.00000000000E+00 0. -1.
     999901    1    3    3    0    0  0.11391609867E+00  0.65222002611E-02  0.62178439456E-01  0.88954234018E+00  0.88000000000E+00 0.  1.
        -11    1    4    4    0    0 -0.89114221163E-01 -0.34995601491E-02 -0.70788126442E-01  0.11386312529E+00  0.51100000000E-03 0.  1.
         11    1    4    4    0    0 -0.12460156668E-01  0.69436999682E-02 -0.89602697179E-02  0.16852834416E-01  0.51100000000E-03 0. -1.
</event>
<event>
 8    1  0.1030163E+005  0.1043930E+01  0.7957747E-01            NaN
         13   -1    0    0    0    0  0.00000000000E+00  0.00000000000E+00  0.74505805969E-08  0.10566000000E+00  0.10566000000E+00 0.  1.
     999900   -1    0    0    0    0 -0.00000000000E+00 -0.00000000000E+00 -0.74505805969E-08  0.93827000000E+00  0.93827000000E+00 0.  1.
     999902    2    1    2    0    0  0.15869726285E-01 -0.15647384343E-02  0.16249603536E-01  0.10211627816E+01  0.10209089481E+01 0.  0.
     999903    2    3    3    0    0 -0.59585752422E-01  0.18500374641E-01 -0.11060257044E+00  0.12864521198E+00  0.20589711642E-01 0.  0.
         14    1    1    2    0    0 -0.15869726285E-01  0.15647384343E-02 -0.16249603536E-01  0.22767218403E-01  0.00000000000E+00 0.  1.
     999901    1    3    3    0    0  0.75455478707E-01 -0.20065113075E-01  0.12685217397E+00  0.89251756961E+00  0.88000000000E+00 0. -1.
        -11    1    4    4    0    0 -0.38813483711E-01  0.24046770525E-02 -0.73804816553E-01  0.83424702917E-01  0.51100000000E-03 0.  1.
         11    1    4    4    0    0 -0.20772268711E-01  0.16095697588E-01 -0.36797753883E-01  0.45220509065E-01  0.51100000000E-03 0. -1.
</event>
<event>
 8    1  0.1030163E+005  0.1043930E+01  0.7957747E-01            NaN
         13   -1    0    0    0    0  0.00000000000E+00  0.00000000000E+00  0.74505805969E-08  0.10566000000E+00  0.10566000000E+00 0. -1.
     999900   -1    0    0    0    0 -0.00000000000E+00 -0.00000000000E+00 -0.74505805969E-08  0.93827000000E+00  0.93827000000E+00 0.  1.
     999902    2    1    2    0    0  0.87454876487E-02  0.23832631678E-01 -0.38876482554E-03  0.10185404544E+01  0.10182239578E+01 0.  0.
     999903    2    3    3    0    0 -0.27524444595E-01 -0.53633750099E-01 -0.11057141096E+00  0.12755405508E+00  0.20244155865E-01 0.  0.
         14    1    1    2    0    0 -0.87454876487E-02 -0.23832631678E-01  0.38876482554E-03  0.25389545584E-01  0.00000000000E+00 0. -1.
     999901    1    3    3    0    0  0.36269932244E-01  0.77466381776E-01  0.11018264613E+00  0.89098639933E+00  0.88000000000E+00 0. -1.
        -11    1    4    4    0    0 -0.16970333659E-01 -0.16445696848E-01 -0.30047195587E-01  0.38230200797E-01  0.51100000000E-03 0.  1.
         11    1    4    4    0    0 -0.10554110936E-01 -0.37188053251E-01 -0.80524215370E-01  0.89323854284E-01  0.51100000000E-03 0. -1.
</event>
<event>
 8    1  0.1030163E+005  0.1043930E+01  0.7957747E-01            NaN
         13   -1    0    0    0    0  0.00000000000E+00  0.00000000000E+00  0.74505805969E-08  0.10566000000E+00  0.10566000000E+00 0. -1.
     999900   -1    0    0    0    0 -0.00000000000E+00 -0.00000000000E+00 -0.74505805969E-08  0.93827000000E+00  0.93827000000E+00 0.  1.
     999902    2    1    2    0    0  0.23212125538E-01 -0.27035048665E-02 -0.73650711316E-02  0.10194278372E+01  0.10191333373E+01 0.  0.
     999903    2    3    3    0    0  0.12347191350E-01 -0.53611548717E-01  0.11535029826E+00  0.12938922137E+00  0.20229384822E-01 0.  0.
         14    1    1    2    0    0 -0.23212125538E-01  0.27035048665E-02  0.73650711316E-02  0.24502162830E-01  0.00000000000E+00 0. -1.
     999901    1    3    3    0    0  0.10864934188E-01  0.50908043850E-01 -0.12271536939E+00  0.89003861580E+00  0.88000000000E+00 0.  1.
        -11    1    4    4    0    0  0.44956195664E-02 -0.24437817012E-01  0.74788138787E-01  0.78809544599E-01  0.51100000000E-03 0.  1.
         11    1    4    4    0    0  0.78515717838E-02 -0.29173731704E-01  0.40562159469E-01  0.50579676776E-01  0.51100000000E-03 0. -1.
</event>
<event>
 8    1  0.1030163E+005  0.1043930E+01  0.7957747E-01            NaN
         13   -1    0    0    0    0  0.00000000000E+00  0.00000000000E+00  0.74505805969E-08  0.10566000000E+00  0.10566000000E+00 0. -1.
     999900   -1    0    0    0    0 -0.00000000000E+00 -0.00000000000E+00 -0.74505805969E-08  0.93827000000E+00  0.93827000000E+00 0.  1.
     999902    2    1    2    0    0 -0.17427567228E-01  0.14973919687E-01  0.36374718701E-02  0.10206669484E+01  0.10204018081E+01 0.  0.
     999903    2    3    3    0    0  0.93821402764E-01  0.87668671547E-01  0.12608049688E-01  0.13064372869E+00  0.20507787348E-01 0.  0.
         14    1    1    2    0    0  0.17427567228E-01 -0.14973919687E-01 -0.36374718701E-02  0.23263051646E-01  0.00000000000E+00 0.  1.
     999901    1    3    3    0    0 -0.11124896999E+00 -0.72694751860E-01 -0.89705778175E-02  0.89002321966E+00  0.88000000000E+00 0.  1.
        -11    1    4    4    0    0  0.58216286575E-01  0.42676580369E-01  0.12534869685E-01  0.73265343878E-01  0.51100000000E-03 0.  1.
         11    1    4    4    0    0  0.35605116189E-01  0.44992091178E-01  0.73180002261E-04  0.57378384813E-01  0.51100000000E-03 0. -1.
</event>
<event>
 8    1  0.1030163E+005  0.1043930E+01  0.7957747E-01            NaN
         13   -1    0    0    0    0  0.00000000000E+00  0.00000000000E+00  0.74505805969E-08  0.10566000000E+00  0.10566000000E+00 0.  1.
     999900   -1    0    0    0    0 -0.00000000000E+00 -0.00000000000E+00 -0.74505805969E-08  0.93827000000E+00  0.93827000000E+00 0. -1.
     999902    2    1    2    0    0 -0.13354133808E-01  0.77118416745E-02  0.19253962251E-01  0.10192617926E+01  0.10189632385E+01 0.  0.
     999903    2    3    3    0    0 -0.10516599929E-01  0.54524895201E-01 -0.11373210663E+00  0.12803521758E+00  0.19351015304E-01 0.  0.
         14    1    1    2    0    0  0.13354133808E-01 -0.77118416745E-02 -0.19253962251E-01  0.24668207356E-01  0.00000000000E+00 0. -1.
     999901    1    3    3    0    0 -0.28375338786E-02 -0.46813053527E-01  0.13298606888E+00  0.89122657506E+00  0.88000000000E+00 0.  1.
        -11    1    4    4    0    0 -0.10234811437E-02  0.15036178273E-01 -0.51976286468E-01  0.54119586535E-01  0.51100000000E-03 0. -1.
         11    1    4    4    0    0 -0.94931187855E-02  0.39488716928E-01 -0.61755820158E-01  0.73915631049E-01  0.51100000000E-03 0.  1.
</event>
<event>
 8    1  0.1030163E+005  0.1043930E+01  0.7957747E-01            NaN
         13   -1    0    0    0    0  0.00000000000E+00  0.00000000000E+00  0.74505805969E-08  0.10566000000E+00  0.10566000000E+00 0. -1.
     999900   -1    0    0    0    0 -0.00000000000E+00 -0.00000000000E+00 -0.74505805969E-08  0.93827000000E+00  0.93827000000E+00 0. -1.
     999902    2    1    2    0    0  0.16544571840E-01 -0.11641722947E-01  0.10294373293E-01  0.10212313945E+01  0.10209791058E+01 0.  0.
     999903    2    3    3    0    0 -0.39327400189E-01  0.10945234241E+00  0.54715039658E-01  0.13007560254E+00  0.19986674256E-01 0.  0.
         14    1    1    2    0    0 -0.16544571840E-01  0.11641722947E-01 -0.10294373293E-01  0.22698605509E-01  0.00000000000E+00 0.  1.
     999901    1    3    3    0    0  0.55871972029E-01 -0.12109406536E+00 -0.44420666365E-01  0.89115579195E+00  0.88000000000E+00 0.  1.
        -11    1    4    4    0    0 -0.31094615436E-01  0.58037452124E-01  0.33089894578E-01  0.73691405213E-01  0.51100000000E-03 0.  1.
         11    1    4    4    0    0 -0.82327847529E-02  0.51414890285E-01  0.21625145080E-01  0.56384197330E-01  0.51100000000E-03 0. -1.
</event>
<event>
 8    1  0.1030163E+005  0.1043930E+01  0.7957747E-01            NaN
         13   -1    0    0    0    0  0.00000000000E+00  0.00000000000E+00  0.74505805969E-08  0.10566000000E+00  0.10566000000E+00 0.  1.
     999900   -1    0    0    0    0 -0.00000000000E+00 -0.00000000000E+00 -0.74505805969E-08  0.93827000000E+00  0.93827000000E+00 0. -1.
     999902    2    1    2    0    0 -0.23673176065E-01 -0.91774402424E-02 -0.72458821162E-02  0.10175264494E+01  0.10171838220E+01 0.  0.
     999903    2    3    3    0    0  0.75828758025E-02 -0.12225354833E+00  0.34381615488E-01  0.12876551671E+00  0.19875430180E-01 0.  0.
         14    1    1    2    0    0  0.23673176065E-01  0.91774402424E-02  0.72458821162E-02  0.26403550558E-01  0.00000000000E+00 0. -1.
     999901    1    3    3    0    0 -0.31256051868E-01  0.11307610809E+00 -0.41627497605E-01  0.88876093273E+00  0.88000000000E+00 0. -1.
        -11    1    4    4    0    0 -0.19656733519E-02 -0.67309715890E-01  0.10738795736E-01  0.68191235359E-01  0.51100000000E-03 0. -1.
         11    1    4    4    0    0  0.95485491544E-02 -0.54943832439E-01  0.23642819752E-01  0.60574281348E-01  0.51100000000E-03 0.  1.
</event>
<event>
 8    1  0.1030163E+005  0.1043930E+01  0.7957747E-01            NaN
         13   -1    0    0    0    0  0.00000000000E+00  0.00000000000E+00  0.74505805969E-08  0.10566000000E+00  0.10566000000E+00 0.  1.
     999900   -1    0    0    0    0 -0.00000000000E+00 -0.00000000000E+00 -0.74505805969E-08  0.93827000000E+00  0.93827000000E+00 0.  1.
     999902    2    1    2    0    0  0.10177231930E-01  0.75858262910E-02  0.21125841382E-01  0.10192840676E+01  0.10189860590E+01 0.  0.
     999903    2    3    3    0    0 -0.12132614273E+00 -0.16417300589E-01 -0.30269487817E-01  0.12770638308E+00  0.20077791691E-01 0.  0.
         14    1    1    2    0    0 -0.10177231930E-01 -0.75858262910E-02 -0.21125841382E-01  0.24645932410E-01  0.00000000000E+00 0. -1.
     999901    1    3    3    0    0  0.13150337466E+00  0.24003126880E-01  0.51395329198E-01  0.89157768451E+00  0.88000000000E+00 0. -1.
        -11    1    4    4    0    0 -0.20291029792E-01 -0.10309023163E-01 -0.37835850262E-02  0.23077662041E-01  0.51100000000E-03 0.  1.
         11    1    4    4    0    0 -0.10103511294E+00 -0.61082774264E-02 -0.26485902790E-01  0.10462872104E+00  0.51100000000E-03 0. -1.
</event>
<event>
 8    1  0.1030163E+005  0.1043930E+01  0.7957747E-01            NaN
         13   -1    0    0    0    0  0.00000000000E+00  0.00000000000E+00  0.74505805969E-08  0.10566000000E+00  0.10566000000E+00 0. -1.
     999900   -1    0    0    0    0 -0.00000000000E+00 -0.00000000000E+00 -0.74505805969E-08  0.93827000000E+00  0.93827000000E+00 0.  1.
     999902    2    1    2    0    0  0.57335798513E-02  0.22892133173E-01  0.14466240978E-02  0.10202864719E+01  0.10200124844E+01 0.  0.
     999903    2    3    3    0    0 -0.95499159864E-01  0.11147189270E-01 -0.85453994487E-01  0.13015292642E+00  0.19825481558E-01 0.  0.
         14    1    1    2    0    0 -0.57335798513E-02 -0.22892133173E-01 -0.14466240978E-02  0.23643528087E-01  0.00000000000E+00 0.  1.
     999901    1    3    3    0    0  0.10123273972E+00  0.11744943904E-01  0.86900618585E-01  0.89013354549E+00  0.88000000000E+00 0. -1.
        -11    1    4    4    0    0 -0.54686123192E-02  0.38417426540E-02 -0.11932007447E-01  0.13685708971E-01  0.51100000000E-03 0. -1.
         11    1    4    4    0    0 -0.90030547545E-01  0.73054466156E-02 -0.73521987041E-01  0.11646721745E+00  0.51100000000E-03 0.  1.
</event>
<event>
 8    1  0.1030163E+005  0.1043930E+01  0.7957747E-01            NaN
         13   -1    0    0    0    0  0.00000000000E+00  0.00000000000E+00  0.74505805969E-08  0.10566000000E+00  0.10566000000E+00 0. -1.
     999900   -1    0    0    0    0 -0.00000000000E+00 -0.00000000000E+00 -0.74505805969E-08  0.93827000000E+00  0.93827000000E+00 0. -1.
     999902    2    1    2    0    0 -0.54588336635E-02 -0.14100660393E-01 -0.18309786765E-01  0.10201839313E+01  0.10199075340E+01 0.  0.
     999903    2    3    3    0    0  0.80314218610E-01  0.94800688066E-01  0.25295170440E-01  0.12826582265E+00  0.19357981428E-01 0.  0.
         14    1    1    2    0    0  0.54588336635E-02  0.14100660393E-01  0.18309786765E-01  0.23746068725E-01  0.00000000000E+00 0. -1.
     999901    1    3    3    0    0 -0.85773052273E-01 -0.10890134846E+00 -0.43604957205E-01  0.89191810862E+00  0.88000000000E+00 0.  1.
        -11    1    4    4    0    0  0.59198408927E-01  0.75097852832E-01  0.11693614910E-01  0.96338677955E-01  0.51100000000E-03 0. -1.
         11    1    4    4    0    0  0.21115809683E-01  0.19702835234E-01  0.13601555530E-01  0.31927144700E-01  0.51100000000E-03 0.  1.
</event>
<event>
 8    1  0.1030163E+005  0.1043930E+01  0.7957747E-01            NaN
         13   -1    0    0    0    0  0.00000000000E+00  0.00000000000E+00  0.74505805969E-08  0.10566000000E+00  0.10566000000E+00 0. -1.
     999900   -1    0    0    0    0 -0.00000000000E+00 -0.00000000000E+00 -0.74505805969E-08  0.93827000000E+00  0.93827000000E+00 0.  1.
     999902    2    1    2    0    0 -0.15370815094E-01 -0.17167347784E-01 -0.76830742198E-02  0.10196398906E+01  0.10193505271E+01 0.  0.
     999903    2    3    3    0    0 -0.12005925351E+00  0.40704416258E-01 -0.27679047906E-01  0.13132201437E+00  0.20205640511E-01 0.  0.
         14    1    1    2    0    0  0.15370815094E-01  0.17167347784E-01  0.76830742198E-02  0.24290109429E-01  0.00000000000E+00 0.  1.
     999901    1    3    3    0    0  0.10468843842E+00 -0.57871764042E-01  0.19995973686E-01  0.88831787620E+00  0.88000000000E+00 0. -1.
        -11    1    4    4    0    0 -0.54372959789E-01  0.16104384989E-01 -0.23948250693E-02  0.56760605002E-01  0.51100000000E-03 0.  1.
         11    1    4    4    0    0 -0.65686293725E-01  0.24600031269E-01 -0.25284222836E-01  0.74561409369E-01  0.51100000000E-03 0. -1.
</event>
<event>
 8    1  0.1030163E+005  0.1043930E+01  0.7957747E-01            NaN
         13   -1    0    0    0    0  0.00000000000E+00  0.00000000000E+00  0.74505805969E-08  0.10566000000E+00  0.10566000000E+00 0.  1.
     999900   -1    0    0    0    0 -0.00000000000E+00 -0.00000000000E+00 -0.74505805969E-08  0.93827000000E+00  0.93827000000E+00 0. -1.
     999902    2    1    2    0    0 -0.20873735974E-01  0.69330548153E-02 -0.22215730522E-02  0.10218230896E+01  0.10215839226E+01 0.  0.
     999903    2    3    3    0    0  0.46130227778E-01  0.11978724875E+00  0.21593444891E-01  0.13177098135E+00  0.20501994688E-01 0.  0.
         14    1    1    2    0    0  0.20873735974E-01 -0.69330548153E-02  0.22215730522E-02  0.22106910445E-01  0.00000000000E+00 0.  1.
     999901    1    3    3    0    0 -0.67003963752E-01 -0.11285419393E+00 -0.23815017943E-01  0.89005210821E+00  0.88000000000E+00 0.  1.
        -11    1    4    4    0    0  0.33632631795E-01  0.58873591572E-01  0.11342494648E-01  0.68747123663E-01  0.51100000000E-03 0.  1.
         11    1    4    4    0    0  0.12497595983E-01  0.60913657173E-01  0.10250950243E-01  0.63023857685E-01  0.51100000000E-03 0. -1.
</event>
<event>
 8    1  0.1030163E+005  0.1043930E+01  0.7957747E-01            NaN
         13   -1    0    0    0    0  0.00000000000E+00  0.00000000000E+00  0.74505805969E-08  0.10566000000E+00  0.10566000000E+00 0.  1.
     999900   -1    0    0    0    0 -0.00000000000E+00 -0.00000000000E+00 -0.74505805969E-08  0.93827000000E+00  0.93827000000E+00 0. -1.
     999902    2    1    2    0    0  0.83127367059E-02 -0.42593227490E-02 -0.22760763925E-01  0.10193272401E+01  0.10190302874E+01 0.  0.
     999903    2    3    3    0    0 -0.62191506116E-01 -0.94539474969E-02  0.10825772004E+00  0.12682308012E+00  0.20179176057E-01 0.  0.
         14    1    1    2    0    0 -0.83127367059E-02  0.42593227490E-02  0.22760763925E-01  0.24602759932E-01  0.00000000000E+00 0.  1.
     999901    1    3    3    0    0  0.70504242822E-01  0.51946247480E-02 -0.13101848397E+00  0.89250415995E+00  0.88000000000E+00 0.  1.
        -11    1    4    4    0    0 -0.99949671620E-02  0.59134389136E-02  0.17762133285E-01  0.21227873850E-01  0.51100000000E-03 0.  1.
         11    1    4    4    0    0 -0.52196538954E-01 -0.15367386411E-01  0.90495586757E-01  0.10559520627E+00  0.51100000000E-03 0. -1.
</event>
<event>
 8    1  0.1030163E+005  0.1043930E+01  0.7957747E-01            NaN
         13   -1    0    0    0    0  0.00000000000E+00  0.00000000000E+00  0.74505805969E-08  0.10566000000E+00  0.10566000000E+00 0.  1.
     999900   -1    0    0    0    0 -0.00000000000E+00 -0.00000000000E+00 -0.74505805969E-08  0.93827000000E+00  0.93827000000E+00 0. -1.
     999902    2    1    2    0    0 -0.15712073934E-01  0.16409492388E-01 -0.16242719603E-01  0.10160021170E+01  0.10156182034E+01 0.  0.
     999903    2    3    3    0    0  0.12266250157E+00 -0.10786790808E-03 -0.15671724537E-01  0.12503597155E+00  0.18501089296E-01 0.  0.
         14    1    1    2    0    0  0.15712073934E-01 -0.16409492388E-01  0.16242719603E-01  0.27927882981E-01  0.00000000000E+00 0.  1.
     999901    1    3    3    0    0 -0.13837457550E+00  0.16517360296E-01 -0.57099506592E-03  0.89096614547E+00  0.88000000000E+00 0.  1.
        -11    1    4    4    0    0  0.35511803152E-01 -0.66876929120E-02  0.54623231192E-03  0.36143780798E-01  0.51100000000E-03 0. -1.
         11    1    4    4    0    0  0.87150698415E-01  0.65798250039E-02 -0.16217956849E-01  0.88892190752E-01  0.51100000000E-03 0.  1.
</event>
<event>
 8    1  0.1030163E+005  0.1043930E+01  0.7957747E-01            NaN
         13   -1    0    0    0    0  0.00000000000E+00  0.00000000000E+00  0.74505805969E-08  0.10566000000E+00  0.10566000000E+00 0.  1.
     999900   -1    0    0    0    0 -0.00000000000E+00 -0.00000000000E+00 -0.74505805969E-08  0.93827000000E+00  0.93827000000E+00 0.  1.
     999902    2    1    2    0    0  0.43887572339E-03  0.92094151236E-02 -0.20118455578E-01  0.10217995189E+01  0.10215598361E+01 0.  0.
     999903    2    3    3    0    0  0.47649704798E-01 -0.11731523652E+00  0.24173761158E-01  0.13039660758E+00  0.19635311330E-01 0.  0.
         14    1    1    2    0    0 -0.43887572339E-03 -0.92094151236E-02  0.20118455578E-01  0.22130481098E-01  0.00000000000E+00 0.  1.
     999901    1    3    3    0    0 -0.47210829075E-01  0.12652465165E+00 -0.44292216735E-01  0.89140291133E+00  0.88000000000E+00 0.  1.
        -11    1    4    4    0    0  0.32829083448E-02 -0.29089689747E-01  0.33412699270E-02  0.29468843589E-01  0.51100000000E-03 0. -1.
         11    1    4    4    0    0  0.44366796453E-01 -0.88225546776E-01  0.20832491231E-01  0.10092776399E+00  0.51100000000E-03 0.  1.
</event>
<event>
 8    1  0.1030163E+005  0.1043930E+01  0.7957747E-01            NaN
         13   -1    0    0    0    0  0.00000000000E+00  0.00000000000E+00  0.74505805969E-08  0.10566000000E+00  0.10566000000E+00 0.  1.
     999900   -1    0    0    0    0 -0.00000000000E+00 -0.00000000000E+00 -0.74505805969E-08  0.93827000000E+00  0.93827000000E+00 0. -1.
     999902    2    1    2    0    0  0.55279202035E-02  0.17656743633E-01  0.12184756300E-01  0.10217762919E+01  0.10215361001E+01 0.  0.
     999903    2    3    3    0    0 -0.87827556498E-01  0.63535224547E-01  0.75220476512E-01  0.13341061150E+00  0.19745043347E-01 0.  0.
         14    1    1    2    0    0 -0.55279202035E-02 -0.17656743633E-01 -0.12184756300E-01  0.22153708123E-01  0.00000000000E+00 0. -1.
     999901    1    3    3    0    0  0.93355476701E-01 -0.45878480914E-01 -0.63035720212E-01  0.88836568037E+00  0.88000000000E+00 0. -1.
        -11    1    4    4    0    0 -0.65392055333E-01  0.36686213117E-01  0.47411818284E-01  0.88713813849E-01  0.51100000000E-03 0.  1.
         11    1    4    4    0    0 -0.22435501164E-01  0.26849011430E-01  0.27808658227E-01  0.44696797656E-01  0.51100000000E-03 0. -1.
</event>
<event>
 8    1  0.1030163E+005  0.1043930E+01  0.7957747E-01            NaN
         13   -1    0    0    0    0  0.00000000000E+00  0.00000000000E+00  0.74505805969E-08  0.10566000000E+00  0.10566000000E+00 0.  1.
     999900   -1    0    0    0    0 -0.00000000000E+00 -0.00000000000E+00 -0.74505805969E-08  0.93827000000E+00  0.93827000000E+00 0.  1.
     999902    2    1    2    0    0  0.86283717628E-03  0.18312367630E-01 -0.14600105015E-01  0.10204939090E+01  0.10202247634E+01 0.  0.
     999903    2    3    3    0    0 -0.26656251281E-01 -0.92003454646E-01 -0.86034707767E-01  0.13030865671E+00  0.20079434100E-01 0.  0.
         14    1    1    2    0    0 -0.86283717628E-03 -0.18312367630E-01  0.14600105015E-01  0.23436091028E-01  0.00000000000E+00 0.  1.
     999901    1    3    3    0    0  0.27519088457E-01  0.11031582228E+00  0.71434602752E-01  0.89018525226E+00  0.88000000000E+00 0. -1.
        -11    1    4    4    0    0 -0.22935246587E-01 -0.55934652127E-01 -0.43880663169E-01  0.74702640955E-01  0.51100000000E-03 0.  1.
         11    1    4    4    0    0 -0.37210046936E-02 -0.36068802520E-01 -0.42154044598E-01  0.55606015755E-01  0.51100000000E-03 0. -1.
</event>
<event>
 8    1  0.1030163E+005  0.1043930E+01  0.7957747E-01            NaN
         13   -1    0    0    0    0  0.00000000000E+00  0.00000000000E+00  0.74505805969E-08  0.10566000000E+00  0.10566000000E+00 0. -1.
     999900   -1    0    0    0    0 -0.00000000000E+00 -0.00000000000E+00 -0.74505805969E-08  0.93827000000E+00  0.93827000000E+00 0.  1.
     999902    2    1    2    0    0  0.15657658112E-01 -0.57588041599E-02 -0.17130298924E-01  0.10200182200E+01  0.10197379055E+01 0.  0.
     999903    2    3    3    0    0 -0.17188304955E-01  0.10830253735E-01 -0.12902550949E+00  0.13216992647E+00  0.20213241704E-01 0.  0.
         14    1    1    2    0    0 -0.15657658112E-01  0.57588041599E-02  0.17130298924E-01  0.23911780028E-01  0.00000000000E+00 0.  1.
     999901    1    3    3    0    0  0.32845963067E-01 -0.16589057895E-01  0.11189521057E+00  0.88784829350E+00  0.88000000000E+00 0. -1.
        -11    1    4    4    0    0 -0.17846676510E-01  0.14283588712E-01 -0.85655613964E-01  0.88654780433E-01  0.51100000000E-03 0. -1.
         11    1    4    4    0    0  0.65837155491E-03 -0.34533349768E-02 -0.43369895525E-01  0.43515146034E-01  0.51100000000E-03 0.  1.
</event>
<event>
 8    1  0.1030163E+005  0.1043930E+01  0.7957747E-01            NaN
         13   -1    0    0    0    0  0.00000000000E+00  0.00000000000E+00  0.74505805969E-08  0.10566000000E+00  0.10566000000E+00 0. -1.
     999900   -1    0    0    0    0 -0.00000000000E+00 -0.00000000000E+00 -0.74505805969E-08  0.93827000000E+00  0.93827000000E+00 0. -1.
     999902    2    1    2    0    0 -0.13671006481E-01  0.18549100224E-01  0.61134608033E-02  0.10200901187E+01  0.10198115073E+01 0.  0.
     999903    2    3    3    0    0 -0.14706094664E-01  0.86878184338E-01 -0.95443026819E-01  0.13161746559E+00  0.21206078056E-01 0.  0.
         14    1    1    2    0    0  0.13671006481E-01 -0.18549100224E-01 -0.61134608033E-02  0.23839881298E-01  0.00000000000E+00 0.  1.
     999901    1    3    3    0    0  0.10350881828E-02 -0.68329084114E-01  0.10155648762E+00  0.88847265311E+00  0.88000000000E+00 0.  1.
        -11    1    4    4    0    0 -0.17346977565E-01  0.39353393160E-01 -0.46650165713E-01  0.63451605700E-01  0.51100000000E-03 0. -1.
         11    1    4    4    0    0  0.26408829012E-02  0.47524791178E-01 -0.48792861107E-01  0.68165859893E-01  0.51100000000E-03 0.  1.
</event>
<event>
 8    1  0.1030163E+005  0.1043930E+01  0.7957747E-01            NaN
         13   -1    0    0    0    0  0.00000000000E+00  0.00000000000E+00  0.74505805969E-08  0.10566000000E+00  0.10566000000E+00 0.  1.
     999900   -1    0    0    0    0 -0.00000000000E+00 -0.00000000000E+00 -0.74505805969E-08  0.93827000000E+00  0.93827000000E+00 0.  1.
     999902    2    1    2    0    0 -0.77648387905E-02 -0.11755260422E-01  0.19354960592E-01  0.10199906314E+01  0.10197096620E+01 0.  0.
     999903    2    3    3    0    0 -0.12178423989E+00  0.12545887028E-01  0.44775989109E-01  0.13193815645E+00  0.20346684223E-01 0.  0.
         14    1    1    2    0    0  0.77648387905E-02  0.11755260422E-01 -0.19354960592E-01  0.23939368592E-01  0.00000000000E+00 0.  1.
     999901    1    3    3    0    0  0.11401940110E+00 -0.24301147451E-01 -0.25421028517E-01  0.88805247496E+00  0.88000000000E+00 0.  1.
        -11    1    4    4    0    0 -0.97128817555E-01  0.18028529956E-01  0.37241772447E-01  0.10557578239E+00  0.51100000000E-03 0. -1.
         11    1    4    4    0    0 -0.24655422336E-01 -0.54826429278E-02  0.75342166621E-02  0.26362374054E-01  0.51100000000E-03 0.  1.
</event>
<event>
 8    1  0.1030163E+005  0.1043930E+01  0.7957747E-01            NaN
         13   -1    0    0    0    0  0.00000000000E+00  0.00000000000E+00  0.74505805969E-08  0.10566000000E+00  0.10566000000E+00 0. -1.
     999900   -1    0    0    0    0 -0.00000000000E+00 -0.00000000000E+00 -0.74505805969E-08  0.93827000000E+00  0.93827000000E+00 0. -1.
     999902    2    1    2    0    0 -0.16747314019E-01 -0.10317965254E-01  0.24257008803E-02  0.10241103895E+01  0.10239185871E+01 0.  0.
     999903    2    3    3    0    0 -0.91418326610E-01 -0.39755675305E-01  0.90425053381E-01  0.13608661456E+00  0.20125909291E-01 0.  0.
         14    1    1    2    0    0  0.16747314019E-01  0.10317965254E-01 -0.24257008803E-02  0.19819610456E-01  0.00000000000E+00 0. -1.
     999901    1    3    3    0    0  0.74671012591E-01  0.29437710050E-01 -0.87999352501E-01  0.88802377498E+00  0.88000000000E+00 0. -1.
        -11    1    4    4    0    0 -0.23306457033E-01 -0.19965026732E-01  0.24916146868E-01  0.39533134553E-01  0.51100000000E-03 0.  1.
         11    1    4    4    0    0 -0.68111869577E-01 -0.19790648572E-01  0.65508906513E-01  0.96553480008E-01  0.51100000000E-03 0. -1.
</event>
<event>
 8    1  0.1030163E+005  0.1043930E+01  0.7957747E-01            NaN
         13   -1    0    0    0    0  0.00000000000E+00  0.00000000000E+00  0.74505805969E-08  0.10566000000E+00  0.10566000000E+00 0.  1.
     999900   -1    0    0    0    0 -0.00000000000E+00 -0.00000000000E+00 -0.74505805969E-08  0.93827000000E+00  0.93827000000E+00 0. -1.
     999902    2    1    2    0    0 -0.29831341491E-03  0.22888764357E-01  0.61826385641E-02  0.10202190417E+01  0.10199434707E+01 0.  0.
     999903    2    3    3    0    0 -0.95857366896E-01 -0.28796413413E-01  0.81013104178E-01  0.13038619846E+00  0.20483395359E-01 0.  0.
         14    1    1    2    0    0  0.29831341491E-03 -0.22888764357E-01 -0.61826385641E-02  0.23710958317E-01  0.00000000000E+00 0. -1.
     999901    1    3    3    0    0  0.95559053481E-01  0.51685177770E-01 -0.74830465614E-01  0.88983284323E+00  0.88000000000E+00 0. -1.
        -11    1    4    4    0    0 -0.20333204104E-01 -0.10355051382E-01  0.93947836320E-02  0.24681761662E-01  0.51100000000E-03 0.  1.
         11    1    4    4    0    0 -0.75524162792E-01 -0.18441362031E-01  0.71618320546E-01  0.10570443679E+00  0.51100000000E-03 0. -1.
</event>
<event>
 8    1  0.1030163E+005  0.1043930E+01  0.7957747E-01            NaN
         13   -1    0    0    0    0  0.00000000000E+00  0.00000000000E+00  0.74505805969E-08  0.10566000000E+00  0.10566000000E+00 0.  1.
     999900   -1    0    0    0    0 -0.00000000000E+00 -0.00000000000E+00 -0.74505805969E-08  0.93827000000E+00  0.93827000000E+00 0. -1.
     999902    2    1    2    0    0 -0.90916640457E-02 -0.17245801139E-01 -0.11118750937E-01  0.10214866795E+01  0.10212400961E+01 0.  0.
     999903    2    3    3    0    0  0.12698323762E+00 -0.24414103849E-01 -0.57207237497E-02  0.13098294447E+00  0.20075207540E-01 0.  0.
         14    1    1    2    0    0  0.90916640457E-02  0.17245801139E-01  0.11118750937E-01  0.22443320486E-01  0.00000000000E+00 0.  1.
     999901    1    3    3    0    0 -0.13607490167E+00  0.71683027098E-02 -0.53980271870E-02  0.89050373504E+00  0.88000000000E+00 0.  1.
        -11    1    4    4    0    0  0.10790863624E+00 -0.17016223038E-01  0.15791542285E-02  0.10925465880E+00  0.51100000000E-03 0.  1.
         11    1    4    4    0    0  0.19074601385E-01 -0.73978808113E-02 -0.72998779781E-02  0.21728285666E-01  0.51100000000E-03 0. -1.
</event>
<event>
 8    1  0.1030163E+005  0.1043930E+01  0.7957747E-01            NaN
         13   -1    0    0    0    0  0.00000000000E+00  0.00000000000E+00  0.74505805969E-08  0.10566000000E+00  0.10566000000E+00 0. -1.
     999900   -1    0    0    0    0 -0.00000000000E+00 -0.00000000000E+00 -0.74505805969E-08  0.93827000000E+00  0.93827000000E+00 0.  1.
     999902    2    1    2    0    0 -0.74504811836E-02  0.22242462041E-01  0.77229242339E-02  0.10192342444E+01  0.10189350149E+01 0.  0.
     999903    2    3    3    0    0  0.12508646434E+00 -0.19992020145E-01 -0.83018250202E-02  0.12816377241E+00  0.17627473666E-01 0.  0.
         14    1    1    2    0    0  0.74504811836E-02 -0.22242462041E-01 -0.77229242339E-02  0.24695755632E-01  0.00000000000E+00 0.  1.
     999901    1    3    3    0    0 -0.13253694552E+00  0.42234482186E-01  0.16024749254E-01  0.89107047196E+00  0.88000000000E+00 0. -1.
        -11    1    4    4    0    0  0.53809884977E-01 -0.23292138236E-02 -0.96338128452E-02  0.54717460003E-01  0.51100000000E-03 0.  1.
         11    1    4    4    0    0  0.71276579364E-01 -0.17662806321E-01  0.13319878250E-02  0.73446312403E-01  0.51100000000E-03 0. -1.
</event>
<event>
 8    1  0.1030163E+005  0.1043930E+01  0.7957747E-01            NaN
         13   -1    0    0    0    0  0.00000000000E+00  0.00000000000E+00  0.74505805969E-08  0.10566000000E+00  0.10566000000E+00 0.  1.
     999900   -1    0    0    0    0 -0.00000000000E+00 -0.00000000000E+00 -0.74505805969E-08  0.93827000000E+00  0.93827000000E+00 0. -1.
     999902    2    1    2    0    0  0.16159457464E-01  0.15595231025E-01  0.73731175354E-02  0.10202931187E+01  0.10200192870E+01 0.  0.
     999903    2    3    3    0    0 -0.11683483712E+00  0.52150361605E-01  0.66321347578E-02  0.12954943556E+00  0.19210196834E-01 0.  0.
         14    1    1    2    0    0 -0.16159457464E-01 -0.15595231025E-01 -0.73731175354E-02  0.23636881318E-01  0.00000000000E+00 0.  1.
     999901    1    3    3    0    0  0.13299429458E+00 -0.36555130579E-01  0.74098277753E-03  0.89074368312E+00  0.88000000000E+00 0. -1.
        -11    1    4    4    0    0 -0.18122070112E-01  0.51977393541E-02  0.73343513150E-02  0.20235605989E-01  0.51100000000E-03 0.  1.
         11    1    4    4    0    0 -0.98712767009E-01  0.46952622251E-01 -0.70221655713E-03  0.10931382957E+00  0.51100000000E-03 0. -1.
</event>
<event>
 8    1  0.1030163E+005  0.1043930E+01  0.7957747E-01            NaN
         13   -1    0    0    0    0  0.00000000000E+00  0.00000000000E+00  0.74505805969E-08  0.10566000000E+00  0.10566000000E+00 0. -1.
     999900   -1    0    0    0    0 -0.00000000000E+00 -0.00000000000E+00 -0.74505805969E-08  0.93827000000E+00  0.93827000000E+00 0.  1.
     999902    2    1    2    0    0  0.10294949049E-01 -0.20691304623E-01 -0.48663788513E-02  0.10203122587E+01  0.10200388755E+01 0.  0.
     999903    2    3    3    0    0 -0.94313470837E-01 -0.23404056658E-01 -0.85377839451E-01  0.13046262202E+00  0.16980566134E-01 0.  0.
         14    1    1    2    0    0 -0.10294949049E-01  0.20691304623E-01  0.48663788513E-02  0.23617741341E-01  0.00000000000E+00 0. -1.
     999901    1    3    3    0    0  0.10460841989E+00  0.27127520351E-02  0.80511460600E-01  0.88984963664E+00  0.88000000000E+00 0. -1.
        -11    1    4    4    0    0 -0.33548938504E-01 -0.95465956798E-03 -0.34037217331E-01  0.47804141393E-01  0.51100000000E-03 0. -1.
         11    1    4    4    0    0 -0.60764532332E-01 -0.22449397090E-01 -0.51340622120E-01  0.82658480629E-01  0.51100000000E-03 0.  1.
</event>
<event>
 8    1  0.1030163E+005  0.1043930E+01  0.7957747E-01            NaN
         13   -1    0    0    0    0  0.00000000000E+00  0.00000000000E+00  0.74505805969E-08  0.10566000000E+00  0.10566000000E+00 0. -1.
     999900   -1    0    0    0    0 -0.00000000000E+00 -0.00000000000E+00 -0.74505805969E-08  0.93827000000E+00  0.93827000000E+00 0.  1.
     999902    2    1    2    0    0  0.12524681088E-01 -0.19834345332E-01  0.56192915919E-02  0.10198085297E+01  0.10195232179E+01 0.  0.
     999903    2    3    3    0    0  0.96119106347E-01  0.12580561530E-01 -0.85114366324E-01  0.13061150385E+00  0.20439091191E-01 0.  0.
         14    1    1    2    0    0 -0.12524681088E-01  0.19834345332E-01 -0.56192915919E-02  0.24121470293E-01  0.00000000000E+00 0.  1.
     999901    1    3    3    0    0 -0.83594425259E-01 -0.32414906863E-01  0.90733657916E-01  0.88919702586E+00  0.88000000000E+00 0. -1.
        -11    1    4    4    0    0  0.66459161779E-01  0.96168574237E-02 -0.45854148809E-01  0.81315239747E-01  0.51100000000E-03 0.  1.
         11    1    4    4    0    0  0.29659944569E-01  0.29637041067E-02 -0.39260217514E-01  0.49296264099E-01  0.51100000000E-03 0. -1.
</event>
<event>
 8    1  0.1030163E+005  0.1043930E+01  0.7957747E-01            NaN
         13   -1    0    0    0    0  0.00000000000E+00  0.00000000000E+00  0.74505805969E-08  0.10566000000E+00  0.10566000000E+00 0. -1.
     999900   -1    0    0    0    0 -0.00000000000E+00 -0.00000000000E+00 -0.74505805969E-08  0.93827000000E+00  0.93827000000E+00 0. -1.
     999902    2    1    2    0    0  0.13887766097E-02 -0.57356602827E-03 -0.23609511911E-01  0.10202727235E+01  0.10199984135E+01 0.  0.
     999903    2    3    3    0    0  0.95437976614E-01  0.66053135069E-01 -0.59516338744E-01  0.13203082541E+00  0.20457767434E-01 0.  0.
         14    1    1    2    0    0 -0.13887766097E-02  0.57356602827E-03  0.23609511911E-01  0.23657276494E-01  0.00000000000E+00 0. -1.
     999901    1    3    3    0    0 -0.94049200004E-01 -0.66626701097E-01  0.35906826833E-01  0.88824189810E+00  0.88000000000E+00 0. -1.
        -11    1    4    4    0    0  0.47498991943E-01  0.28874270807E-01 -0.39317181391E-01  0.68088028491E-01  0.51100000000E-03 0. -1.
         11    1    4    4    0    0  0.47938984670E-01  0.37178864262E-01 -0.20199157353E-01  0.63942796919E-01  0.51100000000E-03 0.  1.
</event>
<event>
 8    1  0.1030163E+005  0.1043930E+01  0.7957747E-01            NaN
         13   -1    0    0    0    0  0.00000000000E+00  0.00000000000E+00  0.74505805969E-08  0.10566000000E+00  0.10566000000E+00 0.  1.
     999900   -1    0    0    0    0 -0.00000000000E+00 -0.00000000000E+00 -0.74505805969E-08  0.93827000000E+00  0.93827000000E+00 0. -1.
     999902    2    1    2    0    0 -0.70850845009E-03  0.82692846735E-02  0.29111200085E-01  0.10136588087E+01  0.10132067091E+01 0.  0.
     999903    2    3    3    0    0 -0.70101644280E-01 -0.95418230502E-01  0.30041015678E-01  0.12485772146E+00  0.25847799542E-01 0.  0.
         14    1    1    2    0    0  0.70850845009E-03 -0.82692846735E-02 -0.29111200085E-01  0.30271191315E-01  0.00000000000E+00 0. -1.
     999901    1    3    3    0    0  0.69393135830E-01  0.10368751518E+00 -0.92981559275E-03  0.88880108723E+00  0.88000000000E+00 0.  1.
        -11    1    4    4    0    0 -0.24030113142E-01 -0.14491476497E-01  0.68605468845E-02  0.28892515522E-01  0.51100000000E-03 0. -1.
         11    1    4    4    0    0 -0.46071531138E-01 -0.80926754006E-01  0.23180468793E-01  0.95965205933E-01  0.51100000000E-03 0.  1.
</event>
<event>
 8    1  0.1030163E+005  0.1043930E+01  0.7957747E-01            NaN
         13   -1    0    0    0    0  0.00000000000E+00  0.00000000000E+00  0.74505805969E-08  0.10566000000E+00  0.10566000000E+00 0. -1.
     999900   -1    0    0    0    0 -0.00000000000E+00 -0.00000000000E+00 -0.74505805969E-08  0.93827000000E+00  0.93827000000E+00 0. -1.
     999902    2    1    2    0    0  0.16900213702E-01 -0.35904773198E-02 -0.16174745047E-01  0.10202629104E+01  0.10199883702E+01 0.  0.
     999903    2    3    3    0    0  0.81132641098E-01  0.55760238574E-01 -0.87023905022E-01  0.13309442832E+00  0.21195687010E-01 0.  0.
         14    1    1    2    0    0 -0.16900213702E-01  0.35904773198E-02  0.16174745047E-01  0.23667089553E-01  0.00000000000E+00 0. -1.
     999901    1    3    3    0    0 -0.64232427396E-01 -0.59350715894E-01  0.70849159975E-01  0.88716848212E+00  0.88000000000E+00 0.  1.
        -11    1    4    4    0    0  0.26742901137E-01  0.28713123086E-01 -0.26551866294E-01  0.47380258793E-01  0.51100000000E-03 0. -1.
         11    1    4    4    0    0  0.54389739961E-01  0.27047115488E-01 -0.60472038728E-01  0.85714169530E-01  0.51100000000E-03 0.  1.
</event>
<event>
 8    1  0.1030163E+005  0.1043930E+01  0.7957747E-01            NaN
         13   -1    0    0    0    0  0.00000000000E+00  0.00000000000E+00  0.74505805969E-08  0.10566000000E+00  0.10566000000E+00 0.  1.
     999900   -1    0    0    0    0 -0.00000000000E+00 -0.00000000000E+00 -0.74505805969E-08  0.93827000000E+00  0.93827000000E+00 0.  1.
     999902    2    1    2    0    0 -0.23992098473E-01  0.35517928342E-02  0.10621112842E-02  0.10196531777E+01  0.10193641345E+01 0.  0.
     999903    2    3    3    0    0  0.35093331985E-01 -0.13756191647E-01 -0.12183604100E+00  0.12898230118E+00  0.19277924448E-01 0.  0.
         14    1    1    2    0    0  0.23992098473E-01 -0.35517928342E-02 -0.10621112842E-02  0.24276822318E-01  0.00000000000E+00 0.  1.
     999901    1    3    3    0    0 -0.59085430458E-01  0.17307984481E-01  0.12289815229E+00  0.89067087651E+00  0.88000000000E+00 0. -1.
        -11    1    4    4    0    0  0.23435182998E-01  0.71530227212E-03 -0.75413657885E-01  0.78975948086E-01  0.51100000000E-03 0. -1.
         11    1    4    4    0    0  0.11658148988E-01 -0.14471493919E-01 -0.46422383118E-01  0.50006353090E-01  0.51100000000E-03 0.  1.
</event>
<event>
 8    1  0.1030163E+005  0.1043930E+01  0.7957747E-01            NaN
         13   -1    0    0    0    0  0.00000000000E+00  0.00000000000E+00  0.74505805969E-08  0.10566000000E+00  0.10566000000E+00 0.  1.
     999900   -1    0    0    0    0 -0.00000000000E+00 -0.00000000000E+00 -0.74505805969E-08  0.93827000000E+00  0.93827000000E+00 0. -1.
     999902    2    1    2    0    0  0.13074672019E-01  0.88544703250E-02  0.16334101738E-01  0.10212110306E+01  0.10209582838E+01 0.  0.
     999903    2    3    3    0    0  0.11229563318E+00  0.67214333076E-01 -0.15065818336E-01  0.13315887685E+00  0.19396695574E-01 0.  0.
         14    1    1    2    0    0 -0.13074672019E-01 -0.88544703250E-02 -0.16334101738E-01  0.22718969447E-01  0.00000000000E+00 0.  1.
     999901    1    3    3    0    0 -0.99220961164E-01 -0.58359862752E-01  0.31399920074E-01  0.88805215370E+00  0.88000000000E+00 0. -1.
        -11    1    4    4    0    0  0.67305962956E-01  0.29191754395E-01 -0.97913858741E-02  0.74016103196E-01  0.51100000000E-03 0. -1.
         11    1    4    4    0    0  0.44989670227E-01  0.38022578681E-01 -0.52744324620E-02  0.59142773654E-01  0.51100000000E-03 0.  1.
</event>
<event>
 8    1  0.1030163E+005  0.1043930E+01  0.7957747E-01            NaN
         13   -1    0    0    0    0  0.00000000000E+00  0.00000000000E+00  0.74505805969E-08  0.10566000000E+00  0.10566000000E+00 0.  1.
     999900   -1    0    0    0    0 -0.00000000000E+00 -0.00000000000E+00 -0.74505805969E-08  0.93827000000E+00  0.93827000000E+00 0.  1.
     999902    2    1    2    0    0  0.19382037602E-01 -0.12559146299E-01 -0.51286185391E-02  0.10202720570E+01  0.10199977314E+01 0.  0.
     999903    2    3    3    0    0 -0.10042757570E+00  0.24649437956E-01  0.72780173146E-01  0.12796683907E+00  0.19628182442E-01 0.  0.
         14    1    1    2    0    0 -0.19382037602E-01  0.12559146299E-01  0.51286185391E-02  0.23657942968E-01  0.00000000000E+00 0. -1.
     999901    1    3    3    0    0  0.11980961330E+00 -0.37208584255E-01 -0.77908791685E-01  0.89230521796E+00  0.88000000000E+00 0.  1.
        -11    1    4    4    0    0 -0.45444093101E-01  0.19206388034E-01  0.41507797212E-01  0.64476424292E-01  0.51100000000E-03 0.  1.
         11    1    4    4    0    0 -0.54983482598E-01  0.54430499220E-02  0.31272375933E-01  0.63490414777E-01  0.51100000000E-03 0. -1.
</event>
<event>
 8    1  0.1030163E+005  0.1043930E+01  0.7957747E-01            NaN
         13   -1    0    0    0    0  0.00000000000E+00  0.00000000000E+00  0.74505805969E-08  0.10566000000E+00  0.10566000000E+00 0. -1.
     999900   -1    0    0    0    0 -0.00000000000E+00 -0.00000000000E+00 -0.74505805969E-08  0.93827000000E+00  0.93827000000E+00 0. -1.
     999902    2    1    2    0    0 -0.11749996982E-01  0.14416802863E-01  0.14134724742E-01  0.10205698400E+01  0.10203024557E+01 0.  0.
     999903    2    3    3    0    0  0.79099795285E-01  0.71992462315E-01 -0.70750646057E-01  0.12996657952E+00  0.21117898354E-01 0.  0.
         14    1    1    2    0    0  0.11749996982E-01 -0.14416802863E-01 -0.14134724742E-01  0.23360160046E-01  0.00000000000E+00 0. -1.
     999901    1    3    3    0    0 -0.90849792266E-01 -0.57575659452E-01  0.84885370799E-01  0.89060326043E+00  0.88000000000E+00 0.  1.
        -11    1    4    4    0    0  0.25002235146E-01  0.29228297399E-01 -0.36255622896E-01  0.52859591785E-01  0.51100000000E-03 0.  1.
         11    1    4    4    0    0  0.54097560139E-01  0.42764164916E-01 -0.34495023161E-01  0.77106987736E-01  0.51100000000E-03 0. -1.
</event>
<event>
 8    1  0.1030163E+005  0.1043930E+01  0.7957747E-01            NaN
         13   -1    0    0    0    0  0.00000000000E+00  0.00000000000E+00  0.74505805969E-08  0.10566000000E+00  0.10566000000E+00 0. -1.
     999900   -1    0    0    0    0 -0.00000000000E+00 -0.00000000000E+00 -0.74505805969E-08  0.93827000000E+00  0.93827000000E+00 0.  1.
     999902    2    1    2    0    0 -0.78087220506E-03  0.82181084993E-02  0.22004811614E-01  0.10204276852E+01  0.10201569986E+01 0.  0.
     999903    2    3    3    0    0  0.53308638797E-01  0.76042982986E-01 -0.87874212996E-01  0.12936130781E+00  0.19700873475E-01 0.  0.
         14    1    1    2    0    0  0.78087220506E-03 -0.82181084993E-02 -0.22004811614E-01  0.23502314841E-01  0.00000000000E+00 0.  1.
     999901    1    3    3    0    0 -0.54089511002E-01 -0.67824874487E-01  0.10987902461E+00  0.89106637735E+00  0.88000000000E+00 0. -1.
        -11    1    4    4    0    0  0.51869316439E-01  0.62914678365E-01 -0.72765893402E-01  0.10928778113E+00  0.51100000000E-03 0.  1.
         11    1    4    4    0    0  0.14393223581E-02  0.13128304621E-01 -0.15108319594E-01  0.20073526672E-01  0.51100000000E-03 0. -1.
</event>
<event>
 8    1  0.1030163E+005  0.1043930E+01  0.7957747E-01            NaN
         13   -1    0    0    0    0  0.00000000000E+00  0.00000000000E+00  0.74505805969E-08  0.10566000000E+00  0.10566000000E+00 0.  1.
     999900   -1    0    0    0    0 -0.00000000000E+00 -0.00000000000E+00 -0.74505805969E-08  0.93827000000E+00  0.93827000000E+00 0. -1.
     999902    2    1    2    0    0 -0.60699885717E-02 -0.21372240064E-01  0.47697681837E-02  0.10212062658E+01  0.10209534119E+01 0.  0.
     999903    2    3    3    0    0  0.10050104675E+00  0.16079350492E-02 -0.80611950299E-01  0.13037771224E+00  0.19925246924E-01 0.  0.
         14    1    1    2    0    0  0.60699885717E-02  0.21372240064E-01 -0.47697681837E-02  0.22723734181E-01  0.00000000000E+00 0. -1.
     999901    1    3    3    0    0 -0.10657103532E+00 -0.22980175113E-01  0.85381718483E-01  0.89082855358E+00  0.88000000000E+00 0.  1.
        -11    1    4    4    0    0  0.18581343133E-01  0.67280986359E-02 -0.21628746083E-01  0.29301832742E-01  0.51100000000E-03 0.  1.
         11    1    4    4    0    0  0.81919703618E-01 -0.51201635868E-02 -0.58983204216E-01  0.10107587950E+00  0.51100000000E-03 0. -1.
</event>
<event>
 8    1  0.1030163E+005  0.1043930E+01  0.7957747E-01            NaN
         13   -1    0    0    0    0  0.00000000000E+00  0.00000000000E+00  0.74505805969E-08  0.10566000000E+00  0.10566000000E+00 0.  1.
     999900   -1    0    0    0    0 -0.00000000000E+00 -0.00000000000E+00 -0.74505805969E-08  0.93827000000E+00  0.93827000000E+00 0.  1.
     999902    2    1    2    0    0  0.54957646490E-02 -0.22522385824E-01  0.26967448987E-02  0.10205904686E+01  0.10203235619E+01 0.  0.
     999903    2    3    3    0    0 -0.11578553383E+00  0.40632195635E-02  0.56602455694E-01  0.13024122622E+00  0.18334105351E-01 0.  0.
         14    1    1    2    0    0 -0.54957646490E-02  0.22522385824E-01 -0.26967448987E-02  0.23339531386E-01  0.00000000000E+00 0. -1.
     999901    1    3    3    0    0  0.12128129848E+00 -0.26585605388E-01 -0.53905710795E-01  0.89034924239E+00  0.88000000000E+00 0.  1.
        -11    1    4    4    0    0 -0.22827614562E-01  0.66223768891E-02  0.66850400917E-02  0.24696290092E-01  0.51100000000E-03 0.  1.
         11    1    4    4    0    0 -0.92957919269E-01 -0.25591573256E-02  0.49917415602E-01  0.10554493613E+00  0.51100000000E-03 0. -1.
</event>
<event>
 8    1  0.1030163E+005  0.1043930E+01  0.7957747E-01            NaN
         13   -1    0    0    0    0  0.00000000000E+00  0.00000000000E+00  0.74505805969E-08  0.10566000000E+00  0.10566000000E+00 0. -1.
     999900   -1    0    0    0    0 -0.00000000000E+00 -0.00000000000E+00 -0.74505805969E-08  0.93827000000E+00  0.93827000000E+00 0. -1.
     999902    2    1    2    0    0  0.75020234469E-03 -0.22782542058E-01  0.25815693184E-02  0.10209893913E+01  0.10207316325E+01 0.  0.
     999903    2    3    3    0    0  0.27641495523E-01  0.10513699695E+00  0.65961547795E-01  0.12907932199E+00  0.22196963205E-01 0.  0.
         14    1    1    2    0    0 -0.75020234469E-03  0.22782542058E-01 -0.25815693184E-02  0.22940608674E-01  0.00000000000E+00 0.  1.
     999901    1    3    3    0    0 -0.26891293178E-01 -0.12791953901E+00 -0.63379978476E-01  0.89191006933E+00  0.88000000000E+00 0. -1.
        -11    1    4    4    0    0  0.15807702470E-01  0.52024685326E-01  0.45642068719E-01  0.70992329857E-01  0.51100000000E-03 0.  1.
         11    1    4    4    0    0  0.11833793052E-01  0.53112311626E-01  0.20319479076E-01  0.58086992134E-01  0.51100000000E-03 0. -1.
</event>
<event>
 8    1  0.1030163E+005  0.1043930E+01  0.7957747E-01            NaN
         13   -1    0    0    0    0  0.00000000000E+00  0.00000000000E+00  0.74505805969E-08  0.10566000000E+00  0.10566000000E+00 0.  1.
     999900   -1    0    0    0    0 -0.00000000000E+00 -0.00000000000E+00 -0.74505805969E-08  0.93827000000E+00  0.93827000000E+00 0. -1.
     999902    2    1    2    0    0  0.14542395272E-01 -0.99384956782E-02  0.39392889200E-04  0.10263159003E+01  0.10261647386E+01 0.  0.
     999903    2    3    3    0    0  0.10229819871E+00 -0.89344281940E-01 -0.14514853665E-01  0.13827412987E+00  0.21487946387E-01 0.  0.
         14    1    1    2    0    0 -0.14542395272E-01  0.99384956782E-02 -0.39392889200E-04  0.17614099705E-01  0.00000000000E+00 0.  1.
     999901    1    3    3    0    0 -0.87755803436E-01  0.79405786261E-01  0.14554246554E-01  0.88804177043E+00  0.88000000000E+00 0. -1.
        -11    1    4    4    0    0  0.37408939982E-01 -0.45990361712E-01 -0.98026822078E-02  0.60090730237E-01  0.51100000000E-03 0.  1.
         11    1    4    4    0    0  0.64889258727E-01 -0.43353920227E-01 -0.47121714572E-02  0.78183399632E-01  0.51100000000E-03 0. -1.
</event>
<event>
 8    1  0.1030163E+005  0.1043930E+01  0.7957747E-01            NaN
         13   -1    0    0    0    0  0.00000000000E+00  0.00000000000E+00  0.74505805969E-08  0.10566000000E+00  0.10566000000E+00 0. -1.
     999900   -1    0    0    0    0 -0.00000000000E+00 -0.00000000000E+00 -0.74505805969E-08  0.93827000000E+00  0.93827000000E+00 0. -1.
     999902    2    1    2    0    0 -0.96154915723E-02  0.14572980902E-01  0.14900352319E-01  0.10209767878E+01  0.10207187425E+01 0.  0.
     999903    2    3    3    0    0 -0.12210645072E+00 -0.39312698342E-01  0.25005597295E-01  0.13212359504E+00  0.19387906326E-01 0.  0.
         14    1    1    2    0    0  0.96154915723E-02 -0.14572980902E-01 -0.14900352319E-01  0.22953212189E-01  0.00000000000E+00 0.  1.
     999901    1    3    3    0    0  0.11249095915E+00  0.53885679245E-01 -0.10105244976E-01  0.88885319277E+00  0.88000000000E+00 0.  1.
        -11    1    4    4    0    0 -0.77583612291E-01 -0.34581665322E-01  0.17359966646E-01  0.86699123615E-01  0.51100000000E-03 0. -1.
         11    1    4    4    0    0 -0.44522838432E-01 -0.47310330203E-02  0.76456306489E-02  0.45424471428E-01  0.51100000000E-03 0.  1.
</event>
<event>
 8    1  0.1030163E+005  0.1043930E+01  0.7957747E-01            NaN
         13   -1    0    0    0    0  0.00000000000E+00  0.00000000000E+00  0.74505805969E-08  0.10566000000E+00  0.10566000000E+00 0. -1.
     999900   -1    0    0    0    0 -0.00000000000E+00 -0.00000000000E+00 -0.74505805969E-08  0.93827000000E+00  0.93827000000E+00 0. -1.
     999902    2    1    2    0    0 -0.30645423357E-02  0.51969071035E-02  0.22699354478E-01  0.10204425575E+01  0.10201722174E+01 0.  0.
     999903    2    3    3    0    0 -0.10723592595E+00  0.68527705981E-01 -0.22906207687E-01  0.13086831405E+00  0.20155172278E-01 0.  0.
         14    1    1    2    0    0  0.30645423357E-02 -0.51969071035E-02 -0.22699354478E-01  0.23487442536E-01  0.00000000000E+00 0.  1.
     999901    1    3    3    0    0  0.10417138361E+00 -0.63330798878E-01  0.45605562165E-01  0.88957424342E+00  0.88000000000E+00 0.  1.
        -11    1    4    4    0    0 -0.76741751895E-01  0.38998516718E-01 -0.11035703525E-01  0.86788413187E-01  0.51100000000E-03 0. -1.
         11    1    4    4    0    0 -0.30494174054E-01  0.29529189263E-01 -0.11870504161E-01  0.44079900860E-01  0.51100000000E-03 0.  1.
</event>
<event>
 8    1  0.1030163E+005  0.1043930E+01  0.7957747E-01            NaN
         13   -1    0    0    0    0  0.00000000000E+00  0.00000000000E+00  0.74505805969E-08  0.10566000000E+00  0.10566000000E+00 0. -1.
     999900   -1    0    0    0    0 -0.00000000000E+00 -0.00000000000E+00 -0.74505805969E-08  0.93827000000E+00  0.93827000000E+00 0. -1.
     999902    2    1    2    0    0 -0.16302460374E-01 -0.15219043298E-01  0.88542669498E-02  0.10199344267E+01  0.10196521207E+01 0.  0.
     999903    2    3    3    0    0 -0.39818928525E-01 -0.11984302783E+00 -0.34657989931E-01  0.13235765884E+00  0.19221737653E-01 0.  0.
         14    1    1    2    0    0  0.16302460374E-01  0.15219043298E-01 -0.88542669498E-02  0.23995573267E-01  0.00000000000E+00 0. -1.
     999901    1    3    3    0    0  0.23516468151E-01  0.10462398453E+00  0.43512256881E-01  0.88757676790E+00  0.88000000000E+00 0. -1.
        -11    1    4    4    0    0 -0.28525538171E-01 -0.72678813823E-01 -0.29966426543E-01  0.83631119492E-01  0.51100000000E-03 0. -1.
         11    1    4    4    0    0 -0.11293390354E-01 -0.47164214005E-01 -0.46915633889E-02  0.48726539344E-01  0.51100000000E-03 0.  1.
</event>
<event>
 8    1  0.1030163E+005  0.1043930E+01  0.7957747E-01            NaN
         13   -1    0    0    0    0  0.00000000000E+00  0.00000000000E+00  0.74505805969E-08  0.10566000000E+00  0.10566000000E+00 0.  1.
     999900   -1    0    0    0    0 -0.00000000000E+00 -0.00000000000E+00 -0.74505805969E-08  0.93827000000E+00  0.93827000000E+00 0.  1.
     999902    2    1    2    0    0 -0.87202864422E-03 -0.83099476916E-02 -0.21548999062E-01  0.10208177733E+01  0.10205560990E+01 0.  0.
     999903    2    3    3    0    0 -0.27418237637E-01  0.30189155081E-01  0.12006548387E+00  0.12826999083E+00  0.19347488013E-01 0.  0.
         14    1    1    2    0    0  0.87202864422E-03  0.83099476916E-02  0.21548999062E-01  0.23112226746E-01  0.00000000000E+00 0.  1.
     999901    1    3    3    0    0  0.26546208993E-01 -0.38499102773E-01 -0.14161448293E+00  0.89254778242E+00  0.88000000000E+00 0.  1.
        -11    1    4    4    0    0 -0.21901940003E-01  0.11029466012E-01  0.55116964795E-01  0.60328144557E-01  0.51100000000E-03 0.  1.
         11    1    4    4    0    0 -0.55162976339E-02  0.19159689069E-01  0.64948519074E-01  0.67941846278E-01  0.51100000000E-03 0. -1.
</event>
<event>
 8    1  0.1030163E+005  0.1043930E+01  0.7957747E-01            NaN
         13   -1    0    0    0    0  0.00000000000E+00  0.00000000000E+00  0.74505805969E-08  0.10566000000E+00  0.10566000000E+00 0.  1.
     999900   -1    0    0    0    0 -0.00000000000E+00 -0.00000000000E+00 -0.74505805969E-08  0.93827000000E+00  0.93827000000E+00 0. -1.
     999902    2    1    2    0    0  0.82273833471E-03 -0.23500057544E-01 -0.33620491212E-02  0.10201764113E+01  0.10198998368E+01 0.  0.
     999903    2    3    3    0    0 -0.10090060932E+00 -0.38805688621E-01  0.72715696936E-01  0.13092407069E+00  0.12912214138E-01 0.  0.
         14    1    1    2    0    0 -0.82273833471E-03  0.23500057544E-01  0.33620491212E-02  0.23753588723E-01  0.00000000000E+00 0. -1.
     999901    1    3    3    0    0  0.10172334765E+00  0.15305631077E-01 -0.76077746058E-01  0.88925234059E+00  0.88000000000E+00 0. -1.
        -11    1    4    4    0    0 -0.67052696687E-01 -0.32064847388E-01  0.51096045425E-01  0.90195817808E-01  0.51100000000E-03 0.  1.
         11    1    4    4    0    0 -0.33847912631E-01 -0.67408412333E-02  0.21619651511E-01  0.40728252878E-01  0.51100000000E-03 0. -1.
</event>
<event>
 8    1  0.1030163E+005  0.1043930E+01  0.7957747E-01            NaN
         13   -1    0    0    0    0  0.00000000000E+00  0.00000000000E+00  0.74505805969E-08  0.10566000000E+00  0.10566000000E+00 0. -1.
     999900   -1    0    0    0    0 -0.00000000000E+00 -0.00000000000E+00 -0.74505805969E-08  0.93827000000E+00  0.93827000000E+00 0. -1.
     999902    2    1    2    0    0  0.61371905888E-02 -0.20905927403E-01 -0.10420316611E-01  0.10197782732E+01  0.10194922367E+01 0.  0.
     999903    2    3    3    0    0  0.51207195436E-01  0.11301308188E+00 -0.25443186712E-01  0.12837976916E+00  0.20973217205E-01 0.  0.
         14    1    1    2    0    0 -0.61371905888E-02  0.20905927403E-01  0.10420316611E-01  0.24151726795E-01  0.00000000000E+00 0.  1.
     999901    1    3    3    0    0 -0.45070004847E-01 -0.13391900928E+00  0.15022870101E-01  0.89139850404E+00  0.88000000000E+00 0.  1.
        -11    1    4    4    0    0  0.31627532287E-01  0.83451808348E-01 -0.25858303723E-01  0.92916188619E-01  0.51100000000E-03 0. -1.
         11    1    4    4    0    0  0.19579663149E-01  0.29561273531E-01  0.41511701116E-03  0.35463580543E-01  0.51100000000E-03 0.  1.
</event>
<event>
 8    1  0.1030163E+005  0.1043930E+01  0.7957747E-01            NaN
         13   -1    0    0    0    0  0.00000000000E+00  0.00000000000E+00  0.74505805969E-08  0.10566000000E+00  0.10566000000E+00 0.  1.
     999900   -1    0    0    0    0 -0.00000000000E+00 -0.00000000000E+00 -0.74505805969E-08  0.93827000000E+00  0.93827000000E+00 0.  1.
     999902    2    1    2    0    0 -0.13484993229E-01 -0.25104173918E-01 -0.23118364192E-02  0.10153396314E+01  0.10149370216E+01 0.  0.
     999903    2    3    3    0    0  0.80989454095E-01  0.48616879251E-01 -0.78184219736E-01  0.12398289391E+00  0.18332843297E-01 0.  0.
         14    1    1    2    0    0  0.13484993229E-01  0.25104173918E-01  0.23118364192E-02  0.28590368625E-01  0.00000000000E+00 0. -1.
     999901    1    3    3    0    0 -0.94474447324E-01 -0.73721053168E-01  0.75872383317E-01  0.89135673747E+00  0.88000000000E+00 0. -1.
        -11    1    4    4    0    0  0.12335263528E-01  0.61949074831E-02 -0.20751645288E-01  0.24928447769E-01  0.51100000000E-03 0.  1.
         11    1    4    4    0    0  0.68654190568E-01  0.42421971768E-01 -0.57432574448E-01  0.99054446139E-01  0.51100000000E-03 0. -1.
</event>
<event>
 8    1  0.1030163E+005  0.1043930E+01  0.7957747E-01            NaN
         13   -1    0    0    0    0  0.00000000000E+00  0.00000000000E+00  0.74505805969E-08  0.10566000000E+00  0.10566000000E+00 0.  1.
     999900   -1    0    0    0    0 -0.00000000000E+00 -0.00000000000E+00 -0.74505805969E-08  0.93827000000E+00  0.93827000000E+00 0.  1.
     999902    2    1    2    0    0 -0.57104855645E-02  0.21350205155E-01  0.73433120140E-02  0.10206412659E+01  0.10203755331E+01 0.  0.
     999903    2    3    3    0    0 -0.83425365032E-01  0.91840135188E-01  0.45466087752E-01  0.13358896824E+00  0.19607277647E-01 0.  0.
         14    1    1    2    0    0  0.57104855645E-02 -0.21350205155E-01 -0.73433120140E-02  0.23288734119E-01  0.00000000000E+00 0.  1.
     999901    1    3    3    0    0  0.77714879467E-01 -0.70489930033E-01 -0.38122775738E-01  0.88705229764E+00  0.88000000000E+00 0.  1.
        -11    1    4    4    0    0 -0.55894324099E-01  0.72805322504E-01  0.37678219216E-01  0.99220460469E-01  0.51100000000E-03 0. -1.
         11    1    4    4    0    0 -0.27531040933E-01  0.19034812684E-01  0.77878685360E-02  0.34368507766E-01  0.51100000000E-03 0.  1.
</event>
<event>
 8    1  0.1030163E+005  0.1043930E+01  0.7957747E-01            NaN
         13   -1    0    0    0    0  0.00000000000E+00  0.00000000000E+00  0.74505805969E-08  0.10566000000E+00  0.10566000000E+00 0. -1.
     999900   -1    0    0    0    0 -0.00000000000E+00 -0.00000000000E+00 -0.74505805969E-08  0.93827000000E+00  0.93827000000E+00 0.  1.
     999902    2    1    2    0    0 -0.72041574007E-02  0.16217938334E-02  0.22731281881E-01  0.10200293457E+01  0.10197492951E+01 0.  0.
     999903    2    3    3    0    0  0.93246516874E-01 -0.87281620570E-01  0.40550851780E-02  0.12966820810E+00  0.22009231660E-01 0.  0.
         14    1    1    2    0    0  0.72041574007E-02 -0.16217938334E-02 -0.22731281881E-01  0.23900654281E-01  0.00000000000E+00 0.  1.
     999901    1    3    3    0    0 -0.10045067427E+00  0.88903414404E-01  0.18676196703E-01  0.89036113762E+00  0.88000000000E+00 0.  1.
        -11    1    4    4    0    0  0.39351604004E-01 -0.22912649655E-01 -0.11433799413E-02  0.45553338962E-01  0.51100000000E-03 0. -1.
         11    1    4    4    0    0  0.53894912870E-01 -0.64368970915E-01  0.51984651192E-02  0.84114869140E-01  0.51100000000E-03 0.  1.
</event>
<event>
 8    1  0.1030163E+005  0.1043930E+01  0.7957747E-01            NaN
         13   -1    0    0    0    0  0.00000000000E+00  0.00000000000E+00  0.74505805969E-08  0.10566000000E+00  0.10566000000E+00 0. -1.
     999900   -1    0    0    0    0 -0.00000000000E+00 -0.00000000000E+00 -0.74505805969E-08  0.93827000000E+00  0.93827000000E+00 0.  1.
     999902    2    1    2    0    0  0.58380647872E-04 -0.16355728993E-01  0.27676107755E-01  0.10117822128E+01  0.10112713612E+01 0.  0.
     999903    2    3    3    0    0  0.86511896865E-01 -0.45568720984E-01 -0.70624310423E-01  0.12161897972E+00  0.15574542535E-01 0.  0.
         14    1    1    2    0    0 -0.58380647872E-04  0.16355728993E-01 -0.27676107755E-01  0.32147787166E-01  0.00000000000E+00 0.  1.
     999901    1    3    3    0    0 -0.86453516217E-01  0.29212991991E-01  0.98300418177E-01  0.89016323311E+00  0.88000000000E+00 0.  1.
        -11    1    4    4    0    0  0.69771925943E-02  0.30744928928E-03 -0.31743773894E-02  0.76885326542E-02  0.51100000000E-03 0. -1.
         11    1    4    4    0    0  0.79534704271E-01 -0.45876170274E-01 -0.67449933033E-01  0.11393044707E+00  0.51100000000E-03 0.  1.
</event>
<event>
 8    1  0.1030163E+005  0.1043930E+01  0.7957747E-01            NaN
         13   -1    0    0    0    0  0.00000000000E+00  0.00000000000E+00  0.74505805969E-08  0.10566000000E+00  0.10566000000E+00 0. -1.
     999900   -1    0    0    0    0 -0.00000000000E+00 -0.00000000000E+00 -0.74505805969E-08  0.93827000000E+00  0.93827000000E+00 0. -1.
     999902    2    1    2    0    0  0.24300684913E-02 -0.83527169188E-02 -0.21802142026E-01  0.10204564722E+01  0.10201864560E+01 0.  0.
     999903    2    3    3    0    0 -0.12635019566E+00 -0.17098571420E-01  0.15838732435E-01  0.13024431663E+00  0.21353769688E-01 0.  0.
         14    1    1    2    0    0 -0.24300684913E-02  0.83527169188E-02  0.21802142026E-01  0.23473527850E-01  0.00000000000E+00 0. -1.
     999901    1    3    3    0    0  0.12878026416E+00  0.87458545010E-02 -0.37640874461E-01  0.89021215552E+00  0.88000000000E+00 0. -1.
        -11    1    4    4    0    0 -0.32994940210E-01 -0.97481719996E-02 -0.36196694710E-02  0.34598498015E-01  0.51100000000E-03 0. -1.
         11    1    4    4    0    0 -0.93355255455E-01 -0.73503994201E-02  0.19458401906E-01  0.95645818614E-01  0.51100000000E-03 0.  1.
</event>
<event>
 8    1  0.1030163E+005  0.1043930E+01  0.7957747E-01            NaN
         13   -1    0    0    0    0  0.00000000000E+00  0.00000000000E+00  0.74505805969E-08  0.10566000000E+00  0.10566000000E+00 0.  1.
     999900   -1    0    0    0    0 -0.00000000000E+00 -0.00000000000E+00 -0.74505805969E-08  0.93827000000E+00  0.93827000000E+00 0.  1.
     999902    2    1    2    0    0 -0.14331416392E-01  0.14460761673E-01  0.10249473254E-01  0.10211362547E+01  0.10208818226E+01 0.  0.
     999903    2    3    3    0    0 -0.96674476666E-01  0.91057295079E-01 -0.43968674819E-02  0.13385843809E+00  0.16166742980E-01 0.  0.
         14    1    1    2    0    0  0.14331416392E-01 -0.14460761673E-01 -0.10249473254E-01  0.22793745325E-01  0.00000000000E+00 0.  1.
     999901    1    3    3    0    0  0.82343060274E-01 -0.76596533406E-01  0.14646340736E-01  0.88727781658E+00  0.88000000000E+00 0. -1.
        -11    1    4    4    0    0 -0.38471538585E-01  0.27298799702E-01  0.25807767727E-02  0.47246219701E-01  0.51100000000E-03 0.  1.
         11    1    4    4    0    0 -0.58202938081E-01  0.63758495378E-01 -0.69776442546E-02  0.86612218390E-01  0.51100000000E-03 0. -1.
</event>
<event>
 8    1  0.1030163E+005  0.1043930E+01  0.7957747E-01            NaN
         13   -1    0    0    0    0  0.00000000000E+00  0.00000000000E+00  0.74505805969E-08  0.10566000000E+00  0.10566000000E+00 0. -1.
     999900   -1    0    0    0    0 -0.00000000000E+00 -0.00000000000E+00 -0.74505805969E-08  0.93827000000E+00  0.93827000000E+00 0.  1.
     999902    2    1    2    0    0 -0.10033166983E-01 -0.83252636578E-02  0.19187417377E-01  0.10207323398E+01  0.10204687051E+01 0.  0.
     999903    2    3    3    0    0 -0.12158374398E+00  0.41993451818E-01  0.23474301631E-01  0.13225393163E+00  0.19849503686E-01 0.  0.
         14    1    1    2    0    0  0.10033166983E-01  0.83252636578E-02 -0.19187417377E-01  0.23197660233E-01  0.00000000000E+00 0.  1.
     999901    1    3    3    0    0  0.11155057700E+00 -0.50318715476E-01 -0.42868842537E-02  0.88847840814E+00  0.88000000000E+00 0.  1.
        -11    1    4    4    0    0 -0.19453807675E-01  0.14838491813E-01  0.47081021138E-02  0.24921051721E-01  0.51100000000E-03 0. -1.
         11    1    4    4    0    0 -0.10212993631E+00  0.27154960005E-01  0.18766199517E-01  0.10733287990E+00  0.51100000000E-03 0.  1.
</event>
<event>
 8    1  0.1030163E+005  0.1043930E+01  0.7957747E-01            NaN
         13   -1    0    0    0    0  0.00000000000E+00  0.00000000000E+00  0.74505805969E-08  0.10566000000E+00  0.10566000000E+00 0.  1.
     999900   -1    0    0    0    0 -0.00000000000E+00 -0.00000000000E+00 -0.74505805969E-08  0.93827000000E+00  0.93827000000E+00 0.  1.
     999902    2    1    2    0    0 -0.14397093421E-01 -0.14303043123E-01  0.10103023248E-01  0.10212600988E+01  0.10210084549E+01 0.  0.
     999903    2    3    3    0    0  0.72478162529E-01  0.97891767478E-01 -0.36500934756E-01  0.12867569690E+00  0.19729028116E-01 0.  0.
         14    1    1    2    0    0  0.14397093421E-01  0.14303043123E-01 -0.10103023248E-01  0.22669901198E-01  0.00000000000E+00 0. -1.
     999901    1    3    3    0    0 -0.86875255949E-01 -0.11219481060E+00  0.46603958005E-01  0.89258440190E+00  0.88000000000E+00 0. -1.
        -11    1    4    4    0    0  0.40744152861E-01  0.40392187655E-01 -0.12278396622E-01  0.58673971746E-01  0.51100000000E-03 0. -1.
         11    1    4    4    0    0  0.31734009668E-01  0.57499579823E-01 -0.24222538134E-01  0.70001725151E-01  0.51100000000E-03 0.  1.
</event>
<event>
 8    1  0.1030163E+005  0.1043930E+01  0.7957747E-01            NaN
         13   -1    0    0    0    0  0.00000000000E+00  0.00000000000E+00  0.74505805969E-08  0.10566000000E+00  0.10566000000E+00 0.  1.
     999900   -1    0    0    0    0 -0.00000000000E+00 -0.00000000000E+00 -0.74505805969E-08  0.93827000000E+00  0.93827000000E+00 0. -1.
     999902    2    1    2    0    0 -0.15615112638E-01 -0.19564370536E-02 -0.17593780082E-01  0.10203249055E+01  0.10200518184E+01 0.  0.
     999903    2    3    3    0    0 -0.74065283459E-01  0.74179387991E-02  0.10456355117E+00  0.12991673226E+00  0.20102961478E-01 0.  0.
         14    1    1    2    0    0  0.15615112638E-01  0.19564370536E-02  0.17593780082E-01  0.23605094497E-01  0.00000000000E+00 0.  1.
     999901    1    3    3    0    0  0.58450170820E-01 -0.93743758528E-02 -0.12215733125E+00  0.89040817324E+00  0.88000000000E+00 0. -1.
        -11    1    4    4    0    0 -0.15250444810E-01 -0.66091808508E-02  0.23291814373E-01  0.28618649099E-01  0.51100000000E-03 0. -1.
         11    1    4    4    0    0 -0.58814838648E-01  0.14027119650E-01  0.81271736792E-01  0.10129808317E+00  0.51100000000E-03 0.  1.
</event>
<event>
 8    1  0.1030163E+005  0.1043930E+01  0.7957747E-01            NaN
         13   -1    0    0    0    0  0.00000000000E+00  0.00000000000E+00  0.74505805969E-08  0.10566000000E+00  0.10566000000E+00 0.  1.
     999900   -1    0    0    0    0 -0.00000000000E+00 -0.00000000000E+00 -0.74505805969E-08  0.93827000000E+00  0.93827000000E+00 0. -1.
     999902    2    1    2    0    0  0.26678170090E-01  0.63299291881E-02 -0.20876371711E-01  0.10094682000E+01  0.10088797902E+01 0.  0.
     999903    2    3    3    0    0  0.58168230855E-01 -0.10332454534E+00  0.16718549329E-01  0.12130768197E+00  0.19404614490E-01 0.  0.
         14    1    1    2    0    0 -0.26678170090E-01 -0.63299291881E-02  0.20876371711E-01  0.34461799992E-01  0.00000000000E+00 0.  1.
     999901    1    3    3    0    0 -0.31490060764E-01  0.10965447453E+00 -0.37594921040E-01  0.88816051804E+00  0.88000000000E+00 0. -1.
        -11    1    4    4    0    0  0.17872343663E-01 -0.45778242023E-01  0.13562422109E-01  0.50983021931E-01  0.51100000000E-03 0. -1.
         11    1    4    4    0    0  0.40295887191E-01 -0.57546303315E-01  0.31561272200E-02  0.70324660040E-01  0.51100000000E-03 0.  1.
</event>
<event>
 8    1  0.1030163E+005  0.1043930E+01  0.7957747E-01            NaN
         13   -1    0    0    0    0  0.00000000000E+00  0.00000000000E+00  0.74505805969E-08  0.10566000000E+00  0.10566000000E+00 0. -1.
     999900   -1    0    0    0    0 -0.00000000000E+00 -0.00000000000E+00 -0.74505805969E-08  0.93827000000E+00  0.93827000000E+00 0. -1.
     999902    2    1    2    0    0 -0.22001413803E-01 -0.14295647637E-02 -0.88232402276E-02  0.10201822542E+01  0.10199058173E+01 0.  0.
     999903    2    3    3    0    0 -0.41805639668E-01 -0.10172471859E+00 -0.70345264185E-01  0.13213029358E+00  0.20355058528E-01 0.  0.
         14    1    1    2    0    0  0.22001413803E-01  0.14295647637E-02  0.88232402276E-02  0.23747745848E-01  0.00000000000E+00 0. -1.
     999901    1    3    3    0    0  0.19804225865E-01  0.10029515383E+00  0.61522023958E-01  0.88805196057E+00  0.88000000000E+00 0. -1.
        -11    1    4    4    0    0 -0.23674575411E-01 -0.36227093261E-01 -0.20758084669E-01  0.48000489656E-01  0.51100000000E-03 0.  1.
         11    1    4    4    0    0 -0.18131064257E-01 -0.65497625331E-01 -0.49587179516E-01  0.84129803925E-01  0.51100000000E-03 0. -1.
</event>
<event>
 8    1  0.1030163E+005  0.1043930E+01  0.7957747E-01            NaN
         13   -1    0    0    0    0  0.00000000000E+00  0.00000000000E+00  0.74505805969E-08  0.10566000000E+00  0.10566000000E+00 0.  1.
     999900   -1    0    0    0    0 -0.00000000000E+00 -0.00000000000E+00 -0.74505805969E-08  0.93827000000E+00  0.93827000000E+00 0. -1.
     999902    2    1    2    0    0  0.17413579270E-02 -0.11906646624E-01  0.19987963659E-01  0.10205993495E+01  0.10203326482E+01 0.  0.
     999903    2    3    3    0    0 -0.12694422789E+00  0.39044763112E-02  0.25472024053E-01  0.13108260063E+00  0.20093338420E-01 0.  0.
         14    1    1    2    0    0 -0.17413579270E-02  0.11906646624E-01 -0.19987963659E-01  0.23330650495E-01  0.00000000000E+00 0. -1.
     999901    1    3    3    0    0  0.12868558582E+00 -0.15811122935E-01 -0.54840603937E-02  0.88951674887E+00  0.88000000000E+00 0. -1.
        -11    1    4    4    0    0 -0.97946689517E-01  0.44180065293E-03  0.11240401940E-01  0.98591870516E-01  0.51100000000E-03 0.  1.
         11    1    4    4    0    0 -0.28997538375E-01  0.34626756582E-02  0.14231622113E-01  0.32490730116E-01  0.51100000000E-03 0. -1.
</event>
<event>
 8    1  0.1030163E+005  0.1043930E+01  0.7957747E-01            NaN
         13   -1    0    0    0    0  0.00000000000E+00  0.00000000000E+00  0.74505805969E-08  0.10566000000E+00  0.10566000000E+00 0. -1.
     999900   -1    0    0    0    0 -0.00000000000E+00 -0.00000000000E+00 -0.74505805969E-08  0.93827000000E+00  0.93827000000E+00 0. -1.
     999902    2    1    2    0    0  0.13048262998E-01 -0.18338802523E-01  0.89245301412E-02  0.10197181004E+01  0.10194306196E+01 0.  0.
     999903    2    3    3    0    0  0.54115447862E-01  0.61482815493E-01  0.99642799121E-01  0.13051182020E+00  0.19900489861E-01 0.  0.
         14    1    1    2    0    0 -0.13048262998E-01  0.18338802523E-01 -0.89245301412E-02  0.24211899626E-01  0.00000000000E+00 0. -1.
     999901    1    3    3    0    0 -0.41067184864E-01 -0.79821618016E-01 -0.90718268980E-01  0.88920628017E+00  0.88000000000E+00 0.  1.
        -11    1    4    4    0    0  0.65819360703E-02  0.19480573928E-01  0.19944604969E-01  0.28650707345E-01  0.51100000000E-03 0. -1.
         11    1    4    4    0    0  0.47533511792E-01  0.42002241565E-01  0.79698194152E-01  0.10186111285E+00  0.51100000000E-03 0.  1.
</event>
<event>
 8    1  0.1030163E+005  0.1043930E+01  0.7957747E-01            NaN
         13   -1    0    0    0    0  0.00000000000E+00  0.00000000000E+00  0.74505805969E-08  0.10566000000E+00  0.10566000000E+00 0. -1.
     999900   -1    0    0    0    0 -0.00000000000E+00 -0.00000000000E+00 -0.74505805969E-08  0.93827000000E+00  0.93827000000E+00 0.  1.
     999902    2    1    2    0    0  0.41881109368E-02 -0.51599759977E-02 -0.13429233464E-01  0.10289463443E+01  0.10288372415E+01 0.  0.
     999903    2    3    3    0    0  0.31537955588E-01 -0.24004097031E-01  0.12931997731E+00  0.13682502295E+00  0.20654080862E-01 0.  0.
         14    1    1    2    0    0 -0.41881109368E-02  0.51599759977E-02  0.13429233464E-01  0.14983655660E-01  0.00000000000E+00 0. -1.
     999901    1    3    3    0    0 -0.27349844651E-01  0.18844121033E-01 -0.14274921078E+00  0.89212132139E+00  0.88000000000E+00 0.  1.
        -11    1    4    4    0    0  0.76615089114E-02 -0.15418197242E-01  0.33086581696E-01  0.37301508472E-01  0.51100000000E-03 0. -1.
         11    1    4    4    0    0  0.23876446677E-01 -0.85858997884E-02  0.96233395617E-01  0.99523514478E-01  0.51100000000E-03 0.  1.
</event>
<event>
 8    1  0.1030163E+005  0.1043930E+01  0.7957747E-01            NaN
         13   -1    0    0    0    0  0.00000000000E+00  0.00000000000E+00  0.74505805969E-08  0.10566000000E+00  0.10566000000E+00 0. -1.
     999900   -1    0    0    0    0 -0.00000000000E+00 -0.00000000000E+00 -0.74505805969E-08  0.93827000000E+00  0.93827000000E+00 0. -1.
     999902    2    1    2    0    0 -0.72097171696E-02 -0.12416471513E-01  0.19335180613E-01  0.10198468525E+01  0.10195624574E+01 0.  0.
     999903    2    3    3    0    0 -0.79424063467E-01 -0.88491459939E-01  0.55402996796E-01  0.13288394283E+00  0.21206835435E-01 0.  0.
         14    1    1    2    0    0  0.72097171696E-02  0.12416471513E-01 -0.19335180613E-01  0.24083147548E-01  0.00000000000E+00 0.  1.
     999901    1    3    3    0    0  0.72214346297E-01  0.76074988426E-01 -0.36067816183E-01  0.88696290962E+00  0.88000000000E+00 0. -1.
        -11    1    4    4    0    0 -0.52975359073E-01 -0.71638268068E-01  0.45140862544E-01  0.99881873795E-01  0.51100000000E-03 0. -1.
         11    1    4    4    0    0 -0.26448704394E-01 -0.16853191871E-01  0.10262134252E-01  0.33002069038E-01  0.51100000000E-03 0.  1.
</event>
<event>
 8    1  0.1030163E+005  0.1043930E+01  0.7957747E-01            NaN
         13   -1    0    0    0    0  0.00000000000E+00  0.00000000000E+00  0.74505805969E-08  0.10566000000E+00  0.10566000000E+00 0.  1.
     999900   -1    0    0    0    0 -0.00000000000E+00 -0.00000000000E+00 -0.74505805969E-08  0.93827000000E+00  0.93827000000E+00 0.  1.
     999902    2    1    2    0    0 -0.21909178384E-01 -0.29776462472E-03 -0.28920542598E-02  0.10218287616E+01  0.10215897187E+01 0.  0.
     999903    2    3    3    0    0 -0.99380085319E-01 -0.43246130697E-01 -0.76786020498E-01  0.13430038356E+00  0.19846181047E-01 0.  0.
         14    1    1    2    0    0  0.21909178384E-01  0.29776462472E-03  0.28920542598E-02  0.22101238406E-01  0.00000000000E+00 0. -1.
     999901    1    3    3    0    0  0.77470906935E-01  0.42948366073E-01  0.73893966238E-01  0.88752837803E+00  0.88000000000E+00 0. -1.
        -11    1    4    4    0    0 -0.53707585027E-01 -0.13408369985E-01 -0.33991095705E-01  0.64961102079E-01  0.51100000000E-03 0.  1.
         11    1    4    4    0    0 -0.45672500292E-01 -0.29837760713E-01 -0.42794924793E-01  0.69339281481E-01  0.51100000000E-03 0. -1.
</event>
<event>
 8    1  0.1030163E+005  0.1043930E+01  0.7957747E-01            NaN
         13   -1    0    0    0    0  0.00000000000E+00  0.00000000000E+00  0.74505805969E-08  0.10566000000E+00  0.10566000000E+00 0. -1.
     999900   -1    0    0    0    0 -0.00000000000E+00 -0.00000000000E+00 -0.74505805969E-08  0.93827000000E+00  0.93827000000E+00 0. -1.
     999902    2    1    2    0    0 -0.66268171428E-02  0.71942848022E-02  0.18823859216E-01  0.10227165582E+01  0.10224965272E+01 0.  0.
     999903    2    3    3    0    0 -0.11391719111E+00 -0.15748375747E-01  0.66677810373E-01  0.13461319105E+00  0.21204788105E-01 0.  0.
         14    1    1    2    0    0  0.66268171428E-02 -0.71942848022E-02 -0.18823859216E-01  0.21213441848E-01  0.00000000000E+00 0.  1.
     999901    1    3    3    0    0  0.10729037397E+00  0.22942660550E-01 -0.47853951156E-01  0.88810336710E+00  0.88000000000E+00 0. -1.
        -11    1    4    4    0    0 -0.10294883755E+00 -0.83276513525E-02  0.62469651065E-01  0.12070845602E+00  0.51100000000E-03 0.  1.
         11    1    4    4    0    0 -0.10968353565E-01 -0.74207243948E-02  0.42081593074E-02  0.13904735029E-01  0.51100000000E-03 0. -1.
</event>
<event>
 8    1  0.1030163E+005  0.1043930E+01  0.7957747E-01            NaN
         13   -1    0    0    0    0  0.00000000000E+00  0.00000000000E+00  0.74505805969E-08  0.10566000000E+00  0.10566000000E+00 0.  1.
     999900   -1    0    0    0    0 -0.00000000000E+00 -0.00000000000E+00 -0.74505805969E-08  0.93827000000E+00  0.93827000000E+00 0. -1.
     999902    2    1    2    0    0 -0.22166730848E-01  0.58282562373E-02  0.57296136320E-02  0.10203045688E+01  0.10200310055E+01 0.  0.
     999903    2    3    3    0    0 -0.12911080514E+00  0.74309850203E-02  0.29555703347E-01  0.13350848946E+00  0.15038537668E-01 0.  0.
         14    1    1    2    0    0  0.22166730848E-01 -0.58282562373E-02 -0.57296136320E-02  0.23625431205E-01  0.00000000000E+00 0. -1.
     999901    1    3    3    0    0  0.10694407430E+00 -0.16027287829E-02 -0.23826089715E-01  0.88679607933E+00  0.88000000000E+00 0.  1.
        -11    1    4    4    0    0 -0.28952147498E-01  0.72957718290E-02  0.39033560773E-02  0.30115651097E-01  0.51100000000E-03 0.  1.
         11    1    4    4    0    0 -0.10015865765E+00  0.13521319125E-03  0.25652347269E-01  0.10339283837E+00  0.51100000000E-03 0. -1.
</event>
<event>
 8    1  0.1030163E+005  0.1043930E+01  0.7957747E-01            NaN
         13   -1    0    0    0    0  0.00000000000E+00  0.00000000000E+00  0.74505805969E-08  0.10566000000E+00  0.10566000000E+00 0.  1.
     999900   -1    0    0    0    0 -0.00000000000E+00 -0.00000000000E+00 -0.74505805969E-08  0.93827000000E+00  0.93827000000E+00 0. -1.
     999902    2    1    2    0    0  0.14101935602E-01  0.98567760597E-02 -0.16743700356E-01  0.10199222487E+01  0.10196396526E+01 0.  0.
     999903    2    3    3    0    0 -0.78732715088E-01  0.65364605841E-01  0.75240500844E-01  0.12854102563E+00  0.19755763207E-01 0.  0.
         14    1    1    2    0    0 -0.14101935602E-01 -0.98567760597E-02  0.16743700356E-01  0.24007751324E-01  0.00000000000E+00 0.  1.
     999901    1    3    3    0    0  0.92834650690E-01 -0.55507829781E-01 -0.91984201200E-01  0.89138122305E+00  0.88000000000E+00 0. -1.
        -11    1    4    4    0    0 -0.28543059446E-01  0.27106741028E-01  0.40587134055E-01  0.56542534640E-01  0.51100000000E-03 0.  1.
         11    1    4    4    0    0 -0.50189655641E-01  0.38257864814E-01  0.34653366789E-01  0.71998490986E-01  0.51100000000E-03 0. -1.
</event>
<event>
 8    1  0.1030163E+005  0.1043930E+01  0.7957747E-01            NaN
         13   -1    0    0    0    0  0.00000000000E+00  0.00000000000E+00  0.74505805969E-08  0.10566000000E+00  0.10566000000E+00 0. -1.
     999900   -1    0    0    0    0 -0.00000000000E+00 -0.00000000000E+00 -0.74505805969E-08  0.93827000000E+00  0.93827000000E+00 0.  1.
     999902    2    1    2    0    0 -0.20360585570E-01  0.57328889800E-02 -0.10992861845E-01  0.10200917435E+01  0.10198131705E+01 0.  0.
     999903    2    3    3    0    0  0.37484284628E-01  0.11987265102E+00  0.29545784376E-01  0.12991350511E+00  0.15167115092E-01 0.  0.
         14    1    1    2    0    0  0.20360585570E-01 -0.57328889800E-02  0.10992861845E-01  0.23838256487E-01  0.00000000000E+00 0. -1.
     999901    1    3    3    0    0 -0.57844870198E-01 -0.11413976204E+00 -0.40538646221E-01  0.89017823840E+00  0.88000000000E+00 0. -1.
        -11    1    4    4    0    0  0.54871134958E-03  0.12810684012E-01 -0.13594999090E-03  0.12833328189E-01  0.51100000000E-03 0. -1.
         11    1    4    4    0    0  0.36935573278E-01  0.10706196700E+00  0.29681734367E-01  0.11708017692E+00  0.51100000000E-03 0.  1.
</event>
<event>
 8    1  0.1030163E+005  0.1043930E+01  0.7957747E-01            NaN
         13   -1    0    0    0    0  0.00000000000E+00  0.00000000000E+00  0.74505805969E-08  0.10566000000E+00  0.10566000000E+00 0.  1.
     999900   -1    0    0    0    0 -0.00000000000E+00 -0.00000000000E+00 -0.74505805969E-08  0.93827000000E+00  0.93827000000E+00 0. -1.
     999902    2    1    2    0    0 -0.20771453426E-01 -0.79080144682E-02  0.16552217984E-02  0.10216425657E+01  0.10213994332E+01 0.  0.
     999903    2    3    3    0    0 -0.73967897545E-01 -0.85022455217E-01 -0.69705053593E-01  0.13379754115E+00  0.18518092871E-01 0.  0.
         14    1    1    2    0    0  0.20771453426E-01  0.79080144682E-02 -0.16552217984E-02  0.22287434340E-01  0.00000000000E+00 0.  1.
     999901    1    3    3    0    0  0.53196444119E-01  0.77114440749E-01  0.71360275391E-01  0.88784502451E+00  0.88000000000E+00 0.  1.
        -11    1    4    4    0    0 -0.14108123372E-01 -0.26406239843E-01 -0.23903454696E-01  0.38314030265E-01  0.51100000000E-03 0. -1.
         11    1    4    4    0    0 -0.59859774174E-01 -0.58616215374E-01 -0.45801598897E-01  0.95483510888E-01  0.51100000000E-03 0.  1.
</event>
<event>
 8    1  0.1030163E+005  0.1043930E+01  0.7957747E-01            NaN
         13   -1    0    0    0    0  0.00000000000E+00  0.00000000000E+00  0.74505805969E-08  0.10566000000E+00  0.10566000000E+00 0. -1.
     999900   -1    0    0    0    0 -0.00000000000E+00 -0.00000000000E+00 -0.74505805969E-08  0.93827000000E+00  0.93827000000E+00 0.  1.
     999902    2    1    2    0    0 -0.10984830714E-01 -0.15010867439E-01  0.75224628904E-02  0.10238656013E+01  0.10236689843E+01 0.  0.
     999903    2    3    3    0    0  0.11199851880E+00  0.58442152505E-02  0.68621432105E-01  0.13297115033E+00  0.19864612010E-01 0.  0.
         14    1    1    2    0    0  0.10984830714E-01  0.15010867439E-01 -0.75224628904E-02  0.20064398696E-01  0.00000000000E+00 0.  1.
     999901    1    3    3    0    0 -0.12298334952E+00 -0.20855082689E-01 -0.61098969215E-01  0.89089445097E+00  0.88000000000E+00 0.  1.
        -11    1    4    4    0    0  0.49730537927E-01 -0.57098583616E-02  0.36533702104E-01  0.61973392641E-01  0.51100000000E-03 0. -1.
         11    1    4    4    0    0  0.62267980877E-01  0.11554073612E-01  0.32087730001E-01  0.70997757691E-01  0.51100000000E-03 0.  1.
</event>
<event>
 8    1  0.1030163E+005  0.1043930E+01  0.7957747E-01            NaN
         13   -1    0    0    0    0  0.00000000000E+00  0.00000000000E+00  0.74505805969E-08  0.10566000000E+00  0.10566000000E+00 0.  1.
     999900   -1    0    0    0    0 -0.00000000000E+00 -0.00000000000E+00 -0.74505805969E-08  0.93827000000E+00  0.93827000000E+00 0. -1.
     999902    2    1    2    0    0 -0.22941442590E-01 -0.63724821005E-02  0.84541481730E-03  0.10201049493E+01  0.10198266885E+01 0.  0.
     999903    2    3    3    0    0 -0.61737960902E-01 -0.62486272379E-01 -0.97074132755E-01  0.13204967785E+00  0.17251670008E-01 0.  0.
         14    1    1    2    0    0  0.22941442590E-01  0.63724821005E-02 -0.84541481730E-03  0.23825050734E-01  0.00000000000E+00 0. -1.
     999901    1    3    3    0    0  0.38796518312E-01  0.56113790279E-01  0.97919547572E-01  0.88805527142E+00  0.88000000000E+00 0.  1.
        -11    1    4    4    0    0 -0.43396139223E-01 -0.47084056055E-01 -0.59032187937E-01  0.87093016757E-01  0.51100000000E-03 0. -1.
         11    1    4    4    0    0 -0.18341821679E-01 -0.15402216324E-01 -0.38041944818E-01  0.44956661094E-01  0.51100000000E-03 0.  1.
</event>
<event>
 8    1  0.1030163E+005  0.1043930E+01  0.7957747E-01            NaN
         13   -1    0    0    0    0  0.00000000000E+00  0.00000000000E+00  0.74505805969E-08  0.10566000000E+00  0.10566000000E+00 0.  1.
     999900   -1    0    0    0    0 -0.00000000000E+00 -0.00000000000E+00 -0.74505805969E-08  0.93827000000E+00  0.93827000000E+00 0.  1.
     999902    2    1    2    0    0 -0.17062486728E-01  0.10370791551E-01 -0.13491056229E-01  0.10198324821E+01  0.10195477435E+01 0.  0.
     999903    2    3    3    0    0  0.97587441068E-01 -0.12621062178E-01 -0.81546809505E-01  0.12949276220E+00  0.20878061610E-01 0.  0.
         14    1    1    2    0    0  0.17062486728E-01 -0.10370791551E-01  0.13491056229E-01  0.24097517900E-01  0.00000000000E+00 0.  1.
     999901    1    3    3    0    0 -0.11464992780E+00  0.22991853729E-01  0.68055753276E-01  0.89033971990E+00  0.88000000000E+00 0. -1.
        -11    1    4    4    0    0  0.27152663813E-01 -0.80321831520E-03 -0.34730676998E-01  0.44095275910E-01  0.51100000000E-03 0.  1.
         11    1    4    4    0    0  0.70434777254E-01 -0.11817843863E-01 -0.46816132507E-01  0.85397486288E-01  0.51100000000E-03 0. -1.
</event>
<event>
 8    1  0.1030163E+005  0.1043930E+01  0.7957747E-01            NaN
         13   -1    0    0    0    0  0.00000000000E+00  0.00000000000E+00  0.74505805969E-08  0.10566000000E+00  0.10566000000E+00 0.  1.
     999900   -1    0    0    0    0 -0.00000000000E+00 -0.00000000000E+00 -0.74505805969E-08  0.93827000000E+00  0.93827000000E+00 0. -1.
     999902    2    1    2    0    0 -0.15083138716E-01  0.80491678162E-02  0.16718416622E-01  0.10200177515E+01  0.10197374258E+01 0.  0.
     999903    2    3    3    0    0 -0.46809064283E-01  0.72949228035E-01 -0.94874884463E-01  0.13003369710E+00  0.19870589030E-01 0.  0.
         14    1    1    2    0    0  0.15083138716E-01 -0.80491678162E-02 -0.16718416622E-01  0.23912248543E-01  0.00000000000E+00 0. -1.
     999901    1    3    3    0    0  0.31725925568E-01 -0.64900060219E-01  0.11159330109E+00  0.88998405436E+00  0.88000000000E+00 0.  1.
        -11    1    4    4    0    0 -0.22524781602E-01  0.48139417617E-01 -0.66910940838E-01  0.85452351867E-01  0.51100000000E-03 0.  1.
         11    1    4    4    0    0 -0.24284282682E-01  0.24809810418E-01 -0.27963943626E-01  0.44581345229E-01  0.51100000000E-03 0. -1.
</event>
<event>
 8    1  0.1030163E+005  0.1043930E+01  0.7957747E-01            NaN
         13   -1    0    0    0    0  0.00000000000E+00  0.00000000000E+00  0.74505805969E-08  0.10566000000E+00  0.10566000000E+00 0.  1.
     999900   -1    0    0    0    0 -0.00000000000E+00 -0.00000000000E+00 -0.74505805969E-08  0.93827000000E+00  0.93827000000E+00 0. -1.
     999902    2    1    2    0    0  0.14574161148E-01 -0.13379785664E-01 -0.13139475320E-01  0.10201798284E+01  0.10199033345E+01 0.  0.
     999903    2    3    3    0    0  0.99950688970E-01 -0.48421150340E-01 -0.71203076943E-01  0.13345076577E+00  0.20111705375E-01 0.  0.
         14    1    1    2    0    0 -0.14574161148E-01  0.13379785664E-01  0.13139475320E-01  0.23750171563E-01  0.00000000000E+00 0.  1.
     999901    1    3    3    0    0 -0.85376527822E-01  0.35041364676E-01  0.58063601624E-01  0.88672906267E+00  0.88000000000E+00 0.  1.
        -11    1    4    4    0    0  0.75837617187E-01 -0.31544768010E-01 -0.60941647861E-01  0.10227688954E+00  0.51100000000E-03 0.  1.
         11    1    4    4    0    0  0.24113071783E-01 -0.16876382331E-01 -0.10261429082E-01  0.31173876230E-01  0.51100000000E-03 0. -1.
</event>
<event>
 8    1  0.1030163E+005  0.1043930E+01  0.7957747E-01            NaN
         13   -1    0    0    0    0  0.00000000000E+00  0.00000000000E+00  0.74505805969E-08  0.10566000000E+00  0.10566000000E+00 0. -1.
     999900   -1    0    0    0    0 -0.00000000000E+00 -0.00000000000E+00 -0.74505805969E-08  0.93827000000E+00  0.93827000000E+00 0.  1.
     999902    2    1    2    0    0 -0.68769588001E-02  0.13806099448E-01 -0.18139684399E-01  0.10201193071E+01  0.10198413856E+01 0.  0.
     999903    2    3    3    0    0 -0.22677478948E-01  0.30081157088E-01 -0.12617699386E+00  0.13322213488E+00  0.20207903831E-01 0.  0.
         14    1    1    2    0    0  0.68769588001E-02 -0.13806099448E-01  0.18139684399E-01  0.23810692859E-01  0.00000000000E+00 0. -1.
     999901    1    3    3    0    0  0.15800520148E-01 -0.16275057640E-01  0.10803730946E+00  0.88689717227E+00  0.88000000000E+00 0. -1.
        -11    1    4    4    0    0 -0.88131291784E-02  0.16694226426E-02 -0.13681282989E-01  0.16367554585E-01  0.51100000000E-03 0.  1.
         11    1    4    4    0    0 -0.13864349770E-01  0.28411734446E-01 -0.11249571087E+00  0.11685458029E+00  0.51100000000E-03 0. -1.
</event>
<event>
 8    1  0.1030163E+005  0.1043930E+01  0.7957747E-01            NaN
         13   -1    0    0    0    0  0.00000000000E+00  0.00000000000E+00  0.74505805969E-08  0.10566000000E+00  0.10566000000E+00 0. -1.
     999900   -1    0    0    0    0 -0.00000000000E+00 -0.00000000000E+00 -0.74505805969E-08  0.93827000000E+00  0.93827000000E+00 0. -1.
     999902    2    1    2    0    0 -0.87666606295E-02 -0.20637366320E-01  0.15547989946E-01  0.10166445603E+01  0.10162783412E+01 0.  0.
     999903    2    3    3    0    0 -0.90666713954E-01 -0.90878994077E-01  0.49133085215E-04  0.12991928180E+00  0.19989316775E-01 0.  0.
         14    1    1    2    0    0  0.87666606295E-02  0.20637366320E-01 -0.15547989946E-01  0.27285439681E-01  0.00000000000E+00 0. -1.
     999901    1    3    3    0    0  0.81900053325E-01  0.70241627757E-01  0.15498856861E-01  0.88672527852E+00  0.88000000000E+00 0. -1.
        -11    1    4    4    0    0 -0.50865392340E-01 -0.42983536410E-01 -0.81958171684E-02  0.67099218179E-01  0.51100000000E-03 0.  1.
         11    1    4    4    0    0 -0.39801321614E-01 -0.47895457667E-01  0.82449502536E-02  0.62820063619E-01  0.51100000000E-03 0. -1.
</event>
<event>
 8    1  0.1033213E+005  0.1043930E+01  0.7957747E-01            NaN
         13   -1    0    0    0    0  0.00000000000E+00  0.00000000000E+00  0.74505805969E-08  0.10566000000E+00  0.10566000000E+00 0. -1.
     999900   -1    0    0    0    0 -0.00000000000E+00 -0.00000000000E+00 -0.74505805969E-08  0.93827000000E+00  0.93827000000E+00 0. -1.
     999902    2    1    2    0    0 -0.54169246368E-02 -0.23864888665E-01 -0.52293000632E-02  0.10189055807E+01  0.10185982332E+01 0.  0.
     999903    2    3    3    0    0 -0.11695172594E+00 -0.56149690836E-01  0.35615162380E-03  0.13126065300E+00  0.19968430092E-01 0.  0.
         14    1    1    2    0    0  0.54169246368E-02  0.23864888665E-01  0.52293000632E-02  0.25024419327E-01  0.00000000000E+00 0. -1.
     999901    1    3    3    0    0  0.11153480130E+00  0.32284802171E-01 -0.55854516870E-02  0.88764492767E+00  0.88000000000E+00 0.  1.
        -11    1    4    4    0    0 -0.34671075020E-01 -0.26445707679E-01  0.32822007337E-02  0.43732057582E-01  0.51100000000E-03 0.  1.
         11    1    4    4    0    0 -0.82280650921E-01 -0.29703983157E-01 -0.29260491099E-02  0.87528595418E-01  0.51100000000E-03 0. -1.
</event>
<event>
 8    1  0.1030163E+005  0.1043930E+01  0.7957747E-01            NaN
         13   -1    0    0    0    0  0.00000000000E+00  0.00000000000E+00  0.74505805969E-08  0.10566000000E+00  0.10566000000E+00 0.  1.
     999900   -1    0    0    0    0 -0.00000000000E+00 -0.00000000000E+00 -0.74505805969E-08  0.93827000000E+00  0.93827000000E+00 0. -1.
     999902    2    1    2    0    0  0.34717491308E-02 -0.16008495124E-01 -0.21648478234E-01  0.10167825956E+01  0.10164201223E+01 0.  0.
     999903    2    3    3    0    0  0.92218751439E-01  0.29548239319E-01  0.77579489561E-01  0.12560492749E+00  0.19509588541E-01 0.  0.
         14    1    1    2    0    0 -0.34717491308E-02  0.16008495124E-01  0.21648478234E-01  0.27147404443E-01  0.00000000000E+00 0.  1.
     999901    1    3    3    0    0 -0.88747002308E-01 -0.45556734442E-01 -0.99227967795E-01  0.89117766807E+00  0.88000000000E+00 0. -1.
        -11    1    4    4    0    0  0.22534706818E-01  0.13493907442E-01  0.13279070274E-01  0.29436259575E-01  0.51100000000E-03 0.  1.
         11    1    4    4    0    0  0.69684044620E-01  0.16054331877E-01  0.64300419288E-01  0.96168667913E-01  0.51100000000E-03 0. -1.
</event>
<event>
 8    1  0.1030163E+005  0.1043930E+01  0.7957747E-01            NaN
         13   -1    0    0    0    0  0.00000000000E+00  0.00000000000E+00  0.74505805969E-08  0.10566000000E+00  0.10566000000E+00 0.  1.
     999900   -1    0    0    0    0 -0.00000000000E+00 -0.00000000000E+00 -0.74505805969E-08  0.93827000000E+00  0.93827000000E+00 0.  1.
     999902    2    1    2    0    0 -0.13101826773E-01  0.33036494525E-02  0.21132329523E-01  0.10188471908E+01  0.10185383895E+01 0.  0.
     999903    2    3    3    0    0  0.88210982190E-01  0.91081464549E-01 -0.57205192002E-03  0.12843138333E+00  0.20427491699E-01 0.  0.
         14    1    1    2    0    0  0.13101826773E-01 -0.33036494525E-02 -0.21132329523E-01  0.25082809165E-01  0.00000000000E+00 0. -1.
     999901    1    3    3    0    0 -0.10131280896E+00 -0.87777815097E-01  0.21704381443E-01  0.89041580751E+00  0.88000000000E+00 0. -1.
        -11    1    4    4    0    0  0.53625010153E-01  0.68830230506E-01 -0.19933172883E-02  0.87278157520E-01  0.51100000000E-03 0.  1.
         11    1    4    4    0    0  0.34585972037E-01  0.22251234044E-01  0.14212653683E-02  0.41153225809E-01  0.51100000000E-03 0. -1.
</event>
<event>
 8    1  0.1030163E+005  0.1043930E+01  0.7957747E-01            NaN
         13   -1    0    0    0    0  0.00000000000E+00  0.00000000000E+00  0.74505805969E-08  0.10566000000E+00  0.10566000000E+00 0. -1.
     999900   -1    0    0    0    0 -0.00000000000E+00 -0.00000000000E+00 -0.74505805969E-08  0.93827000000E+00  0.93827000000E+00 0. -1.
     999902    2    1    2    0    0  0.71742540642E-02  0.16513387894E-01 -0.14562975331E-01  0.10207730971E+01  0.10205103986E+01 0.  0.
     999903    2    3    3    0    0  0.69806584932E-01 -0.40870404774E-01 -0.10251627483E+00  0.13231854485E+00  0.21336855901E-01 0.  0.
         14    1    1    2    0    0 -0.71742540642E-02 -0.16513387894E-01  0.14562975331E-01  0.23156902893E-01  0.00000000000E+00 0. -1.
     999901    1    3    3    0    0 -0.62632330868E-01  0.57383792669E-01  0.87953299501E-01  0.88845455226E+00  0.88000000000E+00 0.  1.
        -11    1    4    4    0    0  0.95634913625E-02 -0.15033909140E-01 -0.26562073493E-01  0.31988805234E-01  0.51100000000E-03 0.  1.
         11    1    4    4    0    0  0.60243093570E-01 -0.25836495634E-01 -0.75954201339E-01  0.10032973962E+00  0.51100000000E-03 0. -1.
</event>
<event>
 8    1  0.1030163E+005  0.1043930E+01  0.7957747E-01            NaN
         13   -1    0    0    0    0  0.00000000000E+00  0.00000000000E+00  0.74505805969E-08  0.10566000000E+00  0.10566000000E+00 0. -1.
     999900   -1    0    0    0    0 -0.00000000000E+00 -0.00000000000E+00 -0.74505805969E-08  0.93827000000E+00  0.93827000000E+00 0.  1.
     999902    2    1    2    0    0 -0.23208378602E-01 -0.46345071081E-02  0.12268410977E-02  0.10202316323E+01  0.10199563573E+01 0.  0.
     999903    2    3    3    0    0 -0.49660990023E-01 -0.83511672694E-01  0.87166190138E-01  0.13213990300E+00  0.20557136368E-01 0.  0.
         14    1    1    2    0    0  0.23208378602E-01  0.46345071081E-02 -0.12268410977E-02  0.23698367719E-01  0.00000000000E+00 0. -1.
     999901    1    3    3    0    0  0.26452611421E-01  0.78877165586E-01 -0.85939349040E-01  0.88809172928E+00  0.88000000000E+00 0.  1.
        -11    1    4    4    0    0 -0.47059830724E-01 -0.63680885457E-01  0.66899818403E-01  0.10366161133E+00  0.51100000000E-03 0. -1.
         11    1    4    4    0    0 -0.26011592995E-02 -0.19830787237E-01  0.20266371735E-01  0.28478291670E-01  0.51100000000E-03 0.  1.
</event>
<event>
 8    1  0.1030163E+005  0.1043930E+01  0.7957747E-01            NaN
         13   -1    0    0    0    0  0.00000000000E+00  0.00000000000E+00  0.74505805969E-08  0.10566000000E+00  0.10566000000E+00 0.  1.
     999900   -1    0    0    0    0 -0.00000000000E+00 -0.00000000000E+00 -0.74505805969E-08  0.93827000000E+00  0.93827000000E+00 0. -1.
     999902    2    1    2    0    0  0.31520491019E-02 -0.18323310921E-01  0.13723764584E-01  0.10208211088E+01  0.10205595109E+01 0.  0.
     999903    2    3    3    0    0 -0.66863781933E-01 -0.11257555700E+00 -0.95586721908E-02  0.13271763831E+00  0.19457182117E-01 0.  0.
         14    1    1    2    0    0 -0.31520491019E-02  0.18323310921E-01 -0.13723764584E-01  0.23108891168E-01  0.00000000000E+00 0.  1.
     999901    1    3    3    0    0  0.70015831035E-01  0.94252246082E-01  0.23282436775E-01  0.88810347052E+00  0.88000000000E+00 0.  1.
        -11    1    4    4    0    0 -0.52113990372E-02 -0.14742109094E-01 -0.67628025358E-02  0.17043622843E-01  0.51100000000E-03 0. -1.
         11    1    4    4    0    0 -0.61652382896E-01 -0.97833447910E-01 -0.27958696550E-02  0.11567401547E+00  0.51100000000E-03 0.  1.
</event>
<event>
 8    1  0.1030163E+005  0.1043930E+01  0.7957747E-01            NaN
         13   -1    0    0    0    0  0.00000000000E+00  0.00000000000E+00  0.74505805969E-08  0.10566000000E+00  0.10566000000E+00 0. -1.
     999900   -1    0    0    0    0 -0.00000000000E+00 -0.00000000000E+00 -0.74505805969E-08  0.93827000000E+00  0.93827000000E+00 0. -1.
     999902    2    1    2    0    0 -0.58035524167E-02  0.14451446860E-01  0.17861569582E-01  0.10202327174E+01  0.10199574679E+01 0.  0.
     999903    2    3    3    0    0 -0.45256613410E-01 -0.10658527399E+00 -0.51720286519E-01  0.12835376451E+00  0.19776732225E-01 0.  0.
         14    1    1    2    0    0  0.58035524167E-02 -0.14451446860E-01 -0.17861569582E-01  0.23697282649E-01  0.00000000000E+00 0. -1.
     999901    1    3    3    0    0  0.39453060993E-01  0.12103672085E+00  0.69581856102E-01  0.89187895284E+00  0.88000000000E+00 0.  1.
        -11    1    4    4    0    0 -0.24959419791E-01 -0.41486783697E-01 -0.29188955900E-01  0.56536555655E-01  0.51100000000E-03 0. -1.
         11    1    4    4    0    0 -0.20297193619E-01 -0.65098490297E-01 -0.22531330620E-01  0.71817208859E-01  0.51100000000E-03 0.  1.
</event>
<event>
 8    1  0.1030163E+005  0.1043930E+01  0.7957747E-01            NaN
         13   -1    0    0    0    0  0.00000000000E+00  0.00000000000E+00  0.74505805969E-08  0.10566000000E+00  0.10566000000E+00 0.  1.
     999900   -1    0    0    0    0 -0.00000000000E+00 -0.00000000000E+00 -0.74505805969E-08  0.93827000000E+00  0.93827000000E+00 0.  1.
     999902    2    1    2    0    0  0.12237476378E-01  0.17117342297E-01  0.10073037803E-01  0.10206013625E+01  0.10203347078E+01 0.  0.
     999903    2    3    3    0    0  0.43702371748E-01  0.39076633364E-01  0.11795488981E+00  0.13318334148E+00  0.19686692102E-01 0.  0.
         14    1    1    2    0    0 -0.12237476378E-01 -0.17117342297E-01 -0.10073037803E-01  0.23328637465E-01  0.00000000000E+00 0. -1.
     999901    1    3    3    0    0 -0.31464895371E-01 -0.21959291067E-01 -0.10788185201E+00  0.88741802106E+00  0.88000000000E+00 0.  1.
        -11    1    4    4    0    0  0.18572773202E-01  0.26198251104E-01  0.77048885085E-01  0.83475074598E-01  0.51100000000E-03 0. -1.
         11    1    4    4    0    0  0.25129598546E-01  0.12878382260E-01  0.40906004724E-01  0.49708266880E-01  0.51100000000E-03 0.  1.
</event>
<event>
 8    1  0.1030163E+005  0.1043930E+01  0.7957747E-01            NaN
         13   -1    0    0    0    0  0.00000000000E+00  0.00000000000E+00  0.74505805969E-08  0.10566000000E+00  0.10566000000E+00 0. -1.
     999900   -1    0    0    0    0 -0.00000000000E+00 -0.00000000000E+00 -0.74505805969E-08  0.93827000000E+00  0.93827000000E+00 0. -1.
     999902    2    1    2    0    0  0.71459081628E-02 -0.43656652628E-02  0.19278702303E-01  0.10229111656E+01  0.10226951947E+01 0.  0.
     999903    2    3    3    0    0  0.43290639730E-01  0.23478021170E-01  0.12465254968E+00  0.13545110442E+00  0.19581792107E-01 0.  0.
         14    1    1    2    0    0 -0.71459081628E-02  0.43656652628E-02 -0.19278702303E-01  0.21018834390E-01  0.00000000000E+00 0.  1.
     999901    1    3    3    0    0 -0.36144731567E-01 -0.27843686432E-01 -0.10537384737E+00  0.88746006119E+00  0.88000000000E+00 0. -1.
        -11    1    4    4    0    0  0.30355365663E-01  0.25300479117E-01  0.10042963461E+00  0.10792559982E+00  0.51100000000E-03 0. -1.
         11    1    4    4    0    0  0.12935274067E-01 -0.18224579477E-02  0.24222915063E-01  0.27525504597E-01  0.51100000000E-03 0.  1.
</event>
<event>
 8    1  0.1030163E+005  0.1043930E+01  0.7957747E-01            NaN
         13   -1    0    0    0    0  0.00000000000E+00  0.00000000000E+00  0.74505805969E-08  0.10566000000E+00  0.10566000000E+00 0. -1.
     999900   -1    0    0    0    0 -0.00000000000E+00 -0.00000000000E+00 -0.74505805969E-08  0.93827000000E+00  0.93827000000E+00 0.  1.
     999902    2    1    2    0    0  0.64319740587E-02 -0.17674219932E-01 -0.14232135396E-01  0.10203439444E+01  0.10200713028E+01 0.  0.
     999903    2    3    3    0    0 -0.57694854358E-01 -0.51840551993E-01  0.10203353381E+00  0.12972770033E+00  0.20057296978E-01 0.  0.
         14    1    1    2    0    0 -0.64319740587E-02  0.17674219932E-01  0.14232135396E-01  0.23586055593E-01  0.00000000000E+00 0. -1.
     999901    1    3    3    0    0  0.64126828416E-01  0.34166332061E-01 -0.11626566921E+00  0.89061624407E+00  0.88000000000E+00 0.  1.
        -11    1    4    4    0    0 -0.43212640393E-01 -0.48674663617E-01  0.86432695892E-01  0.10820086510E+00  0.51100000000E-03 0. -1.
         11    1    4    4    0    0 -0.14482213965E-01 -0.31658883758E-02  0.15600837918E-01  0.21526835236E-01  0.51100000000E-03 0.  1.
</event>
<event>
 8    1  0.1030163E+005  0.1043930E+01  0.7957747E-01            NaN
         13   -1    0    0    0    0  0.00000000000E+00  0.00000000000E+00  0.74505805969E-08  0.10566000000E+00  0.10566000000E+00 0. -1.
     999900   -1    0    0    0    0 -0.00000000000E+00 -0.00000000000E+00 -0.74505805969E-08  0.93827000000E+00  0.93827000000E+00 0.  1.
     999902    2    1    2    0    0  0.23113273671E-01  0.37075027042E-02  0.51928597614E-02  0.10199522022E+01  0.10196703192E+01 0.  0.
     999903    2    3    3    0    0 -0.11931935697E+00  0.26803652065E-01  0.32381395135E-01  0.12778646486E+00  0.18035552083E-01 0.  0.
         14    1    1    2    0    0 -0.23113273671E-01 -0.37075027042E-02 -0.51928597614E-02  0.23977797826E-01  0.00000000000E+00 0.  1.
     999901    1    3    3    0    0  0.14243263064E+00 -0.23096149361E-01 -0.27188535373E-01  0.89216573732E+00  0.88000000000E+00 0. -1.
        -11    1    4    4    0    0 -0.49662197133E-01  0.24475296408E-02  0.15512878002E-01  0.52088719799E-01  0.51100000000E-03 0.  1.
         11    1    4    4    0    0 -0.69657159834E-01  0.24356122424E-01  0.16868517133E-01  0.75697745058E-01  0.51100000000E-03 0. -1.
</event>
<event>
 8    1  0.1030163E+005  0.1043930E+01  0.7957747E-01            NaN
         13   -1    0    0    0    0  0.00000000000E+00  0.00000000000E+00  0.74505805969E-08  0.10566000000E+00  0.10566000000E+00 0.  1.
     999900   -1    0    0    0    0 -0.00000000000E+00 -0.00000000000E+00 -0.74505805969E-08  0.93827000000E+00  0.93827000000E+00 0. -1.
     999902    2    1    2    0    0  0.97834419840E-02  0.61411086497E-02 -0.19725645815E-01  0.10210710837E+01  0.10208151781E+01 0.  0.
     999903    2    3    3    0    0  0.13001714126E+00  0.90131979626E-02 -0.15860458222E-01  0.13288229124E+00  0.20504985512E-01 0.  0.
         14    1    1    2    0    0 -0.97834419840E-02 -0.61411086497E-02  0.19725645815E-01  0.22858916319E-01  0.00000000000E+00 0.  1.
     999901    1    3    3    0    0 -0.12023369928E+00 -0.28720893129E-02 -0.38651875922E-02  0.88818879244E+00  0.88000000000E+00 0. -1.
        -11    1    4    4    0    0  0.82197446940E-01  0.22719664670E-03 -0.18249518853E-01  0.84200819243E-01  0.51100000000E-03 0.  1.
         11    1    4    4    0    0  0.47819694323E-01  0.87860013159E-02  0.23890606308E-02  0.48681471999E-01  0.51100000000E-03 0. -1.
</event>
<event>
 8    1  0.1030163E+005  0.1043930E+01  0.7957747E-01            NaN
         13   -1    0    0    0    0  0.00000000000E+00  0.00000000000E+00  0.74505805969E-08  0.10566000000E+00  0.10566000000E+00 0.  1.
     999900   -1    0    0    0    0 -0.00000000000E+00 -0.00000000000E+00 -0.74505805969E-08  0.93827000000E+00  0.93827000000E+00 0.  1.
     999902    2    1    2    0    0 -0.40258943336E-02  0.23064738401E-01  0.37733704018E-02  0.10202144290E+01  0.10199387496E+01 0.  0.
     999903    2    3    3    0    0 -0.10274444112E+00 -0.76477576114E-02 -0.77408002736E-01  0.13045096369E+00  0.20261951096E-01 0.  0.
         14    1    1    2    0    0  0.40258943336E-02 -0.23064738401E-01 -0.37733704018E-02  0.23715570980E-01  0.00000000000E+00 0.  1.
     999901    1    3    3    0    0  0.98718546788E-01  0.30712496013E-01  0.81181373138E-01  0.88976346533E+00  0.88000000000E+00 0. -1.
        -11    1    4    4    0    0 -0.56549239485E-01  0.93703862445E-03 -0.31411007998E-01  0.64696267838E-01  0.51100000000E-03 0. -1.
         11    1    4    4    0    0 -0.46195201637E-01 -0.85847962359E-02 -0.45996994738E-01  0.65754695852E-01  0.51100000000E-03 0.  1.
</event>
<event>
 8    1  0.1030163E+005  0.1043930E+01  0.7957747E-01            NaN
         13   -1    0    0    0    0  0.00000000000E+00  0.00000000000E+00  0.74505805969E-08  0.10566000000E+00  0.10566000000E+00 0. -1.
     999900   -1    0    0    0    0 -0.00000000000E+00 -0.00000000000E+00 -0.74505805969E-08  0.93827000000E+00  0.93827000000E+00 0. -1.
     999902    2    1    2    0    0  0.15034982810E-01 -0.11066657116E-01  0.14157666621E-01  0.10205000804E+01  0.10202310782E+01 0.  0.
     999903    2    3    3    0    0 -0.13731277344E-01 -0.12138609245E+00 -0.43478423868E-01  0.13127581485E+00  0.20489870763E-01 0.  0.
         14    1    1    2    0    0 -0.15034982810E-01  0.11066657116E-01 -0.14157666621E-01  0.23429919590E-01  0.00000000000E+00 0.  1.
     999901    1    3    3    0    0  0.28766260154E-01  0.11031943534E+00  0.57636090489E-01  0.88922426556E+00  0.88000000000E+00 0.  1.
        -11    1    4    4    0    0 -0.61958105096E-02 -0.17436760196E-01 -0.13224110419E-01  0.22750096514E-01  0.51100000000E-03 0. -1.
         11    1    4    4    0    0 -0.75354668348E-02 -0.10394933226E+00 -0.30254313449E-01  0.10852571834E+00  0.51100000000E-03 0.  1.
</event>
<event>
 8    1  0.1030163E+005  0.1043930E+01  0.7957747E-01            NaN
         13   -1    0    0    0    0  0.00000000000E+00  0.00000000000E+00  0.74505805969E-08  0.10566000000E+00  0.10566000000E+00 0.  1.
     999900   -1    0    0    0    0 -0.00000000000E+00 -0.00000000000E+00 -0.74505805969E-08  0.93827000000E+00  0.93827000000E+00 0.  1.
     999902    2    1    2    0    0  0.15186754063E-01  0.14341668674E-01 -0.53700196971E-02  0.10223624765E+01  0.10221349594E+01 0.  0.
     999903    2    3    3    0    0 -0.62990237502E-01 -0.30667360062E-01 -0.10958243785E+00  0.13163373956E+00  0.20270020004E-01 0.  0.
         14    1    1    2    0    0 -0.15186754063E-01 -0.14341668674E-01  0.53700196971E-02  0.21567523523E-01  0.00000000000E+00 0.  1.
     999901    1    3    3    0    0  0.78176991565E-01  0.45009028736E-01  0.10421241815E+00  0.89072873692E+00  0.88000000000E+00 0. -1.
        -11    1    4    4    0    0 -0.49577962047E-01 -0.32442688839E-01 -0.85870641331E-01  0.10432895352E+00  0.51100000000E-03 0. -1.
         11    1    4    4    0    0 -0.13412275455E-01  0.17753287775E-02 -0.23711796519E-01  0.27304786033E-01  0.51100000000E-03 0.  1.
</event>
<event>
 8    1  0.1030163E+005  0.1043930E+01  0.7957747E-01            NaN
         13   -1    0    0    0    0  0.00000000000E+00  0.00000000000E+00  0.74505805969E-08  0.10566000000E+00  0.10566000000E+00 0. -1.
     999900   -1    0    0    0    0 -0.00000000000E+00 -0.00000000000E+00 -0.74505805969E-08  0.93827000000E+00  0.93827000000E+00 0. -1.
     999902    2    1    2    0    0  0.16300523543E-01 -0.61092512813E-02 -0.14619914287E-01  0.10211973822E+01  0.10209443283E+01 0.  0.
     999903    2    3    3    0    0  0.13132837740E+00  0.11998931292E-01 -0.20133520344E-02  0.13343714493E+00  0.20255887982E-01 0.  0.
         14    1    1    2    0    0 -0.16300523543E-01  0.61092512813E-02  0.14619914287E-01  0.22732617815E-01  0.00000000000E+00 0. -1.
     999901    1    3    3    0    0 -0.11502785386E+00 -0.18108182574E-01 -0.12606562252E-01  0.88776023725E+00  0.88000000000E+00 0.  1.
        -11    1    4    4    0    0  0.33454018992E-01  0.76489649488E-02 -0.81408778772E-02  0.35273404501E-01  0.51100000000E-03 0.  1.
         11    1    4    4    0    0  0.97874358408E-01  0.43499663435E-02  0.61275258428E-02  0.98163740428E-01  0.51100000000E-03 0. -1.
</event>
<event>
 8    1  0.1030163E+005  0.1043930E+01  0.7957747E-01            NaN
         13   -1    0    0    0    0  0.00000000000E+00  0.00000000000E+00  0.74505805969E-08  0.10566000000E+00  0.10566000000E+00 0. -1.
     999900   -1    0    0    0    0 -0.00000000000E+00 -0.00000000000E+00 -0.74505805969E-08  0.93827000000E+00  0.93827000000E+00 0. -1.
     999902    2    1    2    0    0  0.34515443298E-02  0.18346483075E-01  0.13499665359E-01  0.10208920408E+01  0.10206320647E+01 0.  0.
     999903    2    3    3    0    0 -0.47720308039E-01  0.11754722105E+00 -0.32955782226E-01  0.13262549662E+00  0.20220331230E-01 0.  0.
         14    1    1    2    0    0 -0.34515443298E-02 -0.18346483075E-01 -0.13499665359E-01  0.23037959204E-01  0.00000000000E+00 0. -1.
     999901    1    3    3    0    0  0.51171852369E-01 -0.99200737979E-01  0.46455447585E-01  0.88826654418E+00  0.88000000000E+00 0.  1.
        -11    1    4    4    0    0 -0.16581054433E-01  0.56964981168E-01 -0.23663618884E-01  0.63876196077E-01  0.51100000000E-03 0. -1.
         11    1    4    4    0    0 -0.31139253606E-01  0.60582239885E-01 -0.92921633414E-02  0.68749300543E-01  0.51100000000E-03 0.  1.
</event>
<event>
 8    1  0.1030163E+005  0.1043930E+01  0.7957747E-01            NaN
         13   -1    0    0    0    0  0.00000000000E+00  0.00000000000E+00  0.74505805969E-08  0.10566000000E+00  0.10566000000E+00 0.  1.
     999900   -1    0    0    0    0 -0.00000000000E+00 -0.00000000000E+00 -0.74505805969E-08  0.93827000000E+00  0.93827000000E+00 0. -1.
     999902    2    1    2    0    0  0.47045355314E-02  0.11993117506E-01  0.19899794067E-01  0.10202241078E+01  0.10199486559E+01 0.  0.
     999903    2    3    3    0    0 -0.82009096080E-01  0.68197454396E-01  0.75782578953E-01  0.13241722166E+00  0.20369994935E-01 0.  0.
         14    1    1    2    0    0 -0.47045355314E-02 -0.11993117506E-01 -0.19899794067E-01  0.23705892221E-01  0.00000000000E+00 0. -1.
     999901    1    3    3    0    0  0.86713631611E-01 -0.56204336891E-01 -0.55882784886E-01  0.88780688612E+00  0.88000000000E+00 0. -1.
        -11    1    4    4    0    0 -0.31545286399E-01  0.18732490702E-01  0.35610880684E-01  0.51131274636E-01  0.51100000000E-03 0.  1.
         11    1    4    4    0    0 -0.50463809681E-01  0.49464963694E-01  0.40171698269E-01  0.81285947024E-01  0.51100000000E-03 0. -1.
</event>
<event>
 8    1  0.1030163E+005  0.1043930E+01  0.7957747E-01            NaN
         13   -1    0    0    0    0  0.00000000000E+00  0.00000000000E+00  0.74505805969E-08  0.10566000000E+00  0.10566000000E+00 0. -1.
     999900   -1    0    0    0    0 -0.00000000000E+00 -0.00000000000E+00 -0.74505805969E-08  0.93827000000E+00  0.93827000000E+00 0. -1.
     999902    2    1    2    0    0  0.10928267849E-01  0.86914274946E-02 -0.18853922982E-01  0.10204685772E+01  0.10201988427E+01 0.  0.
     999903    2    3    3    0    0 -0.10811064292E+00 -0.67480856905E-01 -0.29803302556E-03  0.12899967683E+00  0.19981257173E-01 0.  0.
         14    1    1    2    0    0 -0.10928267849E-01 -0.86914274946E-02  0.18853922982E-01  0.23461422844E-01  0.00000000000E+00 0. -1.
     999901    1    3    3    0    0  0.11903891077E+00  0.76172284399E-01 -0.18555889956E-01  0.89146890032E+00  0.88000000000E+00 0. -1.
        -11    1    4    4    0    0 -0.34165335122E-01 -0.27645871436E-01  0.77142201817E-02  0.44624372774E-01  0.51100000000E-03 0. -1.
         11    1    4    4    0    0 -0.73945307800E-01 -0.39834985469E-01 -0.80122532072E-02  0.84375304061E-01  0.51100000000E-03 0.  1.
</event>
<event>
 8    1  0.1030163E+005  0.1043930E+01  0.7957747E-01            NaN
         13   -1    0    0    0    0  0.00000000000E+00  0.00000000000E+00  0.74505805969E-08  0.10566000000E+00  0.10566000000E+00 0. -1.
     999900   -1    0    0    0    0 -0.00000000000E+00 -0.00000000000E+00 -0.74505805969E-08  0.93827000000E+00  0.93827000000E+00 0. -1.
     999902    2    1    2    0    0 -0.18582167979E-01  0.13908016728E-01  0.32396252903E-02  0.10204944486E+01  0.10202253156E+01 0.  0.
     999903    2    3    3    0    0  0.95111350482E-01  0.70575050582E-01 -0.48999648038E-01  0.12983945900E+00  0.20743983490E-01 0.  0.
         14    1    1    2    0    0  0.18582167979E-01 -0.13908016728E-01 -0.32396252903E-02  0.23435551372E-01  0.00000000000E+00 0. -1.
     999901    1    3    3    0    0 -0.11369351846E+00 -0.56667033855E-01  0.52239273328E-01  0.89065498962E+00  0.88000000000E+00 0. -1.
        -11    1    4    4    0    0  0.52242859321E-01  0.25876653113E-01 -0.24067413820E-01  0.63074710109E-01  0.51100000000E-03 0.  1.
         11    1    4    4    0    0  0.42868491162E-01  0.44698397469E-01 -0.24932234218E-01  0.66764748894E-01  0.51100000000E-03 0. -1.
</event>
<event>
 8    1  0.1030163E+005  0.1043930E+01  0.7957747E-01            NaN
         13   -1    0    0    0    0  0.00000000000E+00  0.00000000000E+00  0.74505805969E-08  0.10566000000E+00  0.10566000000E+00 0.  1.
     999900   -1    0    0    0    0 -0.00000000000E+00 -0.00000000000E+00 -0.74505805969E-08  0.93827000000E+00  0.93827000000E+00 0. -1.
     999902    2    1    2    0    0 -0.67335655677E-02 -0.24625183739E-02 -0.22633497786E-01  0.10201880514E+01  0.10199117511E+01 0.  0.
     999903    2    3    3    0    0 -0.65679060235E-01  0.30137231571E-01  0.10430821333E+00  0.12853143976E+00  0.20448372961E-01 0.  0.
         14    1    1    2    0    0  0.67335655677E-02  0.24625183739E-02  0.22633497786E-01  0.23741948615E-01  0.00000000000E+00 0.  1.
     999901    1    3    3    0    0  0.58945494667E-01 -0.32599749945E-01 -0.12694171112E+00  0.89165661163E+00  0.88000000000E+00 0. -1.
        -11    1    4    4    0    0 -0.16389217368E-01  0.17289729688E-02  0.13210104825E-01  0.21127323161E-01  0.51100000000E-03 0.  1.
         11    1    4    4    0    0 -0.49289842867E-01  0.28408258602E-01  0.91098108510E-01  0.10740411660E+00  0.51100000000E-03 0. -1.
</event>
<event>
 8    1  0.1030163E+005  0.1043930E+01  0.7957747E-01            NaN
         13   -1    0    0    0    0  0.00000000000E+00  0.00000000000E+00  0.74505805969E-08  0.10566000000E+00  0.10566000000E+00 0. -1.
     999900   -1    0    0    0    0 -0.00000000000E+00 -0.00000000000E+00 -0.74505805969E-08  0.93827000000E+00  0.93827000000E+00 0. -1.
     999902    2    1    2    0    0 -0.93724887652E-02 -0.11386487726E-02 -0.22116136316E-01  0.10198828889E+01  0.10195993544E+01 0.  0.
     999903    2    3    3    0    0  0.26945931606E-01 -0.92710088800E-01 -0.87757209793E-01  0.13195659308E+00  0.19747678107E-01 0.  0.
         14    1    1    2    0    0  0.93724887652E-02  0.11386487726E-02  0.22116136316E-01  0.24047111099E-01  0.00000000000E+00 0. -1.
     999901    1    3    3    0    0 -0.36318420372E-01  0.91571440027E-01  0.65641073477E-01  0.88792629582E+00  0.88000000000E+00 0.  1.
        -11    1    4    4    0    0  0.22361383152E-01 -0.67241435162E-01 -0.52377189608E-01  0.88119652583E-01  0.51100000000E-03 0.  1.
         11    1    4    4    0    0  0.45845484548E-02 -0.25468653637E-01 -0.35380020185E-01  0.43836940494E-01  0.51100000000E-03 0. -1.
</event>
<event>
 8    1  0.1030163E+005  0.1043930E+01  0.7957747E-01            NaN
         13   -1    0    0    0    0  0.00000000000E+00  0.00000000000E+00  0.74505805969E-08  0.10566000000E+00  0.10566000000E+00 0. -1.
     999900   -1    0    0    0    0 -0.00000000000E+00 -0.00000000000E+00 -0.74505805969E-08  0.93827000000E+00  0.93827000000E+00 0. -1.
     999902    2    1    2    0    0 -0.10681982804E-01  0.17859563623E-01 -0.12233970732E-01  0.10197900164E+01  0.10195042612E+01 0.  0.
     999903    2    3    3    0    0  0.46605078855E-01 -0.10198047676E+00  0.56581481395E-01  0.12716523005E+00  0.19936917543E-01 0.  0.
         14    1    1    2    0    0  0.10681982804E-01 -0.17859563623E-01  0.12233970732E-01  0.24139983622E-01  0.00000000000E+00 0. -1.
     999901    1    3    3    0    0 -0.57287061659E-01  0.11984004039E+00 -0.68815452127E-01  0.89262478633E+00  0.88000000000E+00 0. -1.
        -11    1    4    4    0    0  0.24553091373E-01 -0.38686979189E-01  0.31467536550E-01  0.55587801110E-01  0.51100000000E-03 0.  1.
         11    1    4    4    0    0  0.22051987481E-01 -0.63293497574E-01  0.25113944845E-01  0.71577428941E-01  0.51100000000E-03 0. -1.
</event>
<event>
 8    1  0.1030163E+005  0.1043930E+01  0.7957747E-01            NaN
         13   -1    0    0    0    0  0.00000000000E+00  0.00000000000E+00  0.74505805969E-08  0.10566000000E+00  0.10566000000E+00 0. -1.
     999900   -1    0    0    0    0 -0.00000000000E+00 -0.00000000000E+00 -0.74505805969E-08  0.93827000000E+00  0.93827000000E+00 0. -1.
     999902    2    1    2    0    0  0.12579208668E-01  0.19436405451E-01  0.49703931087E-02  0.10202505753E+01  0.10199757454E+01 0.  0.
     999903    2    3    3    0    0  0.59873169100E-01 -0.39429923949E-01 -0.10657514359E+00  0.13000096411E+00  0.20061758579E-01 0.  0.
         14    1    1    2    0    0 -0.12579208668E-01 -0.19436405451E-01 -0.49703931087E-02  0.23679424723E-01  0.00000000000E+00 0.  1.
     999901    1    3    3    0    0 -0.47293960431E-01  0.58866329400E-01  0.11154553670E+00  0.89024961117E+00  0.88000000000E+00 0.  1.
        -11    1    4    4    0    0  0.24197317350E-01 -0.14536621866E-01 -0.25754492552E-01  0.38214899579E-01  0.51100000000E-03 0.  1.
         11    1    4    4    0    0  0.35675851749E-01 -0.24893302083E-01 -0.80820651036E-01  0.91786064528E-01  0.51100000000E-03 0. -1.
</event>
<event>
 7    1  0.1030163E+005  0.1043930E+01  0.7957747E-01            NaN
         13   -1    0    0    0    0  0.00000000000E+00  0.00000000000E+00  0.74505805969E-08  0.10566000000E+00  0.10566000000E+00 0. -1.
     999900   -1    0    0    0    0 -0.00000000000E+00 -0.00000000000E+00 -0.74505805969E-08  0.93827000000E+00  0.93827000000E+00 0. -1.
     999902    2    1    2    0    0 -0.22062992094E-01 -0.77757513803E-02  0.50583448397E-02  0.10199962418E+01  0.10197154056E+01 0.  0.
         14    1    1    2    0    0  0.22062992094E-01  0.77757513803E-02 -0.50583448397E-02  0.23933758212E-01  0.00000000000E+00 0. -1.
     999901    1    3    3    0    0 -0.11184712406E+00 -0.88394280367E-01  0.19171877756E-01  0.89167869149E+00  0.88000000000E+00 0.  1.
        -11    1    3    3    0    0  0.66195245494E-01  0.57495456120E-01 -0.28625696955E-01  0.92234644509E-01  0.51100000000E-03 0. -1.
         11    1    3    3    0    0  0.23588886476E-01  0.23123072866E-01  0.14512164039E-01  0.36082905787E-01  0.51100000000E-03 0.  1.
</event>
<event>
 7    1  0.1030163E+005  0.1043930E+01  0.7957747E-01            NaN
         13   -1    0    0    0    0  0.00000000000E+00  0.00000000000E+00  0.74505805969E-08  0.10566000000E+00  0.10566000000E+00 0. -1.
     999900   -1    0    0    0    0 -0.00000000000E+00 -0.00000000000E+00 -0.74505805969E-08  0.93827000000E+00  0.93827000000E+00 0. -1.
     999903    2    1    2    0    0  0.20533372722E-01 -0.29517943780E-01 -0.98172006056E-01  0.10643964863E+00  0.19968165335E-01 0.  0.
         14    1    1    2    0    0  0.23237099872E-01 -0.40769327675E-01  0.16891438890E-01  0.49874057357E-01  0.00000000000E+00 0. -1.
     999901    1    1    2    0    0 -0.43770472594E-01  0.70287271455E-01  0.81280567166E-01  0.88761629401E+00  0.88000000000E+00 0. -1.
        -11    1    3    3    0    0  0.22158275041E-02 -0.16523974788E-01 -0.58691015399E-01  0.61015146020E-01  0.51100000000E-03 0. -1.
         11    1    3    3    0    0  0.18317545218E-01 -0.12993968992E-01 -0.39480990657E-01  0.45424502609E-01  0.51100000000E-03 0.  1.
</event>
<event>
 8    1  0.1165665E+005  0.1043930E+01  0.7957747E-01            NaN
         13   -1    0    0    0    0  0.00000000000E+00  0.00000000000E+00  0.74505805969E-08  0.10566000000E+00  0.10566000000E+00 0. -1.
     999900   -1    0    0    0    0 -0.00000000000E+00 -0.00000000000E+00 -0.74505805969E-08  0.93827000000E+00  0.93827000000E+00 0.  1.
     999902    2    1    2    0    0 -0.45480220527E-02 -0.15229008930E-01  0.18309624784E-01  0.10196843906E+01  0.10193960991E+01 0.  0.
     999903    2    3    3    0    0 -0.57206368347E-01 -0.70412215307E-01  0.95176919730E-01  0.13304654525E+00  0.20304888798E-01 0.  0.
         14    1    1    2    0    0  0.45480220527E-02  0.15229008930E-01 -0.18309624784E-01  0.24245609444E-01  0.00000000000E+00 0.  1.
     999901    1    3    3    0    0  0.52658346295E-01  0.55183206377E-01 -0.76867294946E-01  0.88663784531E+00  0.88000000000E+00 0.  1.
        -11    1    4    4    0    0 -0.53584715535E-02 -0.19639433911E-01  0.22341491193E-01  0.30229520861E-01  0.51100000000E-03 0.  1.
         11    1    4    4    0    0 -0.51847896794E-01 -0.50772781396E-01  0.72835428537E-01  0.10281702439E+00  0.51100000000E-03 0. -1.
</event>
<event>
 8    1  0.1030163E+005  0.1043930E+01  0.7957747E-01            NaN
         13   -1    0    0    0    0  0.00000000000E+00  0.00000000000E+00  0.74505805969E-08  0.10566000000E+00  0.10566000000E+00 0.  1.
     999900   -1    0    0    0    0 -0.00000000000E+00 -0.00000000000E+00 -0.74505805969E-08  0.93827000000E+00  0.93827000000E+00 0. -1.
     999902    2    1    2    0    0 -0.26666290852E-02 -0.18276291775E-01 -0.15834889420E-01  0.10196014679E+01  0.10193111771E+01 0.  0.
     999903    2    3    3    0    0 -0.83810459265E-01  0.53503934124E-01 -0.82034140392E-01  0.13049007845E+00  0.20277976584E-01 0.  0.
         14    1    1    2    0    0  0.26666290852E-02  0.18276291775E-01  0.15834889420E-01  0.24328532110E-01  0.00000000000E+00 0.  1.
     999901    1    3    3    0    0  0.81143830180E-01 -0.71780225899E-01  0.66199250973E-01  0.88911138944E+00  0.88000000000E+00 0.  1.
        -11    1    4    4    0    0 -0.39509712269E-01  0.19081483820E-01 -0.25069410951E-01  0.50535699013E-01  0.51100000000E-03 0. -1.
         11    1    4    4    0    0 -0.44300746996E-01  0.34422450304E-01 -0.56964729442E-01  0.79954379434E-01  0.51100000000E-03 0.  1.
</event>
<event>
 8    1  0.1030163E+005  0.1043930E+01  0.7957747E-01            NaN
         13   -1    0    0    0    0  0.00000000000E+00  0.00000000000E+00  0.74505805969E-08  0.10566000000E+00  0.10566000000E+00 0.  1.
     999900   -1    0    0    0    0 -0.00000000000E+00 -0.00000000000E+00 -0.74505805969E-08  0.93827000000E+00  0.93827000000E+00 0. -1.
     999902    2    1    2    0    0 -0.21183342048E-01  0.91842023941E-02 -0.47313701913E-02  0.10203616013E+01  0.10200893725E+01 0.  0.
     999903    2    3    3    0    0  0.41914437397E-01 -0.31056970858E-01  0.11653284453E+00  0.12889893153E+00  0.17710877861E-01 0.  0.
         14    1    1    2    0    0  0.21183342048E-01 -0.91842023941E-02  0.47313701913E-02  0.23568398711E-01  0.00000000000E+00 0. -1.
     999901    1    3    3    0    0 -0.63097779445E-01  0.40241173252E-01 -0.12126421472E+00  0.89146266976E+00  0.88000000000E+00 0. -1.
        -11    1    4    4    0    0  0.89223501058E-02 -0.15386750286E-01  0.48822179649E-01  0.51963706204E-01  0.51100000000E-03 0. -1.
         11    1    4    4    0    0  0.32992087291E-01 -0.15670220572E-01  0.67710664882E-01  0.76935225328E-01  0.51100000000E-03 0.  1.
</event>
<event>
 8    1  0.1030163E+005  0.1043930E+01  0.7957747E-01            NaN
         13   -1    0    0    0    0  0.00000000000E+00  0.00000000000E+00  0.74505805969E-08  0.10566000000E+00  0.10566000000E+00 0. -1.
     999900   -1    0    0    0    0 -0.00000000000E+00 -0.00000000000E+00 -0.74505805969E-08  0.93827000000E+00  0.93827000000E+00 0.  1.
     999902    2    1    2    0    0  0.16909758839E-01  0.71810890071E-02  0.15088415928E-01  0.10201567318E+01  0.10198796935E+01 0.  0.
     999903    2    3    3    0    0 -0.81451142383E-01 -0.55617653315E-02  0.99825243580E-01  0.13054019806E+00  0.20259373765E-01 0.  0.
         14    1    1    2    0    0 -0.16909758839E-01 -0.71810890071E-02 -0.15088415928E-01  0.23773268151E-01  0.00000000000E+00 0.  1.
     999901    1    3    3    0    0  0.98360901222E-01  0.12742854339E-01 -0.84736827652E-01  0.88961653379E+00  0.88000000000E+00 0.  1.
        -11    1    4    4    0    0 -0.45983175827E-01  0.68686651575E-02  0.57047795069E-01  0.73595808735E-01  0.51100000000E-03 0.  1.
         11    1    4    4    0    0 -0.35467966556E-01 -0.12430430489E-01  0.42777448511E-01  0.56944389328E-01  0.51100000000E-03 0. -1.
</event>
<event>
 8    1  0.1030163E+005  0.1043930E+01  0.7957747E-01            NaN
         13   -1    0    0    0    0  0.00000000000E+00  0.00000000000E+00  0.74505805969E-08  0.10566000000E+00  0.10566000000E+00 0.  1.
     999900   -1    0    0    0    0 -0.00000000000E+00 -0.00000000000E+00 -0.74505805969E-08  0.93827000000E+00  0.93827000000E+00 0. -1.
     999902    2    1    2    0    0 -0.17797576188E-01 -0.44793006615E-02 -0.15146754861E-01  0.10201341593E+01  0.10198565884E+01 0.  0.
     999903    2    3    3    0    0 -0.69325609327E-01 -0.10521960470E+00 -0.36337549209E-01  0.13263610474E+00  0.19867397323E-01 0.  0.
         14    1    1    2    0    0  0.17797576188E-01  0.44793006615E-02  0.15146754861E-01  0.23795840717E-01  0.00000000000E+00 0. -1.
     999901    1    3    3    0    0  0.51528033139E-01  0.10074030404E+00  0.21190794348E-01  0.88749805455E+00  0.88000000000E+00 0. -1.
        -11    1    4    4    0    0 -0.34399925807E-01 -0.39411263260E-01 -0.22063749341E-01  0.56777396235E-01  0.51100000000E-03 0.  1.
         11    1    4    4    0    0 -0.34925683521E-01 -0.65808341437E-01 -0.14273799868E-01  0.75858708503E-01  0.51100000000E-03 0. -1.
</event>
<event>
 7    1  0.1030163E+005  0.1043930E+01  0.7957747E-01            NaN
         13   -1    0    0    0    0  0.00000000000E+00  0.00000000000E+00  0.74505805969E-08  0.10566000000E+00  0.10566000000E+00 0. -1.
     999900   -1    0    0    0    0 -0.00000000000E+00 -0.00000000000E+00 -0.74505805969E-08  0.93827000000E+00  0.93827000000E+00 0. -1.
     999903    2    1    2    0    0 -0.42821263259E-01 -0.47959325870E-01  0.65998466499E-01  0.94298579643E-01  0.20066564663E-01 0.  0.
         14    1    1    2    0    0 -0.29022694854E-02 -0.36425780208E-01 -0.52927920063E-01  0.64316602477E-01  0.00000000000E+00 0.  1.
     999901    1    1    2    0    0  0.45723532745E-01  0.84385106078E-01 -0.13070546436E-01  0.88531481788E+00  0.88000000000E+00 0. -1.
        -11    1    3    3    0    0 -0.26996404113E-01 -0.18508068777E-01  0.41447848308E-01  0.52816093146E-01  0.51100000000E-03 0. -1.
         11    1    3    3    0    0 -0.15824859146E-01 -0.29451257093E-01  0.24550618191E-01  0.41482486496E-01  0.51100000000E-03 0.  1.
</event>
<event>
 8    1  0.1030163E+005  0.1043930E+01  0.7957747E-01            NaN
         13   -1    0    0    0    0  0.00000000000E+00  0.00000000000E+00  0.74505805969E-08  0.10566000000E+00  0.10566000000E+00 0. -1.
     999900   -1    0    0    0    0 -0.00000000000E+00 -0.00000000000E+00 -0.74505805969E-08  0.93827000000E+00  0.93827000000E+00 0. -1.
     999902    2    1    2    0    0 -0.94306656939E-02  0.23366535274E-01  0.10202748489E-01  0.10167449213E+01  0.10163814277E+01 0.  0.
     999903    2    3    3    0    0 -0.11369144341E+00  0.40957416231E-01 -0.40119317801E-01  0.12898816453E+00  0.20618745863E-01 0.  0.
         14    1    1    2    0    0  0.94306656939E-02 -0.23366535274E-01 -0.10202748489E-01  0.27185078680E-01  0.00000000000E+00 0. -1.
     999901    1    3    3    0    0  0.10426077771E+00 -0.17590880957E-01  0.50322066290E-01  0.88775675679E+00  0.88000000000E+00 0.  1.
        -11    1    4    4    0    0 -0.25800589827E-01  0.96062055450E-02 -0.18580697731E-01  0.33218264096E-01  0.51100000000E-03 0.  1.
         11    1    4    4    0    0 -0.87890853579E-01  0.31351210686E-01 -0.21538620070E-01  0.95769900438E-01  0.51100000000E-03 0. -1.
</event>
<event>
 8    1  0.1030163E+005  0.1043930E+01  0.7957747E-01            NaN
         13   -1    0    0    0    0  0.00000000000E+00  0.00000000000E+00  0.74505805969E-08  0.10566000000E+00  0.10566000000E+00 0.  1.
     999900   -1    0    0    0    0 -0.00000000000E+00 -0.00000000000E+00 -0.74505805969E-08  0.93827000000E+00  0.93827000000E+00 0. -1.
     999902    2    1    2    0    0  0.15738348230E-01  0.38664418989E-03  0.15235554439E-01  0.10220218459E+01  0.10217870063E+01 0.  0.
     999903    2    3    3    0    0  0.52910143682E-01 -0.17202830919E-01  0.12097890579E+00  0.13473790688E+00  0.20566652843E-01 0.  0.
         14    1    1    2    0    0 -0.15738348230E-01 -0.38664418989E-03 -0.15235554439E-01  0.21908154140E-01  0.00000000000E+00 0. -1.
     999901    1    3    3    0    0 -0.37171795451E-01  0.17589475109E-01 -0.10574335135E+00  0.88728393898E+00  0.88000000000E+00 0. -1.
        -11    1    4    4    0    0  0.46423489014E-01 -0.94804105025E-02  0.84411156256E-01  0.96801461440E-01  0.51100000000E-03 0. -1.
         11    1    4    4    0    0  0.64866546674E-02 -0.77224204167E-02  0.36567749534E-01  0.37936445443E-01  0.51100000000E-03 0.  1.
</event>
<event>
 8    1  0.1030163E+005  0.1043930E+01  0.7957747E-01            NaN
         13   -1    0    0    0    0  0.00000000000E+00  0.00000000000E+00  0.74505805969E-08  0.10566000000E+00  0.10566000000E+00 0. -1.
     999900   -1    0    0    0    0 -0.00000000000E+00 -0.00000000000E+00 -0.74505805969E-08  0.93827000000E+00  0.93827000000E+00 0. -1.
     999902    2    1    2    0    0  0.13634368288E-01 -0.19035267543E-01 -0.35435324935E-02  0.10202489098E+01  0.10199740408E+01 0.  0.
     999903    2    3    3    0    0  0.10565394515E+00  0.68445798531E-01 -0.28932730112E-01  0.13077426106E+00  0.20425988909E-01 0.  0.
         14    1    1    2    0    0 -0.13634368288E-01  0.19035267543E-01  0.35435324935E-02  0.23681090169E-01  0.00000000000E+00 0.  1.
     999901    1    3    3    0    0 -0.92019576859E-01 -0.87481066074E-01  0.25389197619E-01  0.88947464877E+00  0.88000000000E+00 0.  1.
        -11    1    4    4    0    0  0.62388047787E-01  0.28866591526E-01 -0.18755527880E-01  0.71257136906E-01  0.51100000000E-03 0. -1.
         11    1    4    4    0    0  0.43265897360E-01  0.39579207005E-01 -0.10177202232E-01  0.59517124156E-01  0.51100000000E-03 0.  1.
</event>
<event>
 8    1  0.1030163E+005  0.1043930E+01  0.7957747E-01            NaN
         13   -1    0    0    0    0  0.00000000000E+00  0.00000000000E+00  0.74505805969E-08  0.10566000000E+00  0.10566000000E+00 0. -1.
     999900   -1    0    0    0    0 -0.00000000000E+00 -0.00000000000E+00 -0.74505805969E-08  0.93827000000E+00  0.93827000000E+00 0.  1.
     999902    2    1    2    0    0 -0.27331204718E-02  0.16670541387E-01 -0.16502012503E-01  0.10203144688E+01  0.10200411374E+01 0.  0.
     999903    2    3    3    0    0 -0.89639869203E-01 -0.79230525032E-01 -0.47230965909E-01  0.13031780245E+00  0.20956699351E-01 0.  0.
         14    1    1    2    0    0  0.27331204718E-02 -0.16670541387E-01  0.16502012503E-01  0.23615531209E-01  0.00000000000E+00 0. -1.
     999901    1    3    3    0    0  0.86906748732E-01  0.95901066419E-01  0.30728953406E-01  0.88999666634E+00  0.88000000000E+00 0. -1.
        -11    1    4    4    0    0 -0.38209846553E-01 -0.22562928456E-01 -0.23379218805E-01  0.50159018202E-01  0.51100000000E-03 0.  1.
         11    1    4    4    0    0 -0.51430022651E-01 -0.56667596577E-01 -0.23851747104E-01  0.80158784251E-01  0.51100000000E-03 0. -1.
</event>
<event>
 8    1  0.1030163E+005  0.1043930E+01  0.7957747E-01            NaN
         13   -1    0    0    0    0  0.00000000000E+00  0.00000000000E+00  0.74505805969E-08  0.10566000000E+00  0.10566000000E+00 0. -1.
     999900   -1    0    0    0    0 -0.00000000000E+00 -0.00000000000E+00 -0.74505805969E-08  0.93827000000E+00  0.93827000000E+00 0. -1.
     999902    2    1    2    0    0  0.68430164540E-02 -0.23183368396E-01 -0.41952390890E-02  0.10193964419E+01  0.10191011776E+01 0.  0.
     999903    2    3    3    0    0  0.80508915481E-01  0.86662949796E-01  0.45078537997E-01  0.12814968399E+00  0.19952808782E-01 0.  0.
         14    1    1    2    0    0 -0.68430164540E-02  0.23183368396E-01  0.41952390890E-02  0.24533558148E-01  0.00000000000E+00 0. -1.
     999901    1    3    3    0    0 -0.73665899028E-01 -0.10984631819E+00 -0.49273777085E-01  0.89124675787E+00  0.88000000000E+00 0.  1.
        -11    1    4    4    0    0  0.37398381573E-01  0.39096943462E-01  0.31241506716E-01  0.62478018496E-01  0.51100000000E-03 0. -1.
         11    1    4    4    0    0  0.43110533909E-01  0.47566006335E-01  0.13837031281E-01  0.65671665490E-01  0.51100000000E-03 0.  1.
</event>
<event>
 8    1  0.1030163E+005  0.1043930E+01  0.7957747E-01            NaN
         13   -1    0    0    0    0  0.00000000000E+00  0.00000000000E+00  0.74505805969E-08  0.10566000000E+00  0.10566000000E+00 0. -1.
     999900   -1    0    0    0    0 -0.00000000000E+00 -0.00000000000E+00 -0.74505805969E-08  0.93827000000E+00  0.93827000000E+00 0. -1.
     999902    2    1    2    0    0  0.54970849962E-02  0.25462443310E-01  0.14466054863E-01  0.10141336797E+01  0.10136958614E+01 0.  0.
     999903    2    3    3    0    0 -0.10027067006E+00  0.36038512265E-01 -0.61776206318E-01  0.12446432892E+00  0.17946806612E-01 0.  0.
         14    1    1    2    0    0 -0.54970849962E-02 -0.25462443310E-01 -0.14466054863E-01  0.29796320344E-01  0.00000000000E+00 0.  1.
     999901    1    3    3    0    0  0.10576775505E+00 -0.10576068955E-01  0.76242261180E-01  0.88966935073E+00  0.88000000000E+00 0.  1.
        -11    1    4    4    0    0 -0.87198621087E-01  0.32419146820E-01 -0.60175244629E-01  0.11079675892E+00  0.51100000000E-03 0.  1.
         11    1    4    4    0    0 -0.13072048969E-01  0.36193654442E-02 -0.16009616890E-02  0.13667570003E-01  0.51100000000E-03 0. -1.
</event>
<event>
 8    1  0.1030163E+005  0.1043930E+01  0.7957747E-01            NaN
         13   -1    0    0    0    0  0.00000000000E+00  0.00000000000E+00  0.74505805969E-08  0.10566000000E+00  0.10566000000E+00 0. -1.
     999900   -1    0    0    0    0 -0.00000000000E+00 -0.00000000000E+00 -0.74505805969E-08  0.93827000000E+00  0.93827000000E+00 0. -1.
     999902    2    1    2    0    0  0.21318530492E-01  0.65779981403E-02  0.78466931316E-02  0.10202800445E+01  0.10200059063E+01 0.  0.
     999903    2    3    3    0    0  0.89684269009E-01 -0.90209328518E-01  0.29448050807E-01  0.13207495588E+00  0.19890078304E-01 0.  0.
         14    1    1    2    0    0 -0.21318530492E-01 -0.65779981403E-02 -0.78466931316E-02  0.23649955496E-01  0.00000000000E+00 0.  1.
     999901    1    3    3    0    0 -0.68365738517E-01  0.96787326659E-01 -0.21601357675E-01  0.88820508862E+00  0.88000000000E+00 0. -1.
        -11    1    4    4    0    0  0.41883783935E-01 -0.45437861497E-01  0.24205085492E-01  0.66370158195E-01  0.51100000000E-03 0. -1.
         11    1    4    4    0    0  0.47800485074E-01 -0.44771467021E-01  0.52429653150E-02  0.65704797685E-01  0.51100000000E-03 0.  1.
</event>
<event>
 8    1  0.1030163E+005  0.1043930E+01  0.7957747E-01            NaN
         13   -1    0    0    0    0  0.00000000000E+00  0.00000000000E+00  0.74505805969E-08  0.10566000000E+00  0.10566000000E+00 0. -1.
     999900   -1    0    0    0    0 -0.00000000000E+00 -0.00000000000E+00 -0.74505805969E-08  0.93827000000E+00  0.93827000000E+00 0.  1.
     999902    2    1    2    0    0 -0.34100228483E-02 -0.10411849708E-01  0.19436727649E-01  0.10216180917E+01  0.10213744191E+01 0.  0.
     999903    2    3    3    0    0 -0.34883293183E-01 -0.89085452902E-01  0.92603490995E-01  0.13452538074E+00  0.19199204584E-01 0.  0.
         14    1    1    2    0    0  0.34100228483E-02  0.10411849708E-01 -0.19436727649E-01  0.22311908297E-01  0.00000000000E+00 0.  1.
     999901    1    3    3    0    0  0.31473270335E-01  0.78673603194E-01 -0.73166763346E-01  0.88709271096E+00  0.88000000000E+00 0.  1.
        -11    1    4    4    0    0 -0.15393211934E-01 -0.60112241059E-01  0.51926128898E-01  0.80913635946E-01  0.51100000000E-03 0. -1.
         11    1    4    4    0    0 -0.19490081249E-01 -0.28973211843E-01  0.40677362097E-01  0.53611744794E-01  0.51100000000E-03 0.  1.
</event>
<event>
 8    1  0.1030163E+005  0.1043930E+01  0.7957747E-01            NaN
         13   -1    0    0    0    0  0.00000000000E+00  0.00000000000E+00  0.74505805969E-08  0.10566000000E+00  0.10566000000E+00 0.  1.
     999900   -1    0    0    0    0 -0.00000000000E+00 -0.00000000000E+00 -0.74505805969E-08  0.93827000000E+00  0.93827000000E+00 0.  1.
     999902    2    1    2    0    0 -0.10280690556E-01  0.26500546717E-01  0.66301811181E-02  0.10147421451E+01  0.10143222812E+01 0.  0.
     999903    2    3    3    0    0  0.11638757361E+00  0.42108310995E-01 -0.31745692989E-02  0.12548144954E+00  0.20404390300E-01 0.  0.
         14    1    1    2    0    0  0.10280690556E-01 -0.26500546717E-01 -0.66301811181E-02  0.29187854945E-01  0.00000000000E+00 0. -1.
     999901    1    3    3    0    0 -0.12666826417E+00 -0.15607764278E-01  0.98047504170E-02  0.88926069551E+00  0.88000000000E+00 0.  1.
        -11    1    4    4    0    0  0.47749391485E-01  0.18998719225E-01  0.85916713924E-02  0.52105984855E-01  0.51100000000E-03 0. -1.
         11    1    4    4    0    0  0.68638182124E-01  0.23109591771E-01 -0.11766240691E-01  0.73375464688E-01  0.51100000000E-03 0.  1.
</event>
<event>
 8    1  0.1030163E+005  0.1043930E+01  0.7957747E-01            NaN
         13   -1    0    0    0    0  0.00000000000E+00  0.00000000000E+00  0.74505805969E-08  0.10566000000E+00  0.10566000000E+00 0. -1.
     999900   -1    0    0    0    0 -0.00000000000E+00 -0.00000000000E+00 -0.74505805969E-08  0.93827000000E+00  0.93827000000E+00 0.  1.
     999902    2    1    2    0    0 -0.88601098658E-02 -0.62576812543E-02  0.15153639084E-01  0.10252942038E+01  0.10251248273E+01 0.  0.
     999903    2    3    3    0    0 -0.87999178244E-01 -0.92478443519E-01  0.45646662474E-01  0.13702237805E+00  0.19884577058E-01 0.  0.
         14    1    1    2    0    0  0.88601098658E-02  0.62576812543E-02 -0.15153639084E-01  0.18635796173E-01  0.00000000000E+00 0.  1.
     999901    1    3    3    0    0  0.79139068378E-01  0.86220762264E-01 -0.30493023389E-01  0.88827182577E+00  0.88000000000E+00 0. -1.
        -11    1    4    4    0    0 -0.56621774396E-01 -0.48133094538E-01  0.32591348301E-01  0.81149721075E-01  0.51100000000E-03 0. -1.
         11    1    4    4    0    0 -0.31377403849E-01 -0.44345348981E-01  0.13055314173E-01  0.55872656977E-01  0.51100000000E-03 0.  1.
</event>
<event>
 8    1  0.1030163E+005  0.1043930E+01  0.7957747E-01            NaN
         13   -1    0    0    0    0  0.00000000000E+00  0.00000000000E+00  0.74505805969E-08  0.10566000000E+00  0.10566000000E+00 0.  1.
     999900   -1    0    0    0    0 -0.00000000000E+00 -0.00000000000E+00 -0.74505805969E-08  0.93827000000E+00  0.93827000000E+00 0.  1.
     999902    2    1    2    0    0  0.14188620299E-01  0.70350204032E-02  0.18594212685E-01  0.10195055613E+01  0.10192129495E+01 0.  0.
     999903    2    3    3    0    0  0.53007350207E-02 -0.11461292328E+00  0.58163205483E-01  0.13021206542E+00  0.20199097367E-01 0.  0.
         14    1    1    2    0    0 -0.14188620299E-01 -0.70350204032E-02 -0.18594212685E-01  0.24424438652E-01  0.00000000000E+00 0. -1.
     999901    1    3    3    0    0  0.88878852787E-02  0.12164794368E+00 -0.39568992799E-01  0.88929349593E+00  0.88000000000E+00 0. -1.
        -11    1    4    4    0    0 -0.72488425287E-02 -0.28407179899E-01  0.16507117310E-01  0.33649065822E-01  0.51100000000E-03 0. -1.
         11    1    4    4    0    0  0.12549577549E-01 -0.86205743382E-01  0.41656088174E-01  0.96562999599E-01  0.51100000000E-03 0.  1.
</event>
<event>
 8    1  0.1030163E+005  0.1043930E+01  0.7957747E-01            NaN
         13   -1    0    0    0    0  0.00000000000E+00  0.00000000000E+00  0.74505805969E-08  0.10566000000E+00  0.10566000000E+00 0. -1.
     999900   -1    0    0    0    0 -0.00000000000E+00 -0.00000000000E+00 -0.74505805969E-08  0.93827000000E+00  0.93827000000E+00 0.  1.
     999902    2    1    2    0    0 -0.11685283181E-01 -0.21040835225E-01  0.29791026769E-02  0.10196784507E+01  0.10193900162E+01 0.  0.
     999903    2    3    3    0    0  0.77844566880E-01  0.15333939902E-01 -0.99067041505E-01  0.12852631227E+00  0.20244207235E-01 0.  0.
         14    1    1    2    0    0  0.11685283181E-01  0.21040835225E-01 -0.29791026769E-02  0.24251549286E-01  0.00000000000E+00 0. -1.
     999901    1    3    3    0    0 -0.89529850061E-01 -0.36374775128E-01  0.10204614418E+00  0.89115213845E+00  0.88000000000E+00 0. -1.
        -11    1    4    4    0    0  0.27989587716E-01  0.90919340535E-02 -0.51598182624E-01  0.59402978515E-01  0.51100000000E-03 0. -1.
         11    1    4    4    0    0  0.49854979164E-01  0.62420058488E-02 -0.47468858881E-01  0.69123333751E-01  0.51100000000E-03 0.  1.
</event>
<event>
 8    1  0.1030163E+005  0.1043930E+01  0.7957747E-01            NaN
         13   -1    0    0    0    0  0.00000000000E+00  0.00000000000E+00  0.74505805969E-08  0.10566000000E+00  0.10566000000E+00 0.  1.
     999900   -1    0    0    0    0 -0.00000000000E+00 -0.00000000000E+00 -0.74505805969E-08  0.93827000000E+00  0.93827000000E+00 0. -1.
     999902    2    1    2    0    0  0.22703074450E-01  0.14314072731E-02  0.84095174895E-02  0.10196771960E+01  0.10193887313E+01 0.  0.
     999903    2    3    3    0    0  0.23403933174E-01  0.12470526217E+00  0.25502364681E-01  0.13092014265E+00  0.19762759023E-01 0.  0.
         14    1    1    2    0    0 -0.22703074450E-01 -0.14314072731E-02 -0.84095174895E-02  0.24252803976E-01  0.00000000000E+00 0. -1.
     999901    1    3    3    0    0 -0.70085872328E-03 -0.12327385490E+00 -0.17092847192E-01  0.88875705338E+00  0.88000000000E+00 0.  1.
        -11    1    4    4    0    0 -0.10134496956E-02  0.34553759754E-01  0.21233991692E-02  0.34637542327E-01  0.51100000000E-03 0. -1.
         11    1    4    4    0    0  0.24417382869E-01  0.90151502420E-01  0.23378965512E-01  0.96282600319E-01  0.51100000000E-03 0.  1.
</event>
<event>
 8    1  0.1030163E+005  0.1043930E+01  0.7957747E-01            NaN
         13   -1    0    0    0    0  0.00000000000E+00  0.00000000000E+00  0.74505805969E-08  0.10566000000E+00  0.10566000000E+00 0.  1.
     999900   -1    0    0    0    0 -0.00000000000E+00 -0.00000000000E+00 -0.74505805969E-08  0.93827000000E+00  0.93827000000E+00 0. -1.
     999902    2    1    2    0    0  0.12280959842E-01  0.12522745747E-01  0.16154188569E-01  0.10200846872E+01  0.10198059473E+01 0.  0.
     999903    2    3    3    0    0  0.11143563182E+00  0.57945244065E-01 -0.33068341338E-01  0.13198688300E+00  0.23483414066E-01 0.  0.
         14    1    1    2    0    0 -0.12280959842E-01 -0.12522745747E-01 -0.16154188569E-01  0.23845312831E-01  0.00000000000E+00 0. -1.
     999901    1    3    3    0    0 -0.99154671973E-01 -0.45422498318E-01  0.49222529907E-01  0.88809780417E+00  0.88000000000E+00 0.  1.
        -11    1    4    4    0    0  0.76297232189E-01  0.51488876122E-01 -0.23873110328E-01  0.95092368367E-01  0.51100000000E-03 0. -1.
         11    1    4    4    0    0  0.35138399626E-01  0.64563679427E-02 -0.91952310108E-02  0.36894514628E-01  0.51100000000E-03 0.  1.
</event>
<event>
 8    1  0.1030163E+005  0.1043930E+01  0.7957747E-01            NaN
         13   -1    0    0    0    0  0.00000000000E+00  0.00000000000E+00  0.74505805969E-08  0.10566000000E+00  0.10566000000E+00 0.  1.
     999900   -1    0    0    0    0 -0.00000000000E+00 -0.00000000000E+00 -0.74505805969E-08  0.93827000000E+00  0.93827000000E+00 0. -1.
     999902    2    1    2    0    0  0.22026226059E-01 -0.78556872636E-02  0.18757771622E-01  0.10139513334E+01  0.10135080592E+01 0.  0.
     999903    2    3    3    0    0  0.55985773561E-01 -0.11174674254E+00 -0.75702764514E-02  0.12679871496E+00  0.19971572842E-01 0.  0.
         14    1    1    2    0    0 -0.22026226059E-01  0.78556872636E-02 -0.18757771622E-01  0.29978666632E-01  0.00000000000E+00 0. -1.
     999901    1    3    3    0    0 -0.33959547502E-01  0.10389105527E+00  0.26328048074E-01  0.88715261841E+00  0.88000000000E+00 0. -1.
        -11    1    4    4    0    0  0.11210012051E-01 -0.35453788286E-01  0.47205394468E-02  0.37485731788E-01  0.51100000000E-03 0. -1.
         11    1    4    4    0    0  0.44775761509E-01 -0.76292954250E-01 -0.12290815898E-01  0.89312983173E-01  0.51100000000E-03 0.  1.
</event>
<event>
 8    1  0.1030163E+005  0.1043930E+01  0.7957747E-01            NaN
         13   -1    0    0    0    0  0.00000000000E+00  0.00000000000E+00  0.74505805969E-08  0.10566000000E+00  0.10566000000E+00 0. -1.
     999900   -1    0    0    0    0 -0.00000000000E+00 -0.00000000000E+00 -0.74505805969E-08  0.93827000000E+00  0.93827000000E+00 0.  1.
     999902    2    1    2    0    0 -0.34209965308E-02 -0.19829572360E-01 -0.10301979963E-01  0.10213236746E+01  0.10210734559E+01 0.  0.
     999903    2    3    3    0    0  0.12094896023E+00  0.30809764730E-01  0.30878271468E-01  0.13018505366E+00  0.20415385510E-01 0.  0.
         14    1    1    2    0    0  0.34209965308E-02  0.19829572360E-01  0.10301979963E-01  0.22606325407E-01  0.00000000000E+00 0. -1.
     999901    1    3    3    0    0 -0.12436995676E+00 -0.50639337090E-01 -0.41180251432E-01  0.89113862093E+00  0.88000000000E+00 0.  1.
        -11    1    4    4    0    0  0.49797194644E-01  0.62482814929E-02  0.43691659757E-02  0.50380078884E-01  0.51100000000E-03 0. -1.
         11    1    4    4    0    0  0.71151765583E-01  0.24561483237E-01  0.26509105493E-01  0.79804974779E-01  0.51100000000E-03 0.  1.
</event>
<event>
 8    1  0.1030163E+005  0.1043930E+01  0.7957747E-01            NaN
         13   -1    0    0    0    0  0.00000000000E+00  0.00000000000E+00  0.74505805969E-08  0.10566000000E+00  0.10566000000E+00 0.  1.
     999900   -1    0    0    0    0 -0.00000000000E+00 -0.00000000000E+00 -0.74505805969E-08  0.93827000000E+00  0.93827000000E+00 0. -1.
     999902    2    1    2    0    0 -0.59402111871E-02  0.22300846488E-01 -0.64807328104E-02  0.10199588974E+01  0.10196771737E+01 0.  0.
     999903    2    3    3    0    0 -0.88580194636E-01 -0.91199313504E-02 -0.94167470918E-01  0.13119256353E+00  0.20355640920E-01 0.  0.
         14    1    1    2    0    0  0.59402111871E-02 -0.22300846488E-01  0.64807328104E-02  0.23971102619E-01  0.00000000000E+00 0.  1.
     999901    1    3    3    0    0  0.82639983448E-01  0.31420777838E-01  0.87686738108E-01  0.88876633385E+00  0.88000000000E+00 0.  1.
        -11    1    4    4    0    0 -0.58451424358E-01 -0.11195246725E-01 -0.73589400465E-01  0.94644405753E-01  0.51100000000E-03 0. -1.
         11    1    4    4    0    0 -0.30128770278E-01  0.20753153746E-02 -0.20578070454E-01  0.36548157778E-01  0.51100000000E-03 0.  1.
</event>
<event>
 8    1  0.1030163E+005  0.1043930E+01  0.7957747E-01            NaN
         13   -1    0    0    0    0  0.00000000000E+00  0.00000000000E+00  0.74505805969E-08  0.10566000000E+00  0.10566000000E+00 0. -1.
     999900   -1    0    0    0    0 -0.00000000000E+00 -0.00000000000E+00 -0.74505805969E-08  0.93827000000E+00  0.93827000000E+00 0.  1.
     999902    2    1    2    0    0 -0.68598205518E-02 -0.24700659589E-02  0.22745326264E-01  0.10200446859E+01  0.10197649989E+01 0.  0.
     999903    2    3    3    0    0  0.10661338088E+00  0.68126390930E-01 -0.15577028613E-01  0.12913019500E+00  0.20599643623E-01 0.  0.
         14    1    1    2    0    0  0.68598205518E-02  0.24700659589E-02 -0.22745326264E-01  0.23885314122E-01  0.00000000000E+00 0.  1.
     999901    1    3    3    0    0 -0.11347320143E+00 -0.70596456889E-01  0.38322354877E-01  0.89091449088E+00  0.88000000000E+00 0.  1.
        -11    1    4    4    0    0  0.31600774434E-01  0.15884709549E-01 -0.12985361484E-01  0.37680415021E-01  0.51100000000E-03 0.  1.
         11    1    4    4    0    0  0.75012606445E-01  0.52241681381E-01 -0.25916671295E-02  0.91449779982E-01  0.51100000000E-03 0. -1.
</event>
<event>
 8    1  0.1030163E+005  0.1043930E+01  0.7957747E-01            NaN
         13   -1    0    0    0    0  0.00000000000E+00  0.00000000000E+00  0.74505805969E-08  0.10566000000E+00  0.10566000000E+00 0.  1.
     999900   -1    0    0    0    0 -0.00000000000E+00 -0.00000000000E+00 -0.74505805969E-08  0.93827000000E+00  0.93827000000E+00 0.  1.
     999902    2    1    2    0    0  0.18141049171E-02  0.22621993501E-01 -0.63722738155E-02  0.10203577400E+01  0.10200854210E+01 0.  0.
     999903    2    3    3    0    0  0.60038343023E-01  0.35116489726E-01 -0.11073325170E+00  0.13219255942E+00  0.19371351269E-01 0.  0.
         14    1    1    2    0    0 -0.18141049171E-02 -0.22621993501E-01  0.63722738155E-02  0.23572259972E-01  0.00000000000E+00 0.  1.
     999901    1    3    3    0    0 -0.58224238106E-01 -0.12494496225E-01  0.10436097789E+00  0.88816518061E+00  0.88000000000E+00 0.  1.
        -11    1    4    4    0    0  0.27391513881E-01  0.25992240218E-01 -0.50286397977E-01  0.62887793146E-01  0.51100000000E-03 0. -1.
         11    1    4    4    0    0  0.32646829142E-01  0.91242495075E-02 -0.60446853725E-01  0.69304766274E-01  0.51100000000E-03 0.  1.
</event>
<event>
 8    1  0.1030163E+005  0.1043930E+01  0.7957747E-01            NaN
         13   -1    0    0    0    0  0.00000000000E+00  0.00000000000E+00  0.74505805969E-08  0.10566000000E+00  0.10566000000E+00 0. -1.
     999900   -1    0    0    0    0 -0.00000000000E+00 -0.00000000000E+00 -0.74505805969E-08  0.93827000000E+00  0.93827000000E+00 0. -1.
     999902    2    1    2    0    0  0.20060364698E-01 -0.17563436380E-01  0.73688511105E-03  0.10172572512E+01  0.10169075079E+01 0.  0.
     999903    2    3    3    0    0  0.97488415265E-01 -0.76798546128E-01  0.37390949374E-01  0.13111537673E+00  0.19777540867E-01 0.  0.
         14    1    1    2    0    0 -0.20060364698E-01  0.17563436380E-01 -0.73688511105E-03  0.26672748808E-01  0.00000000000E+00 0.  1.
     999901    1    3    3    0    0 -0.77428050567E-01  0.59235109748E-01 -0.36654064263E-01  0.88614187446E+00  0.88000000000E+00 0.  1.
        -11    1    4    4    0    0  0.61092238207E-02 -0.39805509157E-02  0.75731204089E-02  0.10525239903E-01  0.51100000000E-03 0.  1.
         11    1    4    4    0    0  0.91379191444E-01 -0.72817995212E-01  0.29817828965E-01  0.12059013683E+00  0.51100000000E-03 0. -1.
</event>
<event>
 8    1  0.1030163E+005  0.1043930E+01  0.7957747E-01            NaN
         13   -1    0    0    0    0  0.00000000000E+00  0.00000000000E+00  0.74505805969E-08  0.10566000000E+00  0.10566000000E+00 0. -1.
     999900   -1    0    0    0    0 -0.00000000000E+00 -0.00000000000E+00 -0.74505805969E-08  0.93827000000E+00  0.93827000000E+00 0.  1.
     999902    2    1    2    0    0  0.11242856101E-01  0.15658279661E-01  0.25186084497E-03  0.10246518525E+01  0.10244704837E+01 0.  0.
     999903    2    3    3    0    0 -0.72272666524E-01  0.11229442288E+00  0.99103566933E-02  0.13537873745E+00  0.19895015647E-01 0.  0.
         14    1    1    2    0    0 -0.11242856101E-01 -0.15658279661E-01 -0.25186084497E-03  0.19278147451E-01  0.00000000000E+00 0. -1.
     999901    1    3    3    0    0  0.83515522626E-01 -0.96636143218E-01 -0.96584958483E-02  0.88927311510E+00  0.88000000000E+00 0. -1.
        -11    1    4    4    0    0 -0.58508749170E-01  0.86920695321E-01 -0.22700627366E-03  0.10477973877E+00  0.51100000000E-03 0. -1.
         11    1    4    4    0    0 -0.13763917355E-01  0.25373727558E-01  0.10137362967E-01  0.30598998677E-01  0.51100000000E-03 0.  1.
</event>
<event>
 8    1  0.1030163E+005  0.1043930E+01  0.7957747E-01            NaN
         13   -1    0    0    0    0  0.00000000000E+00  0.00000000000E+00  0.74505805969E-08  0.10566000000E+00  0.10566000000E+00 0.  1.
     999900   -1    0    0    0    0 -0.00000000000E+00 -0.00000000000E+00 -0.74505805969E-08  0.93827000000E+00  0.93827000000E+00 0. -1.
     999902    2    1    2    0    0  0.62549192983E-02 -0.24271869559E-01 -0.20552877461E-02  0.10187810065E+01  0.10184705530E+01 0.  0.
     999903    2    3    3    0    0 -0.15677979135E-01  0.79512145531E-01 -0.95452225662E-01  0.12750374219E+00  0.24043638932E-01 0.  0.
         14    1    1    2    0    0 -0.62549192983E-02  0.24271869559E-01  0.20552877461E-02  0.25148993519E-01  0.00000000000E+00 0.  1.
     999901    1    3    3    0    0  0.21932898434E-01 -0.10378401509E+00  0.93396937915E-01  0.89127726429E+00  0.88000000000E+00 0.  1.
        -11    1    4    4    0    0 -0.15032677398E-01  0.23919720865E-01 -0.24776840877E-01  0.37580412463E-01  0.51100000000E-03 0. -1.
         11    1    4    4    0    0 -0.64530173693E-03  0.55592424666E-01 -0.70675384785E-01  0.89923329732E-01  0.51100000000E-03 0.  1.
</event>
<event>
 8    1  0.1030163E+005  0.1043930E+01  0.7957747E-01            NaN
         13   -1    0    0    0    0  0.00000000000E+00  0.00000000000E+00  0.74505805969E-08  0.10566000000E+00  0.10566000000E+00 0. -1.
     999900   -1    0    0    0    0 -0.00000000000E+00 -0.00000000000E+00 -0.74505805969E-08  0.93827000000E+00  0.93827000000E+00 0. -1.
     999902    2    1    2    0    0  0.17891523491E-02 -0.21788032955E-01 -0.49235408537E-02  0.10215210576E+01  0.10212752373E+01 0.  0.
     999903    2    3    3    0    0  0.60839573593E-03 -0.60588632576E-01 -0.11729866727E+00  0.13352609714E+00  0.19972198966E-01 0.  0.
         14    1    1    2    0    0 -0.17891523491E-02  0.21788032955E-01  0.49235408537E-02  0.22408942427E-01  0.00000000000E+00 0.  1.
     999901    1    3    3    0    0  0.11807566132E-02  0.38800599621E-01  0.11237512642E+00  0.88799496043E+00  0.88000000000E+00 0.  1.
        -11    1    4    4    0    0 -0.85419874458E-02 -0.31783462635E-01 -0.51559000481E-01  0.61169810350E-01  0.51100000000E-03 0.  1.
         11    1    4    4    0    0  0.91503831817E-02 -0.28805169941E-01 -0.65739666788E-01  0.72356286790E-01  0.51100000000E-03 0. -1.
</event>
<event>
 8    1  0.1030163E+005  0.1043930E+01  0.7957747E-01            NaN
         13   -1    0    0    0    0  0.00000000000E+00  0.00000000000E+00  0.74505805969E-08  0.10566000000E+00  0.10566000000E+00 0. -1.
     999900   -1    0    0    0    0 -0.00000000000E+00 -0.00000000000E+00 -0.74505805969E-08  0.93827000000E+00  0.93827000000E+00 0. -1.
     999902    2    1    2    0    0 -0.76965331447E-02 -0.12216958899E-01  0.25543106097E-01  0.10145882043E+01  0.10141638345E+01 0.  0.
     999903    2    3    3    0    0 -0.30650478579E-01 -0.11415127264E+00  0.46283611278E-01  0.12816412040E+00  0.17717341801E-01 0.  0.
         14    1    1    2    0    0  0.76965331447E-02  0.12216958899E-01 -0.25543106097E-01  0.29341795723E-01  0.00000000000E+00 0.  1.
     999901    1    3    3    0    0  0.22953945434E-01  0.10193431375E+00 -0.20740505181E-01  0.88642408388E+00  0.88000000000E+00 0.  1.
        -11    1    4    4    0    0 -0.18907984532E-01 -0.71755649845E-01  0.19760198495E-01  0.76792654137E-01  0.51100000000E-03 0. -1.
         11    1    4    4    0    0 -0.11742494047E-01 -0.42395622798E-01  0.26523412783E-01  0.51371466259E-01  0.51100000000E-03 0.  1.
</event>
<event>
 8    1  0.1030163E+005  0.1043930E+01  0.7957747E-01            NaN
         13   -1    0    0    0    0  0.00000000000E+00  0.00000000000E+00  0.74505805969E-08  0.10566000000E+00  0.10566000000E+00 0.  1.
     999900   -1    0    0    0    0 -0.00000000000E+00 -0.00000000000E+00 -0.74505805969E-08  0.93827000000E+00  0.93827000000E+00 0. -1.
     999902    2    1    2    0    0  0.14646104081E-01  0.40185738866E-02  0.17375235434E-01  0.10208528228E+01  0.10205919506E+01 0.  0.
     999903    2    3    3    0    0  0.60041604331E-01  0.94519295897E-01 -0.65509749979E-01  0.13117813342E+00  0.19423794628E-01 0.  0.
         14    1    1    2    0    0 -0.14646104081E-01 -0.40185738866E-02 -0.17375235434E-01  0.23077177194E-01  0.00000000000E+00 0. -1.
     999901    1    3    3    0    0 -0.45395500249E-01 -0.90500722011E-01  0.82884985413E-01  0.88967468939E+00  0.88000000000E+00 0.  1.
        -11    1    4    4    0    0  0.47480973394E-01  0.63772624032E-01 -0.38368343229E-01  0.88282395150E-01  0.51100000000E-03 0. -1.
         11    1    4    4    0    0  0.12560630936E-01  0.30746671866E-01 -0.27141406750E-01  0.42895738270E-01  0.51100000000E-03 0.  1.
</event>
<event>
 8    1  0.1030163E+005  0.1043930E+01  0.7957747E-01            NaN
         13   -1    0    0    0    0  0.00000000000E+00  0.00000000000E+00  0.74505805969E-08  0.10566000000E+00  0.10566000000E+00 0. -1.
     999900   -1    0    0    0    0 -0.00000000000E+00 -0.00000000000E+00 -0.74505805969E-08  0.93827000000E+00  0.93827000000E+00 0.  1.
     999902    2    1    2    0    0  0.53657055655E-02  0.19338568208E-01 -0.52370403234E-02  0.10231887944E+01  0.10229785489E+01 0.  0.
     999903    2    3    3    0    0 -0.26681371190E-01 -0.26601408273E-01 -0.12620622829E+00  0.13314888466E+00  0.19521345657E-01 0.  0.
         14    1    1    2    0    0 -0.53657055655E-02 -0.19338568208E-01  0.52370403234E-02  0.20741205555E-01  0.00000000000E+00 0. -1.
     999901    1    3    3    0    0  0.32047076756E-01  0.45939976481E-01  0.12096918797E+00  0.89003990978E+00  0.88000000000E+00 0. -1.
        -11    1    4    4    0    0 -0.20452564560E-01 -0.13847035195E-01 -0.10316520425E+00  0.10608189416E+00  0.51100000000E-03 0. -1.
         11    1    4    4    0    0 -0.62288066301E-02 -0.12754373078E-01 -0.23041024046E-01  0.27066990500E-01  0.51100000000E-03 0.  1.
</event>
<event>
 8    1  0.1030163E+005  0.1043930E+01  0.7957747E-01            NaN
         13   -1    0    0    0    0  0.00000000000E+00  0.00000000000E+00  0.74505805969E-08  0.10566000000E+00  0.10566000000E+00 0. -1.
     999900   -1    0    0    0    0 -0.00000000000E+00 -0.00000000000E+00 -0.74505805969E-08  0.93827000000E+00  0.93827000000E+00 0. -1.
     999902    2    1    2    0    0  0.14984258269E-01  0.14673316314E-01 -0.11114460920E-01  0.10201946793E+01  0.10199185351E+01 0.  0.
     999903    2    3    3    0    0 -0.56938136093E-01  0.11277059438E+00 -0.30759479463E-01  0.13161050572E+00  0.20396601207E-01 0.  0.
         14    1    1    2    0    0 -0.14984258269E-01 -0.14673316314E-01  0.11114460920E-01  0.23735320708E-01  0.00000000000E+00 0.  1.
     999901    1    3    3    0    0  0.71922394362E-01 -0.98097278062E-01  0.19645018543E-01  0.88858417357E+00  0.88000000000E+00 0. -1.
        -11    1    4    4    0    0 -0.45643933760E-01  0.92331610225E-01 -0.16688275698E-01  0.10434200785E+00  0.51100000000E-03 0.  1.
         11    1    4    4    0    0 -0.11294202333E-01  0.20438984151E-01 -0.14071203764E-01  0.27268497866E-01  0.51100000000E-03 0. -1.
</event>
<event>
 8    1  0.1030163E+005  0.1043930E+01  0.7957747E-01            NaN
         13   -1    0    0    0    0  0.00000000000E+00  0.00000000000E+00  0.74505805969E-08  0.10566000000E+00  0.10566000000E+00 0. -1.
     999900   -1    0    0    0    0 -0.00000000000E+00 -0.00000000000E+00 -0.74505805969E-08  0.93827000000E+00  0.93827000000E+00 0. -1.
     999902    2    1    2    0    0 -0.11542705992E-01  0.11925727872E-01 -0.16373924431E-01  0.10206155742E+01  0.10203492480E+01 0.  0.
     999903    2    3    3    0    0 -0.29854335993E-01  0.31232488052E-01 -0.12487273172E+00  0.13355297332E+00  0.19402264505E-01 0.  0.
         14    1    1    2    0    0  0.11542705992E-01 -0.11925727872E-01  0.16373924431E-01  0.23314425752E-01  0.00000000000E+00 0. -1.
     999901    1    3    3    0    0  0.18311630001E-01 -0.19306760180E-01  0.10849880729E+00  0.88706260093E+00  0.88000000000E+00 0.  1.
        -11    1    4    4    0    0 -0.34775883561E-02  0.17046306648E-01 -0.46676405546E-01  0.49815842328E-01  0.51100000000E-03 0.  1.
         11    1    4    4    0    0 -0.26376747637E-01  0.14186181403E-01 -0.78196326174E-01  0.83737130992E-01  0.51100000000E-03 0. -1.
</event>
<event>
 8    1  0.1030163E+005  0.1043930E+01  0.7957747E-01            NaN
         13   -1    0    0    0    0  0.00000000000E+00  0.00000000000E+00  0.74505805969E-08  0.10566000000E+00  0.10566000000E+00 0.  1.
     999900   -1    0    0    0    0 -0.00000000000E+00 -0.00000000000E+00 -0.74505805969E-08  0.93827000000E+00  0.93827000000E+00 0. -1.
     999902    2    1    2    0    0  0.13574740119E-01  0.60910912676E-02 -0.18508349921E-01  0.10201827059E+01  0.10199062797E+01 0.  0.
     999903    2    3    3    0    0 -0.90184353668E-01  0.88036179914E-01  0.20054021306E-01  0.12947062917E+00  0.21837889676E-01 0.  0.
         14    1    1    2    0    0 -0.13574740119E-01 -0.60910912676E-02  0.18508349921E-01  0.23747294139E-01  0.00000000000E+00 0. -1.
     999901    1    3    3    0    0  0.10375909379E+00 -0.81945088646E-01 -0.38562371227E-01  0.89071207670E+00  0.88000000000E+00 0. -1.
        -11    1    4    4    0    0 -0.53940182121E-01  0.41170071923E-01  0.17917030763E-01  0.70184037941E-01  0.51100000000E-03 0.  1.
         11    1    4    4    0    0 -0.36244171548E-01  0.46866107991E-01  0.21369905429E-02  0.59286591224E-01  0.51100000000E-03 0. -1.
</event>
<event>
 8    1  0.1030163E+005  0.1043930E+01  0.7957747E-01            NaN
         13   -1    0    0    0    0  0.00000000000E+00  0.00000000000E+00  0.74505805969E-08  0.10566000000E+00  0.10566000000E+00 0.  1.
     999900   -1    0    0    0    0 -0.00000000000E+00 -0.00000000000E+00 -0.74505805969E-08  0.93827000000E+00  0.93827000000E+00 0.  1.
     999902    2    1    2    0    0  0.21143818358E-01 -0.50149224419E-02 -0.99961621346E-02  0.10200106823E+01  0.10197301889E+01 0.  0.
     999903    2    3    3    0    0 -0.47134788780E-01 -0.11302350230E+00 -0.39807441256E-01  0.13028233394E+00  0.19820539157E-01 0.  0.
         14    1    1    2    0    0 -0.21143818358E-01  0.50149224419E-02  0.99961621346E-02  0.23919317701E-01  0.00000000000E+00 0.  1.
     999901    1    3    3    0    0  0.68278607138E-01  0.10800857985E+00  0.29811279121E-01  0.88972834836E+00  0.88000000000E+00 0. -1.
        -11    1    4    4    0    0 -0.33311635412E-01 -0.69465756774E-01 -0.34010334354E-01  0.84214727821E-01  0.51100000000E-03 0.  1.
         11    1    4    4    0    0 -0.13823153368E-01 -0.43557745521E-01 -0.57971069016E-02  0.46067606117E-01  0.51100000000E-03 0. -1.
</event>
<event>
 8    1  0.1030163E+005  0.1043930E+01  0.7957747E-01            NaN
         13   -1    0    0    0    0  0.00000000000E+00  0.00000000000E+00  0.74505805969E-08  0.10566000000E+00  0.10566000000E+00 0.  1.
     999900   -1    0    0    0    0 -0.00000000000E+00 -0.00000000000E+00 -0.74505805969E-08  0.93827000000E+00  0.93827000000E+00 0. -1.
     999902    2    1    2    0    0  0.22759125504E-01  0.58794869404E-02  0.98032211435E-03  0.10204032664E+01  0.10201320106E+01 0.  0.
     999903    2    3    3    0    0 -0.63787701023E-01 -0.91888692198E-01 -0.60431852363E-01  0.12865194169E+00  0.19670047374E-01 0.  0.
         14    1    1    2    0    0 -0.22759125504E-01 -0.58794869404E-02 -0.98032211435E-03  0.23526733557E-01  0.00000000000E+00 0. -1.
     999901    1    3    3    0    0  0.86546826527E-01  0.97768179138E-01  0.61412174478E-01  0.89175132476E+00  0.88000000000E+00 0.  1.
        -11    1    4    4    0    0 -0.34800103405E-01 -0.56590491914E-01 -0.45776996064E-01  0.80680390813E-01  0.51100000000E-03 0. -1.
         11    1    4    4    0    0 -0.28987597618E-01 -0.35298200284E-01 -0.14654856299E-01  0.47971550872E-01  0.51100000000E-03 0.  1.
</event>
<event>
 8    1  0.1030163E+005  0.1043930E+01  0.7957747E-01            NaN
         13   -1    0    0    0    0  0.00000000000E+00  0.00000000000E+00  0.74505805969E-08  0.10566000000E+00  0.10566000000E+00 0. -1.
     999900   -1    0    0    0    0 -0.00000000000E+00 -0.00000000000E+00 -0.74505805969E-08  0.93827000000E+00  0.93827000000E+00 0.  1.
     999902    2    1    2    0    0 -0.24538781914E-01  0.45526959323E-02  0.33887877479E-03  0.10189701583E+01  0.10186644147E+01 0.  0.
     999903    2    3    3    0    0 -0.40593051752E-02 -0.46311928756E-01 -0.11886770838E+00  0.12924164386E+00  0.20312501268E-01 0.  0.
         14    1    1    2    0    0  0.24538781914E-01 -0.45526959323E-02 -0.33887877479E-03  0.24959841684E-01  0.00000000000E+00 0.  1.
     999901    1    3    3    0    0 -0.20479476739E-01  0.50864624689E-01  0.11920658716E+00  0.88972851445E+00  0.88000000000E+00 0.  1.
        -11    1    4    4    0    0 -0.10971217463E-01 -0.28563998570E-01 -0.85575383164E-01  0.90882764877E-01  0.51100000000E-03 0. -1.
         11    1    4    4    0    0  0.69119122882E-02 -0.17747930186E-01 -0.33292325219E-01  0.38358878984E-01  0.51100000000E-03 0.  1.
</event>
<event>
 8    1  0.1030163E+005  0.1043930E+01  0.7957747E-01            NaN
         13   -1    0    0    0    0  0.00000000000E+00  0.00000000000E+00  0.74505805969E-08  0.10566000000E+00  0.10566000000E+00 0. -1.
     999900   -1    0    0    0    0 -0.00000000000E+00 -0.00000000000E+00 -0.74505805969E-08  0.93827000000E+00  0.93827000000E+00 0. -1.
     999902    2    1    2    0    0 -0.16414841436E-01 -0.11577740768E-02 -0.15377751673E-01  0.10214075067E+01  0.10211591609E+01 0.  0.
     999903    2    3    3    0    0  0.11707142263E+00  0.17494057870E-02 -0.54217009940E-01  0.13048914767E+00  0.19471904784E-01 0.  0.
         14    1    1    2    0    0  0.16414841436E-01  0.11577740768E-02  0.15377751673E-01  0.22522493350E-01  0.00000000000E+00 0. -1.
     999901    1    3    3    0    0 -0.13348626406E+00 -0.29071798638E-02  0.38839258268E-01  0.89091835898E+00  0.88000000000E+00 0.  1.
        -11    1    4    4    0    0  0.73115669988E-02 -0.47528067580E-02 -0.42575516646E-02  0.97178213213E-02  0.51100000000E-03 0. -1.
         11    1    4    4    0    0  0.10975985563E+00  0.65022125450E-02 -0.49959458276E-01  0.12077132635E+00  0.51100000000E-03 0.  1.
</event>
<event>
 8    1  0.1030163E+005  0.1043930E+01  0.7957747E-01            NaN
         13   -1    0    0    0    0  0.00000000000E+00  0.00000000000E+00  0.74505805969E-08  0.10566000000E+00  0.10566000000E+00 0. -1.
     999900   -1    0    0    0    0 -0.00000000000E+00 -0.00000000000E+00 -0.74505805969E-08  0.93827000000E+00  0.93827000000E+00 0.  1.
     999902    2    1    2    0    0  0.11790358571E-01 -0.10422994467E-01  0.17215763707E-01  0.10206054659E+01  0.10203389061E+01 0.  0.
     999903    2    3    3    0    0 -0.50840624477E-01  0.11553328278E+00 -0.15487127936E-01  0.12883357643E+00  0.20628396837E-01 0.  0.
         14    1    1    2    0    0 -0.11790358571E-01  0.10422994467E-01 -0.17215763707E-01  0.23324534056E-01  0.00000000000E+00 0. -1.
     999901    1    3    3    0    0  0.62630983049E-01 -0.12595627724E+00  0.32702891643E-01  0.89177188952E+00  0.88000000000E+00 0. -1.
        -11    1    4    4    0    0 -0.34226267976E-01  0.56291984341E-01 -0.13623936820E-01  0.67276278851E-01  0.51100000000E-03 0.  1.
         11    1    4    4    0    0 -0.16614356502E-01  0.59241298437E-01 -0.18631911156E-02  0.61557297574E-01  0.51100000000E-03 0. -1.
</event>
<event>
 8    1  0.1030163E+005  0.1043930E+01  0.7957747E-01            NaN
         13   -1    0    0    0    0  0.00000000000E+00  0.00000000000E+00  0.74505805969E-08  0.10566000000E+00  0.10566000000E+00 0. -1.
     999900   -1    0    0    0    0 -0.00000000000E+00 -0.00000000000E+00 -0.74505805969E-08  0.93827000000E+00  0.93827000000E+00 0.  1.
     999902    2    1    2    0    0  0.51901116670E-02 -0.22585922360E-01 -0.49228055383E-02  0.10202383314E+01  0.10199632139E+01 0.  0.
     999903    2    3    3    0    0  0.85556862940E-01 -0.92051851657E-01 -0.39809386125E-01  0.13316369892E+00  0.18821883429E-01 0.  0.
         14    1    1    2    0    0 -0.51901116670E-02  0.22585922360E-01  0.49228055383E-02  0.23691668627E-01  0.00000000000E+00 0.  1.
     999901    1    3    3    0    0 -0.80366751273E-01  0.69465929297E-01  0.34886580586E-01  0.88707463246E+00  0.88000000000E+00 0. -1.
        -11    1    4    4    0    0  0.31394384218E-01 -0.43093158978E-01 -0.23940312452E-01  0.58446791122E-01  0.51100000000E-03 0. -1.
         11    1    4    4    0    0  0.54162478722E-01 -0.48958692679E-01 -0.15869073673E-01  0.74716907795E-01  0.51100000000E-03 0.  1.
</event>
<event>
 8    1  0.1033502E+005  0.1043930E+01  0.7957747E-01            NaN
         13   -1    0    0    0    0  0.00000000000E+00  0.00000000000E+00  0.74505805969E-08  0.10566000000E+00  0.10566000000E+00 0. -1.
     999900   -1    0    0    0    0 -0.00000000000E+00 -0.00000000000E+00 -0.74505805969E-08  0.93827000000E+00  0.93827000000E+00 0. -1.
     999902    2    1    2    0    0  0.11298956699E-01 -0.71825962231E-02  0.19301344674E-01  0.10204396186E+01  0.10201692101E+01 0.  0.
     999903    2    3    3    0    0  0.19015152892E-01  0.50781381902E-01 -0.11391130876E+00  0.12849512849E+00  0.24390305327E-01 0.  0.
         14    1    1    2    0    0 -0.11298956699E-01  0.71825962231E-02 -0.19301344674E-01  0.23490381377E-01  0.00000000000E+00 0.  1.
     999901    1    3    3    0    0 -0.77161961927E-02 -0.57963978126E-01  0.13321265344E+00  0.89194449013E+00  0.88000000000E+00 0.  1.
        -11    1    4    4    0    0  0.95813262939E-02  0.65104234725E-02 -0.41579196521E-01  0.43165705504E-01  0.51100000000E-03 0. -1.
         11    1    4    4    0    0  0.94338265979E-02  0.44270958430E-01 -0.72332112243E-01  0.85329422986E-01  0.51100000000E-03 0.  1.
</event>
<event>
 8    1  0.1030163E+005  0.1043930E+01  0.7957747E-01            NaN
         13   -1    0    0    0    0  0.00000000000E+00  0.00000000000E+00  0.74505805969E-08  0.10566000000E+00  0.10566000000E+00 0. -1.
     999900   -1    0    0    0    0 -0.00000000000E+00 -0.00000000000E+00 -0.74505805969E-08  0.93827000000E+00  0.93827000000E+00 0.  1.
     999902    2    1    2    0    0 -0.19209809481E-01  0.11020515331E-01 -0.46826785320E-02  0.10212938339E+01  0.10210429467E+01 0.  0.
     999903    2    3    3    0    0 -0.11611770256E+00  0.31240133337E-01 -0.56373357274E-01  0.13423583185E+00  0.19545750514E-01 0.  0.
         14    1    1    2    0    0  0.19209809481E-01 -0.11020515331E-01  0.46826785320E-02  0.22636166122E-01  0.00000000000E+00 0.  1.
     999901    1    3    3    0    0  0.96907893080E-01 -0.20219618006E-01  0.51690678742E-01  0.88705800203E+00  0.88000000000E+00 0. -1.
        -11    1    4    4    0    0 -0.21458967922E-01  0.74166620277E-02 -0.19358678238E-01  0.29841476573E-01  0.51100000000E-03 0. -1.
         11    1    4    4    0    0 -0.94658734639E-01  0.23823471309E-01 -0.37014679036E-01  0.10439435528E+00  0.51100000000E-03 0.  1.
</event>
<event>
 8    1  0.1030163E+005  0.1043930E+01  0.7957747E-01            NaN
         13   -1    0    0    0    0  0.00000000000E+00  0.00000000000E+00  0.74505805969E-08  0.10566000000E+00  0.10566000000E+00 0.  1.
     999900   -1    0    0    0    0 -0.00000000000E+00 -0.00000000000E+00 -0.74505805969E-08  0.93827000000E+00  0.93827000000E+00 0.  1.
     999902    2    1    2    0    0  0.21102569167E-01  0.99229727685E-02  0.20776263513E-02  0.10205184570E+01  0.10202498815E+01 0.  0.
     999903    2    3    3    0    0 -0.67281875311E-01  0.10920761638E+00 -0.12262996891E-01  0.13042020178E+00  0.20146804180E-01 0.  0.
         14    1    1    2    0    0 -0.21102569167E-01 -0.99229727685E-02 -0.20776263513E-02  0.23411542992E-01  0.00000000000E+00 0. -1.
     999901    1    3    3    0    0  0.88384444478E-01 -0.99284643614E-01  0.14340623242E-01  0.89009825523E+00  0.88000000000E+00 0.  1.
        -11    1    4    4    0    0 -0.48391443405E-01  0.91479388871E-01 -0.54833749172E-02  0.10363657127E+00  0.51100000000E-03 0. -1.
         11    1    4    4    0    0 -0.18890431906E-01  0.17728227511E-01 -0.67796219736E-02  0.26783630512E-01  0.51100000000E-03 0.  1.
</event>
<event>
 8    1  0.1030163E+005  0.1043930E+01  0.7957747E-01            NaN
         13   -1    0    0    0    0  0.00000000000E+00  0.00000000000E+00  0.74505805969E-08  0.10566000000E+00  0.10566000000E+00 0. -1.
     999900   -1    0    0    0    0 -0.00000000000E+00 -0.00000000000E+00 -0.74505805969E-08  0.93827000000E+00  0.93827000000E+00 0.  1.
     999902    2    1    2    0    0  0.18545262535E-01 -0.10740487652E-01 -0.96601988511E-02  0.10204224634E+01  0.10201516551E+01 0.  0.
     999903    2    3    3    0    0  0.75290970161E-01  0.91510779636E-01 -0.54065525709E-01  0.13157645304E+00  0.18609915269E-01 0.  0.
         14    1    1    2    0    0 -0.18545262535E-01  0.10740487652E-01  0.96601988511E-02  0.23507536650E-01  0.00000000000E+00 0.  1.
     999901    1    3    3    0    0 -0.56745707626E-01 -0.10225126729E+00  0.44405326858E-01  0.88884601031E+00  0.88000000000E+00 0. -1.
        -11    1    4    4    0    0  0.13789254505E-01  0.24967214851E-01 -0.19688620911E-01  0.34661336841E-01  0.51100000000E-03 0.  1.
         11    1    4    4    0    0  0.61501715655E-01  0.66543564785E-01 -0.34376904798E-01  0.96915116196E-01  0.51100000000E-03 0. -1.
</event>
<event>
 8    1  0.1030163E+005  0.1043930E+01  0.7957747E-01            NaN
         13   -1    0    0    0    0  0.00000000000E+00  0.00000000000E+00  0.74505805969E-08  0.10566000000E+00  0.10566000000E+00 0.  1.
     999900   -1    0    0    0    0 -0.00000000000E+00 -0.00000000000E+00 -0.74505805969E-08  0.93827000000E+00  0.93827000000E+00 0.  1.
     999902    2    1    2    0    0  0.54781625855E-02 -0.21153155871E-01  0.90725203735E-02  0.10202703953E+01  0.10199960307E+01 0.  0.
     999903    2    3    3    0    0 -0.12082009710E+00  0.10467271429E-01  0.42525120146E-01  0.13006245428E+00  0.20019903482E-01 0.  0.
         14    1    1    2    0    0 -0.54781625855E-02  0.21153155871E-01 -0.90725203735E-02  0.23659604700E-01  0.00000000000E+00 0. -1.
     999901    1    3    3    0    0  0.12629825969E+00 -0.31620427300E-01 -0.33452599773E-01  0.89020794102E+00  0.88000000000E+00 0.  1.
        -11    1    4    4    0    0 -0.98749294247E-01  0.42457612775E-02  0.27335214407E-01  0.10255205835E+00  0.51100000000E-03 0.  1.
         11    1    4    4    0    0 -0.22070802854E-01  0.62215101511E-02  0.15189905739E-01  0.27510395936E-01  0.51100000000E-03 0. -1.
</event>
<event>
 8    1  0.1030163E+005  0.1043930E+01  0.7957747E-01            NaN
         13   -1    0    0    0    0  0.00000000000E+00  0.00000000000E+00  0.74505805969E-08  0.10566000000E+00  0.10566000000E+00 0. -1.
     999900   -1    0    0    0    0 -0.00000000000E+00 -0.00000000000E+00 -0.74505805969E-08  0.93827000000E+00  0.93827000000E+00 0. -1.
     999902    2    1    2    0    0 -0.13385845547E-01  0.17278638114E-01 -0.17417773620E-01  0.10159816363E+01  0.10155971516E+01 0.  0.
     999903    2    3    3    0    0  0.79467697860E-01  0.61821094130E-01  0.72117144077E-01  0.12546363400E+00  0.20081790388E-01 0.  0.
         14    1    1    2    0    0  0.13385845547E-01 -0.17278638114E-01  0.17417773620E-01  0.27948363708E-01  0.00000000000E+00 0. -1.
     999901    1    3    3    0    0 -0.92853543407E-01 -0.44542456017E-01 -0.89534917697E-01  0.89051800229E+00  0.88000000000E+00 0.  1.
        -11    1    4    4    0    0  0.38187460160E-01  0.22112295094E-01  0.21800908381E-01  0.49221706950E-01  0.51100000000E-03 0.  1.
         11    1    4    4    0    0  0.41280237700E-01  0.39708799036E-01  0.50316235695E-01  0.76241927054E-01  0.51100000000E-03 0. -1.
</event>
<event>
 8    1  0.1030163E+005  0.1043930E+01  0.7957747E-01            NaN
         13   -1    0    0    0    0  0.00000000000E+00  0.00000000000E+00  0.74505805969E-08  0.10566000000E+00  0.10566000000E+00 0. -1.
     999900   -1    0    0    0    0 -0.00000000000E+00 -0.00000000000E+00 -0.74505805969E-08  0.93827000000E+00  0.93827000000E+00 0. -1.
     999902    2    1    2    0    0  0.17481137234E-01  0.84078830596E-02 -0.12614414139E-01  0.10207911560E+01  0.10205288718E+01 0.  0.
     999903    2    3    3    0    0  0.52318919326E-01  0.56667504829E-01 -0.10736988740E+00  0.13370533049E+00  0.20008679533E-01 0.  0.
         14    1    1    2    0    0 -0.17481137234E-01 -0.84078830596E-02  0.12614414139E-01  0.23138843978E-01  0.00000000000E+00 0. -1.
     999901    1    3    3    0    0 -0.34837782091E-01 -0.48259621769E-01  0.94755473263E-01  0.88708582554E+00  0.88000000000E+00 0.  1.
        -11    1    4    4    0    0  0.10858889787E-01  0.21109946440E-01 -0.44366577900E-01  0.50320966621E-01  0.51100000000E-03 0. -1.
         11    1    4    4    0    0  0.41460029539E-01  0.35557558388E-01 -0.63003309502E-01  0.83384363865E-01  0.51100000000E-03 0.  1.
</event>
<event>
 8    1  0.1030163E+005  0.1043930E+01  0.7957747E-01            NaN
         13   -1    0    0    0    0  0.00000000000E+00  0.00000000000E+00  0.74505805969E-08  0.10566000000E+00  0.10566000000E+00 0.  1.
     999900   -1    0    0    0    0 -0.00000000000E+00 -0.00000000000E+00 -0.74505805969E-08  0.93827000000E+00  0.93827000000E+00 0.  1.
     999902    2    1    2    0    0  0.21498816818E-01  0.84744626102E-02 -0.52895763303E-02  0.10202235608E+01  0.10199480961E+01 0.  0.
     999903    2    3    3    0    0  0.10910652388E+00 -0.65271199912E-01  0.29883297906E-01  0.13210720348E+00  0.19868030259E-01 0.  0.
         14    1    1    2    0    0 -0.21498816818E-01 -0.84744626102E-02  0.52895763303E-02  0.23706439185E-01  0.00000000000E+00 0.  1.
     999901    1    3    3    0    0 -0.87607707066E-01  0.73745662523E-01 -0.35172874236E-01  0.88811635733E+00  0.88000000000E+00 0.  1.
        -11    1    4    4    0    0  0.75478503440E-01 -0.52865636383E-01  0.15329976622E-01  0.93418677447E-01  0.51100000000E-03 0.  1.
         11    1    4    4    0    0  0.33628020444E-01 -0.12405563530E-01  0.14553321284E-01  0.38688526036E-01  0.51100000000E-03 0. -1.
</event>
<event>
 8    1  0.1030163E+005  0.1043930E+01  0.7957747E-01            NaN
         13   -1    0    0    0    0  0.00000000000E+00  0.00000000000E+00  0.74505805969E-08  0.10566000000E+00  0.10566000000E+00 0. -1.
     999900   -1    0    0    0    0 -0.00000000000E+00 -0.00000000000E+00 -0.74505805969E-08  0.93827000000E+00  0.93827000000E+00 0.  1.
     999902    2    1    2    0    0 -0.81465998001E-02  0.18028644499E-01  0.13167789668E-01  0.10201646934E+01  0.10198878428E+01 0.  0.
     999903    2    3    3    0    0 -0.33103235617E-01  0.45776416301E-01  0.11880790978E+00  0.13306120034E+00  0.19966449636E-01 0.  0.
         14    1    1    2    0    0  0.81465998001E-02 -0.18028644499E-01 -0.13167789668E-01  0.23765306553E-01  0.00000000000E+00 0.  1.
     999901    1    3    3    0    0  0.24956635817E-01 -0.27747771802E-01 -0.10564012011E+00  0.88710349311E+00  0.88000000000E+00 0.  1.
        -11    1    4    4    0    0 -0.17458296879E-01  0.85948447724E-02  0.42487966576E-01  0.46734911055E-01  0.51100000000E-03 0. -1.
         11    1    4    4    0    0 -0.15644938738E-01  0.37181571529E-01  0.76319943205E-01  0.86326289282E-01  0.51100000000E-03 0.  1.
</event>
<event>
 8    1  0.1030163E+005  0.1043930E+01  0.7957747E-01            NaN
         13   -1    0    0    0    0  0.00000000000E+00  0.00000000000E+00  0.74505805969E-08  0.10566000000E+00  0.10566000000E+00 0.  1.
     999900   -1    0    0    0    0 -0.00000000000E+00 -0.00000000000E+00 -0.74505805969E-08  0.93827000000E+00  0.93827000000E+00 0. -1.
     999902    2    1    2    0    0 -0.12314023905E-01 -0.15267178211E-01  0.13622128206E-01  0.10200493741E+01  0.10197697982E+01 0.  0.
     999903    2    3    3    0    0  0.81394273248E-01 -0.71383429516E-01 -0.66039644514E-01  0.12972568206E+00  0.27329401971E-01 0.  0.
         14    1    1    2    0    0  0.12314023905E-01  0.15267178211E-01 -0.13622128206E-01  0.23880625874E-01  0.00000000000E+00 0. -1.
     999901    1    3    3    0    0 -0.93708297154E-01  0.56116251305E-01  0.79661772719E-01  0.89032369206E+00  0.88000000000E+00 0.  1.
        -11    1    4    4    0    0  0.75505243593E-01 -0.67016915689E-01 -0.51274449147E-01  0.11323267662E+00  0.51100000000E-03 0. -1.
         11    1    4    4    0    0  0.58890296556E-02 -0.43665138266E-02 -0.14765195366E-01  0.16493005441E-01  0.51100000000E-03 0.  1.
</event>
<event>
 8    1  0.1030163E+005  0.1043930E+01  0.7957747E-01            NaN
         13   -1    0    0    0    0  0.00000000000E+00  0.00000000000E+00  0.74505805969E-08  0.10566000000E+00  0.10566000000E+00 0.  1.
     999900   -1    0    0    0    0 -0.00000000000E+00 -0.00000000000E+00 -0.74505805969E-08  0.93827000000E+00  0.93827000000E+00 0. -1.
     999902    2    1    2    0    0  0.18286537350E-01  0.13196499423E-01  0.68497577514E-02  0.10203617114E+01  0.10200894852E+01 0.  0.
     999903    2    3    3    0    0 -0.11958676403E+00 -0.17077440614E-01 -0.37737983508E-01  0.12799764595E+00  0.19147032687E-01 0.  0.
         14    1    1    2    0    0 -0.18286537350E-01 -0.13196499423E-01 -0.68497577514E-02  0.23568288579E-01  0.00000000000E+00 0. -1.
     999901    1    3    3    0    0  0.13787330138E+00  0.30273940038E-01  0.44587741260E-01  0.89236406547E+00  0.88000000000E+00 0.  1.
        -11    1    4    4    0    0 -0.86940513790E-01 -0.12528359377E-01 -0.18293682736E-01  0.89724760662E-01  0.51100000000E-03 0. -1.
         11    1    4    4    0    0 -0.32646250235E-01 -0.45490812376E-02 -0.19444300773E-01  0.38272885286E-01  0.51100000000E-03 0.  1.
</event>
<event>
 8    1  0.1030163E+005  0.1043930E+01  0.7957747E-01            NaN
         13   -1    0    0    0    0  0.00000000000E+00  0.00000000000E+00  0.74505805969E-08  0.10566000000E+00  0.10566000000E+00 0. -1.
     999900   -1    0    0    0    0 -0.00000000000E+00 -0.00000000000E+00 -0.74505805969E-08  0.93827000000E+00  0.93827000000E+00 0. -1.
     999902    2    1    2    0    0  0.11060987833E-01  0.14484122289E-01  0.13549483545E-01  0.10212204479E+01  0.10209679131E+01 0.  0.
     999903    2    3    3    0    0 -0.73724405790E-01 -0.82259363827E-01  0.67029026703E-01  0.13026145527E+00  0.16530739951E-01 0.  0.
         14    1    1    2    0    0 -0.11060987833E-01 -0.14484122289E-01 -0.13549483545E-01  0.22709552058E-01  0.00000000000E+00 0.  1.
     999901    1    3    3    0    0  0.84785393623E-01  0.96743486117E-01 -0.53479543157E-01  0.89095899267E+00  0.88000000000E+00 0.  1.
        -11    1    4    4    0    0 -0.30076918925E-01 -0.42704219671E-01  0.37969024374E-01  0.64576925930E-01  0.51100000000E-03 0.  1.
         11    1    4    4    0    0 -0.43647486865E-01 -0.39555144156E-01  0.29060002329E-01  0.65684529344E-01  0.51100000000E-03 0. -1.
</event>
<event>
 8    1  0.1030163E+005  0.1043930E+01  0.7957747E-01            NaN
         13   -1    0    0    0    0  0.00000000000E+00  0.00000000000E+00  0.74505805969E-08  0.10566000000E+00  0.10566000000E+00 0. -1.
     999900   -1    0    0    0    0 -0.00000000000E+00 -0.00000000000E+00 -0.74505805969E-08  0.93827000000E+00  0.93827000000E+00 0.  1.
     999902    2    1    2    0    0  0.18840913536E-01 -0.80342307253E-02 -0.12579678855E-01  0.10198930034E+01  0.10196097102E+01 0.  0.
     999903    2    3    3    0    0 -0.19269504269E-01 -0.10822739465E+00  0.66052484931E-01  0.12990755899E+00  0.20701699718E-01 0.  0.
         14    1    1    2    0    0 -0.18840913536E-01  0.80342307253E-02  0.12579678855E-01  0.24036996616E-01  0.00000000000E+00 0. -1.
     999901    1    3    3    0    0  0.38110417805E-01  0.10019316392E+00 -0.78632163786E-01  0.88998544439E+00  0.88000000000E+00 0.  1.
        -11    1    4    4    0    0 -0.21309239685E-01 -0.82300040475E-01  0.57041290491E-01  0.10237846600E+00  0.51100000000E-03 0. -1.
         11    1    4    4    0    0  0.20397354161E-02 -0.25927354174E-01  0.90111944403E-02  0.27529092998E-01  0.51100000000E-03 0.  1.
</event>
<event>
 8    1  0.1030163E+005  0.1043930E+01  0.7957747E-01            NaN
         13   -1    0    0    0    0  0.00000000000E+00  0.00000000000E+00  0.74505805969E-08  0.10566000000E+00  0.10566000000E+00 0. -1.
     999900   -1    0    0    0    0 -0.00000000000E+00 -0.00000000000E+00 -0.74505805969E-08  0.93827000000E+00  0.93827000000E+00 0.  1.
     999902    2    1    2    0    0 -0.35140076983E-02 -0.16071582513E-01  0.15184859164E-01  0.10215419683E+01  0.10212966117E+01 0.  0.
     999903    2    3    3    0    0  0.82189246850E-01 -0.99993203740E-01  0.25686371208E-01  0.13334257173E+00  0.19150422396E-01 0.  0.
         14    1    1    2    0    0  0.35140076983E-02  0.16071582513E-01 -0.15184859164E-01  0.22388031678E-01  0.00000000000E+00 0.  1.
     999901    1    3    3    0    0 -0.85703254548E-01  0.83921621227E-01 -0.10501512044E-01  0.88819939659E+00  0.88000000000E+00 0.  1.
        -11    1    4    4    0    0  0.44522141425E-01 -0.49097810461E-01  0.39582364975E-02  0.66398379696E-01  0.51100000000E-03 0. -1.
         11    1    4    4    0    0  0.37667105424E-01 -0.50895393280E-01  0.21728134710E-01  0.66944192035E-01  0.51100000000E-03 0.  1.
</event>
<event>
 8    1  0.1030163E+005  0.1043930E+01  0.7957747E-01            NaN
         13   -1    0    0    0    0  0.00000000000E+00  0.00000000000E+00  0.74505805969E-08  0.10566000000E+00  0.10566000000E+00 0. -1.
     999900   -1    0    0    0    0 -0.00000000000E+00 -0.00000000000E+00 -0.74505805969E-08  0.93827000000E+00  0.93827000000E+00 0. -1.
     999902    2    1    2    0    0  0.21868926097E-01 -0.40577004141E-02 -0.74315705056E-02  0.10204791343E+01  0.10202096454E+01 0.  0.
     999903    2    3    3    0    0 -0.53102853640E-01  0.11247690763E+00  0.27526297706E-01  0.12895059569E+00  0.19989778597E-01 0.  0.
         14    1    1    2    0    0 -0.21868926097E-01  0.40577004141E-02  0.74315705056E-02  0.23450865687E-01  0.00000000000E+00 0. -1.
     999901    1    3    3    0    0  0.74971779737E-01 -0.11653460805E+00 -0.34957868211E-01  0.89152853862E+00  0.88000000000E+00 0.  1.
        -11    1    4    4    0    0 -0.15610706546E-01  0.52926326809E-01  0.68644064530E-02  0.55608195667E-01  0.51100000000E-03 0. -1.
         11    1    4    4    0    0 -0.37492147094E-01  0.59550580823E-01  0.20661891253E-01  0.73342400024E-01  0.51100000000E-03 0.  1.
</event>
<event>
 8    1  0.1030163E+005  0.1043930E+01  0.7957747E-01            NaN
         13   -1    0    0    0    0  0.00000000000E+00  0.00000000000E+00  0.74505805969E-08  0.10566000000E+00  0.10566000000E+00 0.  1.
     999900   -1    0    0    0    0 -0.00000000000E+00 -0.00000000000E+00 -0.74505805969E-08  0.93827000000E+00  0.93827000000E+00 0.  1.
     999902    2    1    2    0    0 -0.12155479532E-01 -0.14157052266E-01 -0.26272586483E-03  0.10252686272E+01  0.10250987811E+01 0.  0.
     999903    2    3    3    0    0  0.36761452036E-01  0.86821122633E-01 -0.92281850918E-01  0.13338467878E+00  0.19652501948E-01 0.  0.
         14    1    1    2    0    0  0.12155479532E-01  0.14157052266E-01  0.26272586483E-03  0.18661372843E-01  0.00000000000E+00 0.  1.
     999901    1    3    3    0    0 -0.48916931568E-01 -0.10097817490E+00  0.92019125053E-01  0.89188394838E+00  0.88000000000E+00 0. -1.
        -11    1    4    4    0    0  0.11349019063E-01  0.18014834785E-01 -0.32008691625E-01  0.38446741950E-01  0.51100000000E-03 0.  1.
         11    1    4    4    0    0  0.25412432973E-01  0.68806287848E-01 -0.60273159293E-01  0.94937936828E-01  0.51100000000E-03 0. -1.
</event>
<event>
 8    1  0.1030163E+005  0.1043930E+01  0.7957747E-01            NaN
         13   -1    0    0    0    0  0.00000000000E+00  0.00000000000E+00  0.74505805969E-08  0.10566000000E+00  0.10566000000E+00 0. -1.
     999900   -1    0    0    0    0 -0.00000000000E+00 -0.00000000000E+00 -0.74505805969E-08  0.93827000000E+00  0.93827000000E+00 0. -1.
     999902    2    1    2    0    0  0.17228176638E-01 -0.11861159478E-01  0.10778914362E-01  0.10203995480E+01  0.10201282054E+01 0.  0.
     999903    2    3    3    0    0  0.12146120640E+00 -0.25560546718E-01 -0.41708335108E-01  0.13258925915E+00  0.20836511641E-01 0.  0.
         14    1    1    2    0    0 -0.17228176638E-01  0.11861159478E-01 -0.10778914362E-01  0.23530451956E-01  0.00000000000E+00 0.  1.
     999901    1    3    3    0    0 -0.10423302976E+00  0.13699387240E-01  0.52487249470E-01  0.88781028889E+00  0.88000000000E+00 0. -1.
        -11    1    4    4    0    0  0.75330746473E-01 -0.95021003839E-02 -0.33768792831E-01  0.83099962492E-01  0.51100000000E-03 0.  1.
         11    1    4    4    0    0  0.46130459924E-01 -0.16058446334E-01 -0.79395422765E-02  0.49489296661E-01  0.51100000000E-03 0. -1.
</event>
<event>
 7    1  0.1030163E+005  0.1043930E+01  0.7957747E-01            NaN
         13   -1    0    0    0    0  0.00000000000E+00  0.00000000000E+00  0.74505805969E-08  0.10566000000E+00  0.10566000000E+00 0. -1.
     999900   -1    0    0    0    0 -0.00000000000E+00 -0.00000000000E+00 -0.74505805969E-08  0.93827000000E+00  0.93827000000E+00 0. -1.
     999903    2    1    2    0    0  0.41500787752E-01  0.88291966073E-01  0.25873517761E-01  0.10291672849E+00  0.20115352979E-01 0.  0.
         14    1    1    2    0    0 -0.36911568994E-01 -0.37516049751E-01 -0.27830850117E-01  0.59535486331E-01  0.00000000000E+00 0.  1.
     999901    1    1    2    0    0 -0.45892187586E-02 -0.50775916322E-01  0.19573323564E-02  0.88147778518E+00  0.88000000000E+00 0.  1.
        -11    1    3    3    0    0  0.34593846704E-01  0.85312816331E-01  0.23513674082E-01  0.95016655645E-01  0.51100000000E-03 0. -1.
         11    1    3    3    0    0  0.69069410484E-02  0.29791497418E-02  0.23598436790E-02  0.79000728490E-02  0.51100000000E-03 0.  1.
</event>
<event>
 8    1  0.1030163E+005  0.1043930E+01  0.7957747E-01            NaN
         13   -1    0    0    0    0  0.00000000000E+00  0.00000000000E+00  0.74505805969E-08  0.10566000000E+00  0.10566000000E+00 0. -1.
     999900   -1    0    0    0    0 -0.00000000000E+00 -0.00000000000E+00 -0.74505805969E-08  0.93827000000E+00  0.93827000000E+00 0. -1.
     999902    2    1    2    0    0 -0.10689090408E-01 -0.14785660689E-01 -0.16256293350E-01  0.10194935623E+01  0.10192006593E+01 0.  0.
     999903    2    3    3    0    0  0.44767144453E-01  0.68278894662E-01 -0.99138855290E-01  0.12997423509E+00  0.19967084924E-01 0.  0.
         14    1    1    2    0    0  0.10689090408E-01  0.14785660689E-01  0.16256293350E-01  0.24436437737E-01  0.00000000000E+00 0. -1.
     999901    1    3    3    0    0 -0.55456234861E-01 -0.83064555352E-01  0.82882561940E-01  0.88951932717E+00  0.88000000000E+00 0.  1.
        -11    1    4    4    0    0  0.23256913648E-01  0.24806253579E-01 -0.28981476604E-01  0.44681331182E-01  0.51100000000E-03 0.  1.
         11    1    4    4    0    0  0.21510230805E-01  0.43472641084E-01 -0.70157378686E-01  0.85292903909E-01  0.51100000000E-03 0. -1.
</event>
<event>
 8    1  0.1030163E+005  0.1043930E+01  0.7957747E-01            NaN
         13   -1    0    0    0    0  0.00000000000E+00  0.00000000000E+00  0.74505805969E-08  0.10566000000E+00  0.10566000000E+00 0.  1.
     999900   -1    0    0    0    0 -0.00000000000E+00 -0.00000000000E+00 -0.74505805969E-08  0.93827000000E+00  0.93827000000E+00 0.  1.
     999902    2    1    2    0    0  0.48069209170E-02 -0.75358591661E-02 -0.22035156377E-01  0.10201509382E+01  0.10198737633E+01 0.  0.
     999903    2    3    3    0    0 -0.83027311746E-01  0.10702358454E-01 -0.10037473055E+00  0.13212809286E+00  0.19356430930E-01 0.  0.
         14    1    1    2    0    0 -0.48069209170E-02  0.75358591661E-02  0.22035156377E-01  0.23779061769E-01  0.00000000000E+00 0.  1.
     999901    1    3    3    0    0  0.87834232663E-01 -0.18238217621E-01  0.78339574176E-01  0.88802284537E+00  0.88000000000E+00 0.  1.
        -11    1    4    4    0    0 -0.40184425583E-01 -0.22869646232E-02 -0.57091863735E-01  0.69855281062E-01  0.51100000000E-03 0.  1.
         11    1    4    4    0    0 -0.42842886163E-01  0.12989323078E-01 -0.43282866818E-01  0.62272811802E-01  0.51100000000E-03 0. -1.
</event>
<event>
 8    1  0.1030163E+005  0.1043930E+01  0.7957747E-01            NaN
         13   -1    0    0    0    0  0.00000000000E+00  0.00000000000E+00  0.74505805969E-08  0.10566000000E+00  0.10566000000E+00 0.  1.
     999900   -1    0    0    0    0 -0.00000000000E+00 -0.00000000000E+00 -0.74505805969E-08  0.93827000000E+00  0.93827000000E+00 0.  1.
     999902    2    1    2    0    0  0.71239247139E-02 -0.16263482576E-01 -0.16843655783E-01  0.10194563426E+01  0.10191625358E+01 0.  0.
     999903    2    3    3    0    0 -0.78683239616E-01  0.97310285036E-01  0.15492131846E-01  0.12743197444E+00  0.18399950825E-01 0.  0.
         14    1    1    2    0    0 -0.71239247139E-02  0.16263482576E-01  0.16843655783E-01  0.24473657450E-01  0.00000000000E+00 0.  1.
     999901    1    3    3    0    0  0.85807164330E-01 -0.11357376761E+00 -0.32335787629E-01  0.89202436811E+00  0.88000000000E+00 0.  1.
        -11    1    4    4    0    0 -0.70260145675E-01  0.82791339655E-01  0.19104059889E-01  0.11025479680E+00  0.51100000000E-03 0.  1.
         11    1    4    4    0    0 -0.84230939417E-02  0.14518945381E-01 -0.36119280424E-02  0.17177177641E-01  0.51100000000E-03 0. -1.
</event>
<event>
 8    1  0.1030163E+005  0.1043930E+01  0.7957747E-01            NaN
         13   -1    0    0    0    0  0.00000000000E+00  0.00000000000E+00  0.74505805969E-08  0.10566000000E+00  0.10566000000E+00 0.  1.
     999900   -1    0    0    0    0 -0.00000000000E+00 -0.00000000000E+00 -0.74505805969E-08  0.93827000000E+00  0.93827000000E+00 0. -1.
     999902    2    1    2    0    0 -0.47526469767E-02  0.12886510983E-02 -0.22740457761E-01  0.10206624970E+01  0.10203972541E+01 0.  0.
     999903    2    3    3    0    0 -0.12058013148E+00  0.72170558545E-02  0.45350115782E-01  0.13044483918E+00  0.19172090818E-01 0.  0.
         14    1    1    2    0    0  0.47526469767E-02 -0.12886510983E-02  0.22740457761E-01  0.23267502962E-01  0.00000000000E+00 0.  1.
     999901    1    3    3    0    0  0.11582748450E+00 -0.59284047562E-02 -0.68090573543E-01  0.89021765785E+00  0.88000000000E+00 0.  1.
        -11    1    4    4    0    0 -0.78601531189E-01 -0.44410920526E-02  0.28435364199E-01  0.83706362136E-01  0.51100000000E-03 0.  1.
         11    1    4    4    0    0 -0.41978600287E-01  0.11658147907E-01  0.16914751583E-01  0.46738477048E-01  0.51100000000E-03 0. -1.
</event>
<event>
 8    1  0.1220290E+005  0.1043930E+01  0.7957747E-01            NaN
         13   -1    0    0    0    0  0.00000000000E+00  0.00000000000E+00  0.74505805969E-08  0.10566000000E+00  0.10566000000E+00 0. -1.
     999900   -1    0    0    0    0 -0.00000000000E+00 -0.00000000000E+00 -0.74505805969E-08  0.93827000000E+00  0.93827000000E+00 0.  1.
     999902    2    1    2    0    0 -0.12860244758E-01  0.15170930835E-01 -0.12748351873E-01  0.10203066321E+01  0.10200331171E+01 0.  0.
     999903    2    3    3    0    0 -0.10881497816E+00  0.12851607169E-01 -0.72793600618E-01  0.13305349905E+00  0.19961513965E-01 0.  0.
         14    1    1    2    0    0  0.12860244758E-01 -0.15170930835E-01  0.12748351873E-01  0.23623367946E-01  0.00000000000E+00 0.  1.
     999901    1    3    3    0    0  0.95954733405E-01  0.23193236662E-02  0.60045248745E-01  0.88725313300E+00  0.88000000000E+00 0. -1.
        -11    1    4    4    0    0 -0.38789944034E-01  0.50795034459E-02 -0.14912122784E-01  0.41869961074E-01  0.51100000000E-03 0.  1.
         11    1    4    4    0    0 -0.70025034129E-01  0.77721037227E-02 -0.57881477834E-01  0.91183537978E-01  0.51100000000E-03 0. -1.
</event>
<event>
 8    1  0.1030163E+005  0.1043930E+01  0.7957747E-01            NaN
         13   -1    0    0    0    0  0.00000000000E+00  0.00000000000E+00  0.74505805969E-08  0.10566000000E+00  0.10566000000E+00 0. -1.
     999900   -1    0    0    0    0 -0.00000000000E+00 -0.00000000000E+00 -0.74505805969E-08  0.93827000000E+00  0.93827000000E+00 0.  1.
     999902    2    1    2    0    0 -0.27031112708E-02  0.74817389166E-02  0.20084527655E-01  0.10223274196E+01  0.10220991544E+01 0.  0.
     999903    2    3    3    0    0 -0.37003000879E-01  0.49495661398E-02 -0.12300664276E+00  0.13010660762E+00  0.20084195400E-01 0.  0.
         14    1    1    2    0    0  0.27031112708E-02 -0.74817389166E-02 -0.20084527655E-01  0.21602580376E-01  0.00000000000E+00 0.  1.
     999901    1    3    3    0    0  0.34299889608E-01  0.25321727768E-02  0.14309117041E+00  0.89222081201E+00  0.88000000000E+00 0. -1.
        -11    1    4    4    0    0 -0.30476060820E-01  0.11346063931E-01 -0.84907387922E-01  0.90923314362E-01  0.51100000000E-03 0.  1.
         11    1    4    4    0    0 -0.65269400594E-02 -0.63964977910E-02 -0.38099254835E-01  0.39183293257E-01  0.51100000000E-03 0. -1.
</event>
<event>
 8    1  0.1030163E+005  0.1043930E+01  0.7957747E-01            NaN
         13   -1    0    0    0    0  0.00000000000E+00  0.00000000000E+00  0.74505805969E-08  0.10566000000E+00  0.10566000000E+00 0. -1.
     999900   -1    0    0    0    0 -0.00000000000E+00 -0.00000000000E+00 -0.74505805969E-08  0.93827000000E+00  0.93827000000E+00 0. -1.
     999902    2    1    2    0    0 -0.48568528640E-02 -0.24533895864E-01  0.62619881246E-02  0.10181479605E+01  0.10178214755E+01 0.  0.
     999903    2    3    3    0    0 -0.69285796326E-01  0.95599586710E-01 -0.40829002943E-01  0.12640769347E+00  0.19289762430E-01 0.  0.
         14    1    1    2    0    0  0.48568528640E-02  0.24533895864E-01 -0.62619881246E-02  0.25782039509E-01  0.00000000000E+00 0. -1.
     999901    1    3    3    0    0  0.64428943462E-01 -0.12013348257E+00  0.47090991068E-01  0.89174026702E+00  0.88000000000E+00 0.  1.
        -11    1    4    4    0    0 -0.26132518627E-01  0.40155156346E-01 -0.69789511934E-02  0.48418095705E-01  0.51100000000E-03 0. -1.
         11    1    4    4    0    0 -0.43153277699E-01  0.55444430365E-01 -0.33850051750E-01  0.77989597762E-01  0.51100000000E-03 0.  1.
</event>
<event>
 8    1  0.1030163E+005  0.1043930E+01  0.7957747E-01            NaN
         13   -1    0    0    0    0  0.00000000000E+00  0.00000000000E+00  0.74505805969E-08  0.10566000000E+00  0.10566000000E+00 0.  1.
     999900   -1    0    0    0    0 -0.00000000000E+00 -0.00000000000E+00 -0.74505805969E-08  0.93827000000E+00  0.93827000000E+00 0.  1.
     999902    2    1    2    0    0 -0.20284448291E-01 -0.11401453425E-01 -0.23230820303E-02  0.10205452038E+01  0.10202772488E+01 0.  0.
     999903    2    3    3    0    0  0.68674242220E-01 -0.94581653160E-01 -0.57107016229E-01  0.13046999705E+00  0.99683583662E-02 0.  0.
         14    1    1    2    0    0  0.20284448291E-01  0.11401453425E-01  0.23230820303E-02  0.23384796189E-01  0.00000000000E+00 0.  1.
     999901    1    3    3    0    0 -0.88958690511E-01  0.83180199735E-01  0.54783934199E-01  0.89007520676E+00  0.88000000000E+00 0. -1.
        -11    1    4    4    0    0  0.47248686095E-01 -0.59678157288E-01 -0.40994796873E-01  0.86456667104E-01  0.51100000000E-03 0.  1.
         11    1    4    4    0    0  0.21425556125E-01 -0.34903495872E-01 -0.16112219356E-01  0.44013329946E-01  0.51100000000E-03 0. -1.
</event>
<event>
 8    1  0.1030163E+005  0.1043930E+01  0.7957747E-01            NaN
         13   -1    0    0    0    0  0.00000000000E+00  0.00000000000E+00  0.74505805969E-08  0.10566000000E+00  0.10566000000E+00 0. -1.
     999900   -1    0    0    0    0 -0.00000000000E+00 -0.00000000000E+00 -0.74505805969E-08  0.93827000000E+00  0.93827000000E+00 0. -1.
     999902    2    1    2    0    0  0.10165910245E-01  0.11494664101E-04 -0.18638394128E-01  0.10226994654E+01  0.10224790760E+01 0.  0.
     999903    2    3    3    0    0  0.14677476414E-01  0.57217340412E-01  0.11465680939E+00  0.13081355662E+00  0.21834612432E-01 0.  0.
         14    1    1    2    0    0 -0.10165910245E-01 -0.11494664101E-04  0.18638394128E-01  0.21230534588E-01  0.00000000000E+00 0. -1.
     999901    1    3    3    0    0 -0.45115661696E-02 -0.57205845748E-01 -0.13329520351E+00  0.89188590879E+00  0.88000000000E+00 0. -1.
        -11    1    4    4    0    0  0.20242983433E-01  0.44404294884E-01  0.84660264101E-01  0.97719707434E-01  0.51100000000E-03 0. -1.
         11    1    4    4    0    0 -0.55655070186E-02  0.12813045528E-01  0.29996545285E-01  0.33093849188E-01  0.51100000000E-03 0.  1.
</event>
<event>
 8    1  0.1030163E+005  0.1043930E+01  0.7957747E-01            NaN
         13   -1    0    0    0    0  0.00000000000E+00  0.00000000000E+00  0.74505805969E-08  0.10566000000E+00  0.10566000000E+00 0. -1.
     999900   -1    0    0    0    0 -0.00000000000E+00 -0.00000000000E+00 -0.74505805969E-08  0.93827000000E+00  0.93827000000E+00 0. -1.
     999902    2    1    2    0    0  0.17596000370E-01  0.15885106696E-01 -0.41240327035E-02  0.10198683398E+01  0.10195844581E+01 0.  0.
     999903    2    3    3    0    0  0.29338028717E-01  0.42450453811E-01  0.11837057572E+00  0.13090910456E+00  0.21513705036E-01 0.  0.
         14    1    1    2    0    0 -0.17596000370E-01 -0.15885106696E-01  0.41240327035E-02  0.24061660157E-01  0.00000000000E+00 0.  1.
     999901    1    3    3    0    0 -0.11742028347E-01 -0.26565347115E-01 -0.12249460842E+00  0.88895923528E+00  0.88000000000E+00 0. -1.
        -11    1    4    4    0    0  0.28444281184E-01  0.27069106127E-01  0.96195124496E-01  0.10390176484E+00  0.51100000000E-03 0.  1.
         11    1    4    4    0    0  0.89374753302E-03  0.15381347684E-01  0.22175451221E-01  0.27007339726E-01  0.51100000000E-03 0. -1.
</event>
<event>
 8    1  0.1030163E+005  0.1043930E+01  0.7957747E-01            NaN
         13   -1    0    0    0    0  0.00000000000E+00  0.00000000000E+00  0.74505805969E-08  0.10566000000E+00  0.10566000000E+00 0.  1.
     999900   -1    0    0    0    0 -0.00000000000E+00 -0.00000000000E+00 -0.74505805969E-08  0.93827000000E+00  0.93827000000E+00 0. -1.
     999902    2    1    2    0    0  0.54171185031E-02 -0.21044525735E-01 -0.87682457263E-02  0.10204971306E+01  0.10202280599E+01 0.  0.
     999903    2    3    3    0    0 -0.51348159341E-01  0.35523247346E-01 -0.11318151458E+00  0.13070820031E+00  0.19391849175E-01 0.  0.
         14    1    1    2    0    0 -0.54171185031E-02  0.21044525735E-01  0.87682457263E-02  0.23432869423E-01  0.00000000000E+00 0.  1.
     999901    1    3    3    0    0  0.56765277844E-01 -0.56567773080E-01  0.10441326886E+00  0.88978893027E+00  0.88000000000E+00 0. -1.
        -11    1    4    4    0    0 -0.74201344510E-02  0.62517768608E-02 -0.65290408177E-02  0.11706092610E-01  0.51100000000E-03 0.  1.
         11    1    4    4    0    0 -0.43928024890E-01  0.29271470485E-01 -0.10665247376E+00  0.11900210770E+00  0.51100000000E-03 0. -1.
</event>
<event>
 8    1  0.1030163E+005  0.1043930E+01  0.7957747E-01            NaN
         13   -1    0    0    0    0  0.00000000000E+00  0.00000000000E+00  0.74505805969E-08  0.10566000000E+00  0.10566000000E+00 0. -1.
     999900   -1    0    0    0    0 -0.00000000000E+00 -0.00000000000E+00 -0.74505805969E-08  0.93827000000E+00  0.93827000000E+00 0.  1.
     999902    2    1    2    0    0 -0.15673710162E-01  0.76765165213E-02 -0.15900417816E-01  0.10203203117E+01  0.10200471171E+01 0.  0.
     999903    2    3    3    0    0  0.66810033159E-01  0.87691964634E-01  0.64342821808E-01  0.12922827526E+00  0.20161528148E-01 0.  0.
         14    1    1    2    0    0  0.15673710162E-01 -0.76765165213E-02  0.15900417816E-01  0.23609688326E-01  0.00000000000E+00 0. -1.
     999901    1    3    3    0    0 -0.82483743321E-01 -0.80015448113E-01 -0.80243239623E-01  0.89109203641E+00  0.88000000000E+00 0.  1.
        -11    1    4    4    0    0  0.35679183966E-01  0.36259355697E-01  0.38444587720E-01  0.63765135380E-01  0.51100000000E-03 0. -1.
         11    1    4    4    0    0  0.31130849193E-01  0.51432608937E-01  0.25898234088E-01  0.65463139883E-01  0.51100000000E-03 0.  1.
</event>
<event>
 8    1  0.1030163E+005  0.1043930E+01  0.7957747E-01            NaN
         13   -1    0    0    0    0  0.00000000000E+00  0.00000000000E+00  0.74505805969E-08  0.10566000000E+00  0.10566000000E+00 0.  1.
     999900   -1    0    0    0    0 -0.00000000000E+00 -0.00000000000E+00 -0.74505805969E-08  0.93827000000E+00  0.93827000000E+00 0. -1.
     999902    2    1    2    0    0  0.16540982734E-01  0.25960236988E-02  0.15287190250E-01  0.10212575137E+01  0.10210058118E+01 0.  0.
     999903    2    3    3    0    0 -0.83755121728E-01 -0.97003201702E-01  0.83165406869E-02  0.12995066182E+00  0.19836030407E-01 0.  0.
         14    1    1    2    0    0 -0.16540982734E-01 -0.25960236988E-02 -0.15287190250E-01  0.22672486290E-01  0.00000000000E+00 0. -1.
     999901    1    3    3    0    0  0.10029610446E+00  0.99599225401E-01  0.69706495630E-02  0.89130685189E+00  0.88000000000E+00 0. -1.
        -11    1    4    4    0    0 -0.79351781220E-02 -0.19963004985E-01 -0.54187803502E-03  0.21495194176E-01  0.51100000000E-03 0.  1.
         11    1    4    4    0    0 -0.75819943606E-01 -0.77040196717E-01  0.88584187219E-02  0.10845546764E+00  0.51100000000E-03 0. -1.
</event>
<event>
 8    1  0.1030163E+005  0.1043930E+01  0.7957747E-01            NaN
         13   -1    0    0    0    0  0.00000000000E+00  0.00000000000E+00  0.74505805969E-08  0.10566000000E+00  0.10566000000E+00 0.  1.
     999900   -1    0    0    0    0 -0.00000000000E+00 -0.00000000000E+00 -0.74505805969E-08  0.93827000000E+00  0.93827000000E+00 0. -1.
     999902    2    1    2    0    0  0.22329418834E-01 -0.69591503850E-02  0.19188871143E-03  0.10205404822E+01  0.10202724177E+01 0.  0.
     999903    2    3    3    0    0  0.60200535541E-01  0.34097143483E-01 -0.11038833425E+00  0.13186291054E+00  0.20384385261E-01 0.  0.
         14    1    1    2    0    0 -0.22329418834E-01  0.69591503850E-02 -0.19188871143E-03  0.23389517756E-01  0.00000000000E+00 0.  1.
     999901    1    3    3    0    0 -0.37871116707E-01 -0.41056293868E-01  0.11058022297E+00  0.88867757171E+00  0.88000000000E+00 0.  1.
        -11    1    4    4    0    0  0.12507907799E-01  0.12330825490E-02 -0.10452012402E-01  0.16354630364E-01  0.51100000000E-03 0. -1.
         11    1    4    4    0    0  0.47692627743E-01  0.32864060934E-01 -0.99936321852E-01  0.11550828017E+00  0.51100000000E-03 0.  1.
</event>
<event>
 8    1  0.1030163E+005  0.1043930E+01  0.7957747E-01            NaN
         13   -1    0    0    0    0  0.00000000000E+00  0.00000000000E+00  0.74505805969E-08  0.10566000000E+00  0.10566000000E+00 0.  1.
     999900   -1    0    0    0    0 -0.00000000000E+00 -0.00000000000E+00 -0.74505805969E-08  0.93827000000E+00  0.93827000000E+00 0. -1.
     999902    2    1    2    0    0  0.24856478678E-02 -0.98206051512E-02  0.20431799216E-01  0.10211247122E+01  0.10208700195E+01 0.  0.
     999903    2    3    3    0    0  0.11877806813E+00  0.47710601976E-01  0.23076382333E-01  0.13160756196E+00  0.20087307779E-01 0.  0.
         14    1    1    2    0    0 -0.24856478678E-02  0.98206051512E-02 -0.20431799216E-01  0.22805287766E-01  0.00000000000E+00 0. -1.
     999901    1    3    3    0    0 -0.11629242027E+00 -0.57531207127E-01 -0.26445831162E-02  0.88951715027E+00  0.88000000000E+00 0. -1.
        -11    1    4    4    0    0  0.31396196287E-01  0.12400624269E-01 -0.27879522345E-02  0.33875218408E-01  0.51100000000E-03 0. -1.
         11    1    4    4    0    0  0.87381871848E-01  0.35309977707E-01  0.25864334567E-01  0.97732343556E-01  0.51100000000E-03 0.  1.
</event>
<event>
 8    1  0.1030163E+005  0.1043930E+01  0.7957747E-01            NaN
         13   -1    0    0    0    0  0.00000000000E+00  0.00000000000E+00  0.74505805969E-08  0.10566000000E+00  0.10566000000E+00 0. -1.
     999900   -1    0    0    0    0 -0.00000000000E+00 -0.00000000000E+00 -0.74505805969E-08  0.93827000000E+00  0.93827000000E+00 0.  1.
     999902    2    1    2    0    0  0.15773284829E-01  0.97555763353E-02  0.14149388568E-01  0.10206024845E+01  0.10203358557E+01 0.  0.
     999903    2    3    3    0    0 -0.52256684984E-01 -0.60401512872E-01 -0.98128027678E-01  0.12810244965E+00  0.20050533839E-01 0.  0.
         14    1    1    2    0    0 -0.15773284829E-01 -0.97555763353E-02 -0.14149388568E-01  0.23327515529E-01  0.00000000000E+00 0.  1.
     999901    1    3    3    0    0  0.68029969813E-01  0.70157089207E-01  0.11227741625E+00  0.89250003482E+00  0.88000000000E+00 0.  1.
        -11    1    4    4    0    0 -0.26110726770E-01 -0.44878958855E-01 -0.60814579732E-01  0.79966025469E-01  0.51100000000E-03 0. -1.
         11    1    4    4    0    0 -0.26145958214E-01 -0.15522554017E-01 -0.37313447946E-01  0.48136424179E-01  0.51100000000E-03 0.  1.
</event>
<event>
 8    1  0.1030163E+005  0.1043930E+01  0.7957747E-01            NaN
         13   -1    0    0    0    0  0.00000000000E+00  0.00000000000E+00  0.74505805969E-08  0.10566000000E+00  0.10566000000E+00 0. -1.
     999900   -1    0    0    0    0 -0.00000000000E+00 -0.00000000000E+00 -0.74505805969E-08  0.93827000000E+00  0.93827000000E+00 0. -1.
     999902    2    1    2    0    0  0.15537777653E-01 -0.18860739546E-01 -0.85365383151E-04  0.10194931975E+01  0.10192002857E+01 0.  0.
     999903    2    3    3    0    0  0.84345069858E-02 -0.18682760110E-01 -0.12712139464E+00  0.13034268104E+00  0.20228175726E-01 0.  0.
         14    1    1    2    0    0 -0.15537777653E-01  0.18860739546E-01  0.85365383151E-04  0.24436802530E-01  0.00000000000E+00 0.  1.
     999901    1    3    3    0    0  0.71032706670E-02 -0.17797943616E-03  0.12703602926E+00  0.88915051643E+00  0.88000000000E+00 0.  1.
        -11    1    4    4    0    0 -0.39217757369E-02 -0.46488412096E-02 -0.69360043233E-01  0.69628074566E-01  0.51100000000E-03 0. -1.
         11    1    4    4    0    0  0.12356282723E-01 -0.14033918901E-01 -0.57761351408E-01  0.60714606479E-01  0.51100000000E-03 0.  1.
</event>
<event>
 8    1  0.1030163E+005  0.1043930E+01  0.7957747E-01            NaN
         13   -1    0    0    0    0  0.00000000000E+00  0.00000000000E+00  0.74505805969E-08  0.10566000000E+00  0.10566000000E+00 0.  1.
     999900   -1    0    0    0    0 -0.00000000000E+00 -0.00000000000E+00 -0.74505805969E-08  0.93827000000E+00  0.93827000000E+00 0.  1.
     999902    2    1    2    0    0  0.20674718698E-02  0.15070489792E-01 -0.18552813464E-01  0.10199383141E+01  0.10196561007E+01 0.  0.
     999903    2    3    3    0    0  0.73960330135E-01  0.95251064222E-01 -0.51691773146E-01  0.13275417417E+00  0.20217212445E-01 0.  0.
         14    1    1    2    0    0 -0.20674718698E-02 -0.15070489792E-01  0.18552813464E-01  0.23991685850E-01  0.00000000000E+00 0. -1.
     999901    1    3    3    0    0 -0.71892858265E-01 -0.80180574430E-01  0.33138959682E-01  0.88718413998E+00  0.88000000000E+00 0. -1.
        -11    1    4    4    0    0  0.26655664660E-01  0.41148984567E-01 -0.11311304298E-01  0.50318685548E-01  0.51100000000E-03 0. -1.
         11    1    4    4    0    0  0.47304665475E-01  0.54102079655E-01 -0.40380468848E-01  0.82435488621E-01  0.51100000000E-03 0.  1.
</event>
<event>
 8    1  0.1030163E+005  0.1043930E+01  0.7957747E-01            NaN
         13   -1    0    0    0    0  0.00000000000E+00  0.00000000000E+00  0.74505805969E-08  0.10566000000E+00  0.10566000000E+00 0. -1.
     999900   -1    0    0    0    0 -0.00000000000E+00 -0.00000000000E+00 -0.74505805969E-08  0.93827000000E+00  0.93827000000E+00 0. -1.
     999902    2    1    2    0    0  0.11834973259E-01 -0.10902822673E-01  0.10790001581E-01  0.10245557318E+01  0.10243725325E+01 0.  0.
     999903    2    3    3    0    0  0.12369300582E+00  0.13304411496E-01  0.51474476857E-01  0.13621264708E+00  0.20671149058E-01 0.  0.
         14    1    1    2    0    0 -0.11834973259E-01  0.10902822673E-01 -0.10790001581E-01  0.19374268203E-01  0.00000000000E+00 0.  1.
     999901    1    3    3    0    0 -0.11185803256E+00 -0.24207234169E-01 -0.40684475276E-01  0.88834308472E+00  0.88000000000E+00 0. -1.
        -11    1    4    4    0    0  0.64869569335E-01 -0.15653877823E-02  0.20268177549E-01  0.67982141822E-01  0.51100000000E-03 0.  1.
         11    1    4    4    0    0  0.58823436484E-01  0.14869799278E-01  0.31206299308E-01  0.68230505259E-01  0.51100000000E-03 0. -1.
</event>
<event>
 8    1  0.1030163E+005  0.1043930E+01  0.7957747E-01            NaN
         13   -1    0    0    0    0  0.00000000000E+00  0.00000000000E+00  0.74505805969E-08  0.10566000000E+00  0.10566000000E+00 0. -1.
     999900   -1    0    0    0    0 -0.00000000000E+00 -0.00000000000E+00 -0.74505805969E-08  0.93827000000E+00  0.93827000000E+00 0. -1.
     999902    2    1    2    0    0  0.87866167960E-02 -0.12837264346E-01 -0.23867562527E-01  0.10154403434E+01  0.10150406054E+01 0.  0.
     999903    2    3    3    0    0  0.12701860939E-01 -0.29403071894E-01 -0.12382248658E+00  0.12961827215E+00  0.21047811845E-01 0.  0.
         14    1    1    2    0    0 -0.87866167960E-02  0.12837264346E-01  0.23867562527E-01  0.28489656572E-01  0.00000000000E+00 0. -1.
     999901    1    3    3    0    0 -0.39152441426E-02  0.16565807548E-01  0.99954924057E-01  0.88582207128E+00  0.88000000000E+00 0.  1.
        -11    1    4    4    0    0  0.86856748955E-02 -0.31073546666E-01 -0.91981758815E-01  0.97477747853E-01  0.51100000000E-03 0. -1.
         11    1    4    4    0    0  0.40161860430E-02  0.16704747718E-02 -0.31840727770E-01  0.32140524299E-01  0.51100000000E-03 0.  1.
</event>
<event>
 8    1  0.1030163E+005  0.1043930E+01  0.7957747E-01            NaN
         13   -1    0    0    0    0  0.00000000000E+00  0.00000000000E+00  0.74505805969E-08  0.10566000000E+00  0.10566000000E+00 0. -1.
     999900   -1    0    0    0    0 -0.00000000000E+00 -0.00000000000E+00 -0.74505805969E-08  0.93827000000E+00  0.93827000000E+00 0.  1.
     999902    2    1    2    0    0  0.13837227277E-01 -0.18504497504E-01  0.49385944531E-02  0.10203021562E+01  0.10200285364E+01 0.  0.
     999903    2    3    3    0    0 -0.99318514322E-01  0.49553335544E-01  0.61844183353E-01  0.12863274632E+00  0.20049440421E-01 0.  0.
         14    1    1    2    0    0 -0.13837227277E-01  0.18504497504E-01 -0.49385944531E-02  0.23627843781E-01  0.00000000000E+00 0.  1.
     999901    1    3    3    0    0  0.11315574160E+00 -0.68057833047E-01 -0.56905588900E-01  0.89166940990E+00  0.88000000000E+00 0.  1.
        -11    1    4    4    0    0 -0.65190292712E-01  0.21778553302E-01  0.35799847752E-01  0.77498192675E-01  0.51100000000E-03 0.  1.
         11    1    4    4    0    0 -0.34128221610E-01  0.27774782242E-01  0.26044335601E-01  0.51134553648E-01  0.51100000000E-03 0. -1.
</event>
<event>
 8    1  0.1030163E+005  0.1043930E+01  0.7957747E-01            NaN
         13   -1    0    0    0    0  0.00000000000E+00  0.00000000000E+00  0.74505805969E-08  0.10566000000E+00  0.10566000000E+00 0. -1.
     999900   -1    0    0    0    0 -0.00000000000E+00 -0.00000000000E+00 -0.74505805969E-08  0.93827000000E+00  0.93827000000E+00 0.  1.
     999902    2    1    2    0    0 -0.90811011556E-02  0.15350513391E-01  0.13989115735E-01  0.10212628427E+01  0.10210112604E+01 0.  0.
     999903    2    3    3    0    0 -0.10222084382E+00 -0.30739599045E-01 -0.73155690090E-01  0.13087330589E+00  0.19545929053E-01 0.  0.
         14    1    1    2    0    0  0.90811011556E-02 -0.15350513391E-01 -0.13989115735E-01  0.22667157268E-01  0.00000000000E+00 0.  1.
     999901    1    3    3    0    0  0.93139742664E-01  0.46090112436E-01  0.87144805824E-01  0.89038953684E+00  0.88000000000E+00 0. -1.
        -11    1    4    4    0    0 -0.43304284885E-01 -0.32709017953E-02 -0.26854111502E-01  0.51062357109E-01  0.51100000000E-03 0.  1.
         11    1    4    4    0    0 -0.58916558935E-01 -0.27468697250E-01 -0.46301578587E-01  0.79810948785E-01  0.51100000000E-03 0. -1.
</event>
<event>
 8    1  0.1030163E+005  0.1043930E+01  0.7957747E-01            NaN
         13   -1    0    0    0    0  0.00000000000E+00  0.00000000000E+00  0.74505805969E-08  0.10566000000E+00  0.10566000000E+00 0. -1.
     999900   -1    0    0    0    0 -0.00000000000E+00 -0.00000000000E+00 -0.74505805969E-08  0.93827000000E+00  0.93827000000E+00 0.  1.
     999902    2    1    2    0    0 -0.13699030367E-01  0.97480736040E-02  0.13860398425E-01  0.10221401166E+01  0.10219078330E+01 0.  0.
     999903    2    3    3    0    0  0.12570072311E+00  0.52756635696E-03 -0.27315147000E-01  0.13016885334E+00  0.19921420853E-01 0.  0.
         14    1    1    2    0    0  0.13699030367E-01 -0.97480736040E-02 -0.13860398425E-01  0.21789883352E-01  0.00000000000E+00 0.  1.
     999901    1    3    3    0    0 -0.13939975347E+00  0.92205072470E-02  0.41175545425E-01  0.89197126331E+00  0.88000000000E+00 0.  1.
        -11    1    4    4    0    0  0.11882822747E+00 -0.40277567688E-02 -0.26869669845E-01  0.12189590127E+00  0.51100000000E-03 0.  1.
         11    1    4    4    0    0  0.68724956373E-02  0.45553231258E-02 -0.44547715514E-03  0.82729520705E-02  0.51100000000E-03 0. -1.
</event>
<event>
 8    1  0.1030163E+005  0.1043930E+01  0.7957747E-01            NaN
         13   -1    0    0    0    0  0.00000000000E+00  0.00000000000E+00  0.74505805969E-08  0.10566000000E+00  0.10566000000E+00 0. -1.
     999900   -1    0    0    0    0 -0.00000000000E+00 -0.00000000000E+00 -0.74505805969E-08  0.93827000000E+00  0.93827000000E+00 0. -1.
     999902    2    1    2    0    0  0.23199762389E-02 -0.20367898190E-01 -0.12551603689E-01  0.10198930218E+01  0.10196097290E+01 0.  0.
     999903    2    3    3    0    0 -0.66263150009E-01  0.91779609271E-01  0.55903196251E-01  0.12749918033E+00  0.17792467704E-01 0.  0.
         14    1    1    2    0    0 -0.23199762389E-02  0.20367898190E-01  0.12551603689E-01  0.24036978212E-01  0.00000000000E+00 0. -1.
     999901    1    3    3    0    0  0.68583126248E-01 -0.11214750746E+00 -0.68454799940E-01  0.89239384146E+00  0.88000000000E+00 0. -1.
        -11    1    4    4    0    0 -0.38645012153E-01  0.67161788024E-01  0.35313850252E-01  0.85155574541E-01  0.51100000000E-03 0.  1.
         11    1    4    4    0    0 -0.27618137856E-01  0.24617821246E-01  0.20589345999E-01  0.42343605789E-01  0.51100000000E-03 0. -1.
</event>
<event>
 8    1  0.1030163E+005  0.1043930E+01  0.7957747E-01            NaN
         13   -1    0    0    0    0  0.00000000000E+00  0.00000000000E+00  0.74505805969E-08  0.10566000000E+00  0.10566000000E+00 0. -1.
     999900   -1    0    0    0    0 -0.00000000000E+00 -0.00000000000E+00 -0.74505805969E-08  0.93827000000E+00  0.93827000000E+00 0. -1.
     999902    2    1    2    0    0 -0.23565058820E-01  0.88626252098E-02 -0.29300516209E-02  0.10185835343E+01  0.10182681243E+01 0.  0.
     999903    2    3    3    0    0  0.37360626693E-01 -0.89075029962E-01 -0.81011651814E-01  0.12762873196E+00  0.19900454844E-01 0.  0.
         14    1    1    2    0    0  0.23565058820E-01 -0.88626252098E-02  0.29300516209E-02  0.25346465736E-01  0.00000000000E+00 0.  1.
     999901    1    3    3    0    0 -0.60925685513E-01  0.97937655172E-01  0.78081600193E-01  0.89095480230E+00  0.88000000000E+00 0.  1.
        -11    1    4    4    0    0  0.76584242375E-03 -0.14213553058E-01 -0.58070564142E-02  0.15381632889E-01  0.51100000000E-03 0. -1.
         11    1    4    4    0    0  0.36594784269E-01 -0.74861476904E-01 -0.75204595400E-01  0.11224709907E+00  0.51100000000E-03 0.  1.
</event>
<event>
 8    1  0.1030163E+005  0.1043930E+01  0.7957747E-01            NaN
         13   -1    0    0    0    0  0.00000000000E+00  0.00000000000E+00  0.74505805969E-08  0.10566000000E+00  0.10566000000E+00 0. -1.
     999900   -1    0    0    0    0 -0.00000000000E+00 -0.00000000000E+00 -0.74505805969E-08  0.93827000000E+00  0.93827000000E+00 0. -1.
     999902    2    1    2    0    0  0.79272254044E-02 -0.23316290683E-01  0.59132802132E-02  0.10186029947E+01  0.10182880750E+01 0.  0.
     999903    2    3    3    0    0 -0.52363629173E-01 -0.40764800878E-01 -0.10862302413E+00  0.12896374049E+00  0.20711502578E-01 0.  0.
         14    1    1    2    0    0 -0.79272254044E-02  0.23316290683E-01 -0.59132802132E-02  0.25327005285E-01  0.00000000000E+00 0. -1.
     999901    1    3    3    0    0  0.60290854577E-01  0.17448510195E-01  0.11453630434E+00  0.88963925423E+00  0.88000000000E+00 0.  1.
        -11    1    4    4    0    0 -0.39616868535E-02  0.23995703591E-02 -0.70019573124E-02  0.84107923430E-02  0.51100000000E-03 0.  1.
         11    1    4    4    0    0 -0.48401942319E-01 -0.43164371237E-01 -0.10162106681E+00  0.12055294814E+00  0.51100000000E-03 0. -1.
</event>
<event>
 8    1  0.1030163E+005  0.1043930E+01  0.7957747E-01            NaN
         13   -1    0    0    0    0  0.00000000000E+00  0.00000000000E+00  0.74505805969E-08  0.10566000000E+00  0.10566000000E+00 0.  1.
     999900   -1    0    0    0    0 -0.00000000000E+00 -0.00000000000E+00 -0.74505805969E-08  0.93827000000E+00  0.93827000000E+00 0.  1.
     999902    2    1    2    0    0 -0.14078061301E-01 -0.34221193189E-02 -0.18151573804E-01  0.10207053936E+01  0.10204411390E+01 0.  0.
     999903    2    3    3    0    0 -0.23244829185E-01 -0.37661501607E-01 -0.12448146744E+00  0.13359637482E+00  0.19840484883E-01 0.  0.
         14    1    1    2    0    0  0.14078061301E-01  0.34221193189E-02  0.18151573804E-01  0.23224606394E-01  0.00000000000E+00 0.  1.
     999901    1    3    3    0    0  0.91667678841E-02  0.34239382288E-01  0.10632989364E+00  0.88710901879E+00  0.88000000000E+00 0. -1.
        -11    1    4    4    0    0  0.22874363774E-02 -0.12198716968E-01 -0.30385324976E-01  0.32826363730E-01  0.51100000000E-03 0. -1.
         11    1    4    4    0    0 -0.25532265562E-01 -0.25462784639E-01 -0.94096142468E-01  0.10077001109E+00  0.51100000000E-03 0.  1.
</event>
<event>
 8    1  0.1030163E+005  0.1043930E+01  0.7957747E-01            NaN
         13   -1    0    0    0    0  0.00000000000E+00  0.00000000000E+00  0.74505805969E-08  0.10566000000E+00  0.10566000000E+00 0.  1.
     999900   -1    0    0    0    0 -0.00000000000E+00 -0.00000000000E+00 -0.74505805969E-08  0.93827000000E+00  0.93827000000E+00 0.  1.
     999902    2    1    2    0    0 -0.24360774372E-03 -0.23185670665E-01 -0.46551956784E-02  0.10202803591E+01  0.10200062282E+01 0.  0.
     999903    2    3    3    0    0 -0.12386669532E+00  0.19770905649E-01  0.28671102233E-01  0.12997783894E+00  0.18394553336E-01 0.  0.
         14    1    1    2    0    0  0.24360774372E-03  0.23185670665E-01  0.46551956784E-02  0.23649640922E-01  0.00000000000E+00 0.  1.
     999901    1    3    3    0    0  0.12362308758E+00 -0.42956576314E-01 -0.33326297911E-01  0.89030252014E+00  0.88000000000E+00 0.  1.
        -11    1    4    4    0    0 -0.69068860761E-01  0.38139610350E-02  0.21574313143E-01  0.72462168986E-01  0.51100000000E-03 0. -1.
         11    1    4    4    0    0 -0.54797834560E-01  0.15956944614E-01  0.70967890899E-02  0.57515669954E-01  0.51100000000E-03 0.  1.
</event>
<event>
 8    1  0.1030163E+005  0.1043930E+01  0.7957747E-01            NaN
         13   -1    0    0    0    0  0.00000000000E+00  0.00000000000E+00  0.74505805969E-08  0.10566000000E+00  0.10566000000E+00 0.  1.
     999900   -1    0    0    0    0 -0.00000000000E+00 -0.00000000000E+00 -0.74505805969E-08  0.93827000000E+00  0.93827000000E+00 0.  1.
     999902    2    1    2    0    0 -0.37492230738E-02  0.64910108944E-02  0.22332479033E-01  0.10203730580E+01  0.10201010970E+01 0.  0.
     999903    2    3    3    0    0  0.12724460636E+00 -0.64019211639E-03  0.24030755732E-01  0.13064662728E+00  0.17305036954E-01 0.  0.
         14    1    1    2    0    0  0.37492230738E-02 -0.64910108944E-02 -0.22332479033E-01  0.23556941989E-01  0.00000000000E+00 0. -1.
     999901    1    3    3    0    0 -0.13099382943E+00  0.71312030108E-02 -0.16982766984E-02  0.88972643074E+00  0.88000000000E+00 0. -1.
        -11    1    4    4    0    0  0.86908858802E-01 -0.17112037458E-02  0.24417797267E-01  0.90291571594E-01  0.51100000000E-03 0. -1.
         11    1    4    4    0    0  0.40335747557E-01  0.10710116294E-02 -0.38704153563E-03  0.40355055681E-01  0.51100000000E-03 0.  1.
</event>
<event>
 8    1  0.1030163E+005  0.1043930E+01  0.7957747E-01            NaN
         13   -1    0    0    0    0  0.00000000000E+00  0.00000000000E+00  0.74505805969E-08  0.10566000000E+00  0.10566000000E+00 0. -1.
     999900   -1    0    0    0    0 -0.00000000000E+00 -0.00000000000E+00 -0.74505805969E-08  0.93827000000E+00  0.93827000000E+00 0. -1.
     999902    2    1    2    0    0 -0.50814941144E-02  0.21939126691E-01  0.55861390717E-02  0.10207275904E+01  0.10204638465E+01 0.  0.
     999903    2    3    3    0    0 -0.12502151762E+00 -0.22011355882E-01 -0.24884734682E-01  0.13098283580E+00  0.20551729778E-01 0.  0.
         14    1    1    2    0    0  0.50814941144E-02 -0.21939126691E-01 -0.55861390717E-02  0.23202409619E-01  0.00000000000E+00 0.  1.
     999901    1    3    3    0    0  0.11994002351E+00  0.43950482574E-01  0.30470873754E-01  0.88974475458E+00  0.88000000000E+00 0. -1.
        -11    1    4    4    0    0 -0.20973904478E-01  0.39682266868E-02 -0.38648236168E-02  0.21699066217E-01  0.51100000000E-03 0.  1.
         11    1    4    4    0    0 -0.10404761315E+00 -0.25979582569E-01 -0.21019911065E-01  0.10928376958E+00  0.51100000000E-03 0. -1.
</event>
<event>
 8    1  0.1030163E+005  0.1043930E+01  0.7957747E-01            NaN
         13   -1    0    0    0    0  0.00000000000E+00  0.00000000000E+00  0.74505805969E-08  0.10566000000E+00  0.10566000000E+00 0.  1.
     999900   -1    0    0    0    0 -0.00000000000E+00 -0.00000000000E+00 -0.74505805969E-08  0.93827000000E+00  0.93827000000E+00 0. -1.
     999902    2    1    2    0    0  0.16841351684E-01  0.53655901446E-02  0.16074607950E-01  0.10200382921E+01  0.10197584536E+01 0.  0.
     999903    2    3    3    0    0 -0.88674024288E-01  0.50451046837E-01 -0.74470781515E-01  0.12798186985E+00  0.20617250094E-01 0.  0.
         14    1    1    2    0    0 -0.16841351684E-01 -0.53655901446E-02 -0.16074607950E-01  0.23891707869E-01  0.00000000000E+00 0. -1.
     999901    1    3    3    0    0  0.10551537597E+00 -0.45085456693E-01  0.90545389466E-01  0.89205642228E+00  0.88000000000E+00 0. -1.
        -11    1    4    4    0    0 -0.34784645454E-01  0.30524348379E-01 -0.28076817344E-01  0.54132025608E-01  0.51100000000E-03 0.  1.
         11    1    4    4    0    0 -0.53889378835E-01  0.19926698459E-01 -0.46393964171E-01  0.73849844246E-01  0.51100000000E-03 0. -1.
</event>
<event>
 8    1  0.1030163E+005  0.1043930E+01  0.7957747E-01            NaN
         13   -1    0    0    0    0  0.00000000000E+00  0.00000000000E+00  0.74505805969E-08  0.10566000000E+00  0.10566000000E+00 0.  1.
     999900   -1    0    0    0    0 -0.00000000000E+00 -0.00000000000E+00 -0.74505805969E-08  0.93827000000E+00  0.93827000000E+00 0.  1.
     999902    2    1    2    0    0 -0.20053005579E-01  0.23142045410E-01 -0.41851314967E-02  0.10130238093E+01  0.10125522434E+01 0.  0.
     999903    2    3    3    0    0  0.70049147320E-01  0.10095894601E+00  0.10158019887E-01  0.12489116494E+00  0.19875258257E-01 0.  0.
         14    1    1    2    0    0  0.20053005579E-01 -0.23142045410E-01  0.41851314967E-02  0.30906190710E-01  0.00000000000E+00 0.  1.
     999901    1    3    3    0    0 -0.90102152899E-01 -0.77816900603E-01 -0.14343151384E-01  0.88813264435E+00  0.88000000000E+00 0.  1.
        -11    1    4    4    0    0  0.28536773956E-01  0.45821378382E-01  0.13985624599E-01  0.55765625623E-01  0.51100000000E-03 0. -1.
         11    1    4    4    0    0  0.41512373364E-01  0.55137567631E-01 -0.38276047121E-02  0.69125539313E-01  0.51100000000E-03 0.  1.
</event>
<event>
 8    1  0.1030163E+005  0.1043930E+01  0.7957747E-01            NaN
         13   -1    0    0    0    0  0.00000000000E+00  0.00000000000E+00  0.74505805969E-08  0.10566000000E+00  0.10566000000E+00 0. -1.
     999900   -1    0    0    0    0 -0.00000000000E+00 -0.00000000000E+00 -0.74505805969E-08  0.93827000000E+00  0.93827000000E+00 0.  1.
     999902    2    1    2    0    0 -0.45887360749E-02  0.66965610315E-02 -0.23216734120E-01  0.10193349360E+01  0.10190381713E+01 0.  0.
     999903    2    3    3    0    0 -0.33682324938E-01  0.63006329310E-01  0.10408286935E+00  0.12791897479E+00  0.20633077124E-01 0.  0.
         14    1    1    2    0    0  0.45887360749E-02 -0.66965610315E-02  0.23216734120E-01  0.24595063968E-01  0.00000000000E+00 0. -1.
     999901    1    3    3    0    0  0.29093588863E-01 -0.56309768278E-01 -0.12729960347E+00  0.89141596124E+00  0.88000000000E+00 0. -1.
        -11    1    4    4    0    0 -0.10536167996E-01  0.18947388092E-01  0.16758653299E-01  0.27406713282E-01  0.51100000000E-03 0.  1.
         11    1    4    4    0    0 -0.23146156942E-01  0.44058941218E-01  0.87324216055E-01  0.10051226151E+00  0.51100000000E-03 0. -1.
</event>
<event>
 8    1  0.1030163E+005  0.1043930E+01  0.7957747E-01            NaN
         13   -1    0    0    0    0  0.00000000000E+00  0.00000000000E+00  0.74505805969E-08  0.10566000000E+00  0.10566000000E+00 0.  1.
     999900   -1    0    0    0    0 -0.00000000000E+00 -0.00000000000E+00 -0.74505805969E-08  0.93827000000E+00  0.93827000000E+00 0. -1.
     999902    2    1    2    0    0  0.29466091784E-02 -0.21860084052E-01 -0.92001885883E-02  0.10200304341E+01  0.10197504093E+01 0.  0.
     999903    2    3    3    0    0 -0.81255078606E-01 -0.60040093121E-01 -0.82768495838E-01  0.13213408139E+00  0.20039735016E-01 0.  0.
         14    1    1    2    0    0 -0.29466091784E-02  0.21860084052E-01  0.92001885883E-02  0.23899565906E-01  0.00000000000E+00 0.  1.
     999901    1    3    3    0    0  0.84201687785E-01  0.38180009069E-01  0.73568307250E-01  0.88789635271E+00  0.88000000000E+00 0.  1.
        -11    1    4    4    0    0 -0.36072693824E-01 -0.37782053202E-01 -0.47871061393E-01  0.70856350624E-01  0.51100000000E-03 0. -1.
         11    1    4    4    0    0 -0.45182384783E-01 -0.22258039920E-01 -0.34897434445E-01  0.61277730764E-01  0.51100000000E-03 0.  1.
</event>
<event>
 7    1  0.1030163E+005  0.1043930E+01  0.7957747E-01            NaN
         13   -1    0    0    0    0  0.00000000000E+00  0.00000000000E+00  0.74505805969E-08  0.10566000000E+00  0.10566000000E+00 0. -1.
     999900   -1    0    0    0    0 -0.00000000000E+00 -0.00000000000E+00 -0.74505805969E-08  0.93827000000E+00  0.93827000000E+00 0. -1.
     999902    2    1    2    0    0  0.17101867485E-01 -0.28614409831E-02  0.95756803157E-02  0.10241220377E+01  0.10239304629E+01 0.  0.
         14    1    1    2    0    0 -0.17101867485E-01  0.28614409831E-02 -0.95756803157E-02  0.19807962275E-01  0.00000000000E+00 0.  1.
     999901    1    3    3    0    0 -0.58519943123E-01 -0.85839052513E-01 -0.55401544391E-01  0.88784134720E+00  0.88000000000E+00 0. -1.
        -11    1    3    3    0    0 -0.13473519883E-02  0.19333493328E-01  0.15501302188E-01  0.24822385304E-01  0.51100000000E-03 0. -1.
         11    1    3    3    0    0  0.76969162596E-01  0.63644118202E-01  0.49475922518E-01  0.11145830522E+00  0.51100000000E-03 0.  1.
</event>
<event>
 8    1  0.1030163E+005  0.1043930E+01  0.7957747E-01            NaN
         13   -1    0    0    0    0  0.00000000000E+00  0.00000000000E+00  0.74505805969E-08  0.10566000000E+00  0.10566000000E+00 0.  1.
     999900   -1    0    0    0    0 -0.00000000000E+00 -0.00000000000E+00 -0.74505805969E-08  0.93827000000E+00  0.93827000000E+00 0. -1.
     999902    2    1    2    0    0 -0.16594478075E-01 -0.15741923270E-01  0.75166049433E-02  0.10198533682E+01  0.10195691288E+01 0.  0.
     999903    2    3    3    0    0  0.10423784136E+00 -0.74434897621E-01  0.30792515018E-02  0.12964833292E+00  0.19827427577E-01 0.  0.
         14    1    1    2    0    0  0.16594478075E-01  0.15741923270E-01 -0.75166049433E-02  0.24076631838E-01  0.00000000000E+00 0. -1.
     999901    1    3    3    0    0 -0.12083231944E+00  0.58692974351E-01  0.44373534415E-02  0.89020503524E+00  0.88000000000E+00 0. -1.
        -11    1    4    4    0    0  0.83575177835E-01 -0.68608760408E-01  0.30594544452E-02  0.10817390507E+00  0.51100000000E-03 0.  1.
         11    1    4    4    0    0  0.20662663526E-01 -0.58261372131E-02  0.19797056566E-04  0.21474427856E-01  0.51100000000E-03 0. -1.
</event>
<event>
 8    1  0.1030163E+005  0.1043930E+01  0.7957747E-01            NaN
         13   -1    0    0    0    0  0.00000000000E+00  0.00000000000E+00  0.74505805969E-08  0.10566000000E+00  0.10566000000E+00 0. -1.
     999900   -1    0    0    0    0 -0.00000000000E+00 -0.00000000000E+00 -0.74505805969E-08  0.93827000000E+00  0.93827000000E+00 0. -1.
     999902    2    1    2    0    0  0.35764877254E-02  0.55857342043E-02 -0.22302972310E-01  0.10206616897E+01  0.10203964281E+01 0.  0.
     999903    2    3    3    0    0  0.76233792921E-01  0.55213033675E-01  0.86671717783E-01  0.12958512960E+00  0.20499972671E-01 0.  0.
         14    1    1    2    0    0 -0.35764877254E-02 -0.55857342043E-02  0.22302972310E-01  0.23268310315E-01  0.00000000000E+00 0. -1.
     999901    1    3    3    0    0 -0.72657305196E-01 -0.49627299471E-01 -0.10897469009E+00  0.89107656008E+00  0.88000000000E+00 0. -1.
        -11    1    4    4    0    0  0.70510544813E-01  0.49498180819E-01  0.69839776701E-01  0.11090384288E+00  0.51100000000E-03 0. -1.
         11    1    4    4    0    0  0.57232481081E-02  0.57148528556E-02  0.16831941083E-01  0.18681286724E-01  0.51100000000E-03 0.  1.
</event>
<event>
 8    1  0.1030163E+005  0.1043930E+01  0.7957747E-01            NaN
         13   -1    0    0    0    0  0.00000000000E+00  0.00000000000E+00  0.74505805969E-08  0.10566000000E+00  0.10566000000E+00 0.  1.
     999900   -1    0    0    0    0 -0.00000000000E+00 -0.00000000000E+00 -0.74505805969E-08  0.93827000000E+00  0.93827000000E+00 0.  1.
     999902    2    1    2    0    0  0.55218668271E-02 -0.13055066480E-01  0.17112466468E-01  0.10217092376E+01  0.10214675736E+01 0.  0.
     999903    2    3    3    0    0 -0.27361377679E-01  0.13133178002E-01 -0.12417703740E+00  0.12944814584E+00  0.20390205796E-01 0.  0.
         14    1    1    2    0    0 -0.55218668271E-02  0.13055066480E-01 -0.17112466468E-01  0.22220762423E-01  0.00000000000E+00 0. -1.
     999901    1    3    3    0    0  0.32883244506E-01 -0.26188244482E-01  0.14128950387E+00  0.89226109173E+00  0.88000000000E+00 0. -1.
        -11    1    4    4    0    0 -0.12605023013E-01 -0.46148861034E-02 -0.48761490665E-01  0.50577938588E-01  0.51100000000E-03 0.  1.
         11    1    4    4    0    0 -0.14756354667E-01  0.17748064105E-01 -0.75415546733E-01  0.78870207256E-01  0.51100000000E-03 0. -1.
</event>
<event>
 8    1  0.1030163E+005  0.1043930E+01  0.7957747E-01            NaN
         13   -1    0    0    0    0  0.00000000000E+00  0.00000000000E+00  0.74505805969E-08  0.10566000000E+00  0.10566000000E+00 0. -1.
     999900   -1    0    0    0    0 -0.00000000000E+00 -0.00000000000E+00 -0.74505805969E-08  0.93827000000E+00  0.93827000000E+00 0.  1.
     999902    2    1    2    0    0  0.18595223949E-01 -0.22957875621E-02  0.11025533876E-01  0.10221902808E+01  0.10219590768E+01 0.  0.
     999903    2    3    3    0    0 -0.22402984915E-01  0.70531581906E-01  0.10851853530E+00  0.13287056089E+00  0.20042845771E-01 0.  0.
         14    1    1    2    0    0 -0.18595223949E-01  0.22957875621E-02 -0.11025533876E-01  0.21739719214E-01  0.00000000000E+00 0.  1.
     999901    1    3    3    0    0  0.40998208864E-01 -0.72827369469E-01 -0.97493001428E-01  0.88931971990E+00  0.88000000000E+00 0.  1.
        -11    1    4    4    0    0 -0.60489423236E-02  0.61622567327E-02  0.23121213942E-01  0.24686327520E-01  0.51100000000E-03 0.  1.
         11    1    4    4    0    0 -0.16354042592E-01  0.64369325174E-01  0.85397321362E-01  0.10818423337E+00  0.51100000000E-03 0. -1.
</event>
<event>
 8    1  0.1030163E+005  0.1043930E+01  0.7957747E-01            NaN
         13   -1    0    0    0    0  0.00000000000E+00  0.00000000000E+00  0.74505805969E-08  0.10566000000E+00  0.10566000000E+00 0. -1.
     999900   -1    0    0    0    0 -0.00000000000E+00 -0.00000000000E+00 -0.74505805969E-08  0.93827000000E+00  0.93827000000E+00 0.  1.
     999902    2    1    2    0    0 -0.18138345419E-01  0.21969166379E-03 -0.15146623398E-01  0.10202980716E+01  0.10200243560E+01 0.  0.
     999903    2    3    3    0    0  0.34913874980E-01 -0.11802922645E+00 -0.37787236963E-01  0.13051723224E+00  0.21377457091E-01 0.  0.
         14    1    1    2    0    0  0.18138345419E-01 -0.21969166379E-03  0.15146623398E-01  0.23631928387E-01  0.00000000000E+00 0. -1.
     999901    1    3    3    0    0 -0.53052220399E-01  0.11824891812E+00  0.22640613565E-01  0.88978083937E+00  0.88000000000E+00 0.  1.
        -11    1    4    4    0    0  0.30443734164E-02 -0.19655321206E-01 -0.14224381888E-01  0.24458005280E-01  0.51100000000E-03 0. -1.
         11    1    4    4    0    0  0.31869501564E-01 -0.98373905248E-01 -0.23562855075E-01  0.10605922696E+00  0.51100000000E-03 0.  1.
</event>
<event>
 8    1  0.1030163E+005  0.1043930E+01  0.7957747E-01            NaN
         13   -1    0    0    0    0  0.00000000000E+00  0.00000000000E+00  0.74505805969E-08  0.10566000000E+00  0.10566000000E+00 0. -1.
     999900   -1    0    0    0    0 -0.00000000000E+00 -0.00000000000E+00 -0.74505805969E-08  0.93827000000E+00  0.93827000000E+00 0.  1.
     999902    2    1    2    0    0  0.10158817786E-01 -0.14702023371E-01  0.10422726482E-01  0.10232422186E+01  0.10230330658E+01 0.  0.
     999903    2    3    3    0    0 -0.38621690489E-01 -0.74083209691E-01 -0.10226526541E+00  0.13273435973E+00  0.13426422007E-01 0.  0.
         14    1    1    2    0    0 -0.10158817786E-01  0.14702023371E-01 -0.10422726482E-01  0.20687781353E-01  0.00000000000E+00 0.  1.
     999901    1    3    3    0    0  0.48780508274E-01  0.59381186320E-01  0.11268799190E+00  0.89050785892E+00  0.88000000000E+00 0. -1.
        -11    1    4    4    0    0 -0.32400501703E-01 -0.63607207545E-01 -0.93866285464E-01  0.11792713865E+00  0.51100000000E-03 0. -1.
         11    1    4    4    0    0 -0.62211887856E-02 -0.10476002146E-01 -0.83989799507E-02  0.14807221079E-01  0.51100000000E-03 0.  1.
</event>
<event>
 8    1  0.1030163E+005  0.1043930E+01  0.7957747E-01            NaN
         13   -1    0    0    0    0  0.00000000000E+00  0.00000000000E+00  0.74505805969E-08  0.10566000000E+00  0.10566000000E+00 0.  1.
     999900   -1    0    0    0    0 -0.00000000000E+00 -0.00000000000E+00 -0.74505805969E-08  0.93827000000E+00  0.93827000000E+00 0.  1.
     999902    2    1    2    0    0 -0.37075581838E-02  0.23148328975E-01 -0.45421307127E-02  0.10200506769E+01  0.10197711318E+01 0.  0.
     999903    2    3    3    0    0  0.64085536259E-02  0.58541145536E-01 -0.11697190766E+00  0.13213432837E+00  0.17576070972E-01 0.  0.
         14    1    1    2    0    0  0.37075581838E-02 -0.23148328975E-01  0.45421307127E-02  0.23879323136E-01  0.00000000000E+00 0.  1.
     999901    1    3    3    0    0 -0.10116111810E-01 -0.35392816562E-01  0.11242977695E+00  0.88791634850E+00  0.88000000000E+00 0. -1.
        -11    1    4    4    0    0 -0.12135454398E-02  0.46218580503E-01 -0.79688685787E-01  0.92131306513E-01  0.51100000000E-03 0.  1.
         11    1    4    4    0    0  0.76220990658E-02  0.12322565033E-01 -0.37283221875E-01  0.40003021855E-01  0.51100000000E-03 0. -1.
</event>
<event>
 8    1  0.1340944E+005  0.1043930E+01  0.7957747E-01            NaN
         13   -1    0    0    0    0  0.00000000000E+00  0.00000000000E+00  0.74505805969E-08  0.10566000000E+00  0.10566000000E+00 0. -1.
     999900   -1    0    0    0    0 -0.00000000000E+00 -0.00000000000E+00 -0.74505805969E-08  0.93827000000E+00  0.93827000000E+00 0. -1.
     999902    2    1    2    0    0  0.21918871184E-01 -0.24658153608E-03 -0.12870441509E-01  0.10185105983E+01  0.10181933475E+01 0.  0.
     999903    2    3    3    0    0 -0.32247017301E-01 -0.99976626618E-01 -0.72865202381E-01  0.12919659490E+00  0.18634012493E-01 0.  0.
         14    1    1    2    0    0 -0.21918871184E-01  0.24658153608E-03  0.12870441509E-01  0.25419401666E-01  0.00000000000E+00 0. -1.
     999901    1    3    3    0    0  0.54165888485E-01  0.99730045082E-01  0.59994760871E-01  0.88931400343E+00  0.88000000000E+00 0.  1.
        -11    1    4    4    0    0 -0.13117169283E-01 -0.67605646450E-01 -0.43161773948E-01  0.81275970700E-01  0.51100000000E-03 0.  1.
         11    1    4    4    0    0 -0.19129848019E-01 -0.32370980168E-01 -0.29703428433E-01  0.47920624202E-01  0.51100000000E-03 0. -1.
</event>
<event>
 8    1  0.1030163E+005  0.1043930E+01  0.7957747E-01            NaN
         13   -1    0    0    0    0  0.00000000000E+00  0.00000000000E+00  0.74505805969E-08  0.10566000000E+00  0.10566000000E+00 0.  1.
     999900   -1    0    0    0    0 -0.00000000000E+00 -0.00000000000E+00 -0.74505805969E-08  0.93827000000E+00  0.93827000000E+00 0. -1.
     999902    2    1    2    0    0  0.43580540148E-02  0.16318102647E-01 -0.13087169038E-01  0.10225630371E+01  0.10223397761E+01 0.  0.
     999903    2    3    3    0    0  0.63934886757E-02  0.13211734790E+00  0.14461868148E-01  0.13454695752E+00  0.19946624648E-01 0.  0.
         14    1    1    2    0    0 -0.43580540148E-02 -0.16318102647E-01  0.13087169038E-01  0.21366962868E-01  0.00000000000E+00 0.  1.
     999901    1    3    3    0    0 -0.20354346609E-02 -0.11579924525E+00 -0.27549037186E-01  0.88801607961E+00  0.88000000000E+00 0. -1.
        -11    1    4    4    0    0  0.65966760288E-02  0.21084666666E-01 -0.24443629993E-02  0.22233203424E-01  0.51100000000E-03 0.  1.
         11    1    4    4    0    0 -0.20318735304E-03  0.11103268123E+00  0.16906231148E-01  0.11231375410E+00  0.51100000000E-03 0. -1.
</event>
<event>
 8    1  0.1030163E+005  0.1043930E+01  0.7957747E-01            NaN
         13   -1    0    0    0    0  0.00000000000E+00  0.00000000000E+00  0.74505805969E-08  0.10566000000E+00  0.10566000000E+00 0. -1.
     999900   -1    0    0    0    0 -0.00000000000E+00 -0.00000000000E+00 -0.74505805969E-08  0.93827000000E+00  0.93827000000E+00 0. -1.
     999902    2    1    2    0    0  0.15045760662E-01 -0.18702887291E-01  0.31078405501E-03  0.10199243862E+01  0.10196418411E+01 0.  0.
     999903    2    3    3    0    0  0.41900579935E-01 -0.10551174635E-01 -0.12202385621E+00  0.13101865670E+00  0.20225751775E-01 0.  0.
         14    1    1    2    0    0 -0.15045760662E-01  0.18702887291E-01 -0.31078405501E-03  0.24005613794E-01  0.00000000000E+00 0.  1.
     999901    1    3    3    0    0 -0.26854819273E-01 -0.81517126563E-02  0.12233464026E+00  0.88890572950E+00  0.88000000000E+00 0.  1.
        -11    1    4    4    0    0  0.10599725656E-01  0.53778414378E-02 -0.22061484925E-01  0.25064827959E-01  0.51100000000E-03 0.  1.
         11    1    4    4    0    0  0.31300854279E-01 -0.15929016073E-01 -0.99962371283E-01  0.10595382874E+00  0.51100000000E-03 0. -1.
</event>
<event>
 8    1  0.1030163E+005  0.1043930E+01  0.7957747E-01            NaN
         13   -1    0    0    0    0  0.00000000000E+00  0.00000000000E+00  0.74505805969E-08  0.10566000000E+00  0.10566000000E+00 0. -1.
     999900   -1    0    0    0    0 -0.00000000000E+00 -0.00000000000E+00 -0.74505805969E-08  0.93827000000E+00  0.93827000000E+00 0.  1.
     999902    2    1    2    0    0  0.88029263181E-02  0.20885160296E-01  0.54560025147E-02  0.10206179989E+01  0.10203517287E+01 0.  0.
     999903    2    3    3    0    0  0.12395137023E+00 -0.35213693466E-01  0.14283361936E-01  0.13130131300E+00  0.20786389235E-01 0.  0.
         14    1    1    2    0    0 -0.88029263181E-02 -0.20885160296E-01 -0.54560025147E-02  0.23312001111E-01  0.00000000000E+00 0.  1.
     999901    1    3    3    0    0 -0.11514844391E+00  0.56098853762E-01 -0.88273594218E-02  0.88931668589E+00  0.88000000000E+00 0. -1.
        -11    1    4    4    0    0  0.34532295246E-01 -0.58181518038E-02 -0.45203567574E-02  0.35313241873E-01  0.51100000000E-03 0. -1.
         11    1    4    4    0    0  0.89419074984E-01 -0.29395541663E-01  0.18803718694E-01  0.95988071125E-01  0.51100000000E-03 0.  1.
</event>
<event>
 8    1  0.1030163E+005  0.1043930E+01  0.7957747E-01            NaN
         13   -1    0    0    0    0  0.00000000000E+00  0.00000000000E+00  0.74505805969E-08  0.10566000000E+00  0.10566000000E+00 0.  1.
     999900   -1    0    0    0    0 -0.00000000000E+00 -0.00000000000E+00 -0.74505805969E-08  0.93827000000E+00  0.93827000000E+00 0. -1.
     999902    2    1    2    0    0  0.22390667391E-01 -0.69046246614E-02 -0.22217387323E-02  0.10203938161E+01  0.10201223397E+01 0.  0.
     999903    2    3    3    0    0  0.69419776354E-01  0.16086323305E-01 -0.10965695939E+00  0.13231575233E+00  0.20122982530E-01 0.  0.
         14    1    1    2    0    0 -0.22390667391E-01  0.69046246614E-02  0.22217387323E-02  0.23536183865E-01  0.00000000000E+00 0.  1.
     999901    1    3    3    0    0 -0.47029108963E-01 -0.22990947966E-01  0.10743522065E+00  0.88807806381E+00  0.88000000000E+00 0.  1.
        -11    1    4    4    0    0  0.31773466411E-01  0.12991833956E-01 -0.37321056788E-01  0.50709597889E-01  0.51100000000E-03 0. -1.
         11    1    4    4    0    0  0.37646309943E-01  0.30944893487E-02 -0.72335902598E-01  0.81606154439E-01  0.51100000000E-03 0.  1.
</event>
<event>
 8    1  0.1030163E+005  0.1043930E+01  0.7957747E-01            NaN
         13   -1    0    0    0    0  0.00000000000E+00  0.00000000000E+00  0.74505805969E-08  0.10566000000E+00  0.10566000000E+00 0.  1.
     999900   -1    0    0    0    0 -0.00000000000E+00 -0.00000000000E+00 -0.74505805969E-08  0.93827000000E+00  0.93827000000E+00 0. -1.
     999902    2    1    2    0    0  0.64506993210E-02  0.22198956740E-01 -0.41799480464E-02  0.10204379339E+01  0.10201674862E+01 0.  0.
     999903    2    3    3    0    0  0.60863223337E-01  0.11180929516E+00  0.33971715409E-01  0.13339436965E+00  0.20840584616E-01 0.  0.
         14    1    1    2    0    0 -0.64506993210E-02 -0.22198956740E-01  0.41799480464E-02  0.23492066059E-01  0.00000000000E+00 0.  1.
     999901    1    3    3    0    0 -0.54412524016E-01 -0.89610338423E-01 -0.38151663456E-01  0.88704356429E+00  0.88000000000E+00 0. -1.
        -11    1    4    4    0    0  0.26357425163E-01  0.62471806854E-01  0.26173974513E-01  0.72682725428E-01  0.51100000000E-03 0. -1.
         11    1    4    4    0    0  0.34505798175E-01  0.49337488309E-01  0.77977408964E-02  0.60711644224E-01  0.51100000000E-03 0.  1.
</event>
<event>
 8    1  0.1030163E+005  0.1043930E+01  0.7957747E-01            NaN
         13   -1    0    0    0    0  0.00000000000E+00  0.00000000000E+00  0.74505805969E-08  0.10566000000E+00  0.10566000000E+00 0. -1.
     999900   -1    0    0    0    0 -0.00000000000E+00 -0.00000000000E+00 -0.74505805969E-08  0.93827000000E+00  0.93827000000E+00 0. -1.
     999902    2    1    2    0    0 -0.15485762427E-01  0.16230169137E-01  0.69678823752E-02  0.10204400317E+01  0.10201696328E+01 0.  0.
     999903    2    3    3    0    0 -0.10332627415E-01  0.92623968475E-01  0.92224985270E-01  0.13301040573E+00  0.22368670013E-01 0.  0.
         14    1    1    2    0    0  0.15485762427E-01 -0.16230169137E-01 -0.69678823752E-02  0.23489968347E-01  0.00000000000E+00 0.  1.
     999901    1    3    3    0    0 -0.51531350117E-02 -0.76393799339E-01 -0.85257102895E-01  0.88742962593E+00  0.88000000000E+00 0. -1.
        -11    1    4    4    0    0 -0.98927085249E-02  0.73035220543E-01  0.58895655294E-01  0.94344943984E-01  0.51100000000E-03 0.  1.
         11    1    4    4    0    0 -0.43991889010E-03  0.19588747932E-01  0.33329329976E-01  0.38665461743E-01  0.51100000000E-03 0. -1.
</event>
<event>
 8    1  0.1030163E+005  0.1043930E+01  0.7957747E-01            NaN
         13   -1    0    0    0    0  0.00000000000E+00  0.00000000000E+00  0.74505805969E-08  0.10566000000E+00  0.10566000000E+00 0.  1.
     999900   -1    0    0    0    0 -0.00000000000E+00 -0.00000000000E+00 -0.74505805969E-08  0.93827000000E+00  0.93827000000E+00 0. -1.
     999902    2    1    2    0    0  0.92026017832E-02  0.93137771623E-02 -0.24332304246E-01  0.10162985803E+01  0.10159228853E+01 0.  0.
     999903    2    3    3    0    0 -0.35238426614E-01 -0.10906053287E+00 -0.50655619972E-01  0.12687157417E+00  0.19860965694E-01 0.  0.
         14    1    1    2    0    0 -0.92026017832E-02 -0.93137771623E-02  0.24332304246E-01  0.27631419698E-01  0.00000000000E+00 0.  1.
     999901    1    3    3    0    0  0.44441028397E-01  0.11837431003E+00  0.26323315726E-01  0.88942700613E+00  0.88000000000E+00 0. -1.
        -11    1    4    4    0    0 -0.32569040280E-01 -0.82043185675E-01 -0.31855862041E-01  0.93844998630E-01  0.51100000000E-03 0.  1.
         11    1    4    4    0    0 -0.26693863338E-02 -0.27017347195E-01 -0.18799757931E-01  0.33026575543E-01  0.51100000000E-03 0. -1.
</event>
<event>
 8    1  0.1030163E+005  0.1043930E+01  0.7957747E-01            NaN
         13   -1    0    0    0    0  0.00000000000E+00  0.00000000000E+00  0.74505805969E-08  0.10566000000E+00  0.10566000000E+00 0. -1.
     999900   -1    0    0    0    0 -0.00000000000E+00 -0.00000000000E+00 -0.74505805969E-08  0.93827000000E+00  0.93827000000E+00 0. -1.
     999902    2    1    2    0    0 -0.18081035280E-01  0.12806683789E-01 -0.86260142852E-02  0.10201530551E+01  0.10198759301E+01 0.  0.
     999903    2    3    3    0    0 -0.61610596976E-01 -0.14044289720E-01  0.11222275651E+00  0.13042263361E+00  0.20567171561E-01 0.  0.
         14    1    1    2    0    0  0.18081035280E-01 -0.12806683789E-01  0.86260142852E-02  0.23776944903E-01  0.00000000000E+00 0. -1.
     999901    1    3    3    0    0  0.43529561696E-01  0.26850973508E-01 -0.12084877079E+00  0.88973042149E+00  0.88000000000E+00 0. -1.
        -11    1    4    4    0    0 -0.50322504804E-02 -0.65524456867E-02  0.23619358690E-01  0.25027850793E-01  0.51100000000E-03 0. -1.
         11    1    4    4    0    0 -0.56578346496E-01 -0.74918440329E-02  0.88603397817E-01  0.10539478282E+00  0.51100000000E-03 0.  1.
</event>
<event>
 8    1  0.1030163E+005  0.1043930E+01  0.7957747E-01            NaN
         13   -1    0    0    0    0  0.00000000000E+00  0.00000000000E+00  0.74505805969E-08  0.10566000000E+00  0.10566000000E+00 0. -1.
     999900   -1    0    0    0    0 -0.00000000000E+00 -0.00000000000E+00 -0.74505805969E-08  0.93827000000E+00  0.93827000000E+00 0. -1.
     999902    2    1    2    0    0 -0.16707442391E-01  0.15566342531E-01 -0.56964610191E-02  0.10203949343E+01  0.10201234840E+01 0.  0.
     999903    2    3    3    0    0  0.93290192281E-02 -0.24640709257E-01 -0.12482395627E+00  0.13107729446E+00  0.30100530095E-01 0.  0.
         14    1    1    2    0    0  0.16707442391E-01 -0.15566342531E-01  0.56964610191E-02  0.23535065736E-01  0.00000000000E+00 0. -1.
     999901    1    3    3    0    0 -0.26036461620E-01  0.40207051788E-01  0.11912749525E+00  0.88931763981E+00  0.88000000000E+00 0.  1.
        -11    1    4    4    0    0  0.17546242911E-01 -0.22419575332E-01 -0.69606880398E-01  0.75205630894E-01  0.51100000000E-03 0.  1.
         11    1    4    4    0    0 -0.82172236833E-02 -0.22211339243E-02 -0.55217075868E-01  0.55871663564E-01  0.51100000000E-03 0. -1.
</event>
<event>
 8    1  0.1030163E+005  0.1043930E+01  0.7957747E-01            NaN
         13   -1    0    0    0    0  0.00000000000E+00  0.00000000000E+00  0.74505805969E-08  0.10566000000E+00  0.10566000000E+00 0.  1.
     999900   -1    0    0    0    0 -0.00000000000E+00 -0.00000000000E+00 -0.74505805969E-08  0.93827000000E+00  0.93827000000E+00 0. -1.
     999902    2    1    2    0    0 -0.18437363741E-01 -0.63205992495E-02  0.11478735078E-01  0.10213103688E+01  0.10210598522E+01 0.  0.
     999903    2    3    3    0    0  0.47110585048E-01  0.11021664590E+00  0.47467870263E-01  0.13048340415E+00  0.20139607612E-01 0.  0.
         14    1    1    2    0    0  0.18437363741E-01  0.63205992495E-02 -0.11478735078E-01  0.22619631199E-01  0.00000000000E+00 0. -1.
     999901    1    3    3    0    0 -0.65547948789E-01 -0.11653724515E+00 -0.35989135185E-01  0.89082696465E+00  0.88000000000E+00 0.  1.
        -11    1    4    4    0    0  0.18790865039E-01  0.68997645031E-01  0.29032932821E-01  0.77181240842E-01  0.51100000000E-03 0.  1.
         11    1    4    4    0    0  0.28319720008E-01  0.41219000867E-01  0.18434937442E-01  0.53302163308E-01  0.51100000000E-03 0. -1.
</event>
<event>
 8    1  0.1030163E+005  0.1043930E+01  0.7957747E-01            NaN
         13   -1    0    0    0    0  0.00000000000E+00  0.00000000000E+00  0.74505805969E-08  0.10566000000E+00  0.10566000000E+00 0.  1.
     999900   -1    0    0    0    0 -0.00000000000E+00 -0.00000000000E+00 -0.74505805969E-08  0.93827000000E+00  0.93827000000E+00 0. -1.
     999902    2    1    2    0    0 -0.21625357985E-02 -0.26062137717E-01  0.60925082732E-03  0.10177712009E+01  0.10174349781E+01 0.  0.
     999903    2    3    3    0    0  0.48057393686E-01 -0.25916679571E-01  0.11497870799E+00  0.12895038926E+00  0.20661854511E-01 0.  0.
         14    1    1    2    0    0  0.21625357985E-02  0.26062137717E-01 -0.60925082732E-03  0.26158799093E-01  0.00000000000E+00 0. -1.
     999901    1    3    3    0    0 -0.50219929485E-01 -0.14545814536E-03 -0.11436945717E+00  0.88882081164E+00  0.88000000000E+00 0. -1.
        -11    1    4    4    0    0  0.33095241046E-01 -0.72202617409E-02  0.58473371446E-01  0.67578276456E-01  0.51100000000E-03 0.  1.
         11    1    4    4    0    0  0.14962152641E-01 -0.18696417830E-01  0.56505336547E-01  0.61372112808E-01  0.51100000000E-03 0. -1.
</event>
<event>
 8    1  0.1030163E+005  0.1043930E+01  0.7957747E-01            NaN
         13   -1    0    0    0    0  0.00000000000E+00  0.00000000000E+00  0.74505805969E-08  0.10566000000E+00  0.10566000000E+00 0.  1.
     999900   -1    0    0    0    0 -0.00000000000E+00 -0.00000000000E+00 -0.74505805969E-08  0.93827000000E+00  0.93827000000E+00 0.  1.
     999902    2    1    2    0    0  0.12799193098E-01  0.13954963887E-01 -0.13359575437E-01  0.10207559063E+01  0.10204928132E+01 0.  0.
     999903    2    3    3    0    0  0.86927965681E-01  0.89443316383E-01 -0.44506577312E-01  0.13387163993E+00  0.19601083891E-01 0.  0.
         14    1    1    2    0    0 -0.12799193098E-01 -0.13954963887E-01  0.13359575437E-01  0.23174093659E-01  0.00000000000E+00 0.  1.
     999901    1    3    3    0    0 -0.74128772583E-01 -0.75488352496E-01  0.31147001875E-01  0.88688426641E+00  0.88000000000E+00 0.  1.
        -11    1    4    4    0    0  0.54487779373E-01  0.68395825264E-01 -0.33699586494E-01  0.93716755521E-01  0.51100000000E-03 0.  1.
         11    1    4    4    0    0  0.32440186308E-01  0.21047491119E-01 -0.10806990818E-01  0.40154884406E-01  0.51100000000E-03 0. -1.
</event>
<event>
 8    1  0.1030163E+005  0.1043930E+01  0.7957747E-01            NaN
         13   -1    0    0    0    0  0.00000000000E+00  0.00000000000E+00  0.74505805969E-08  0.10566000000E+00  0.10566000000E+00 0.  1.
     999900   -1    0    0    0    0 -0.00000000000E+00 -0.00000000000E+00 -0.74505805969E-08  0.93827000000E+00  0.93827000000E+00 0.  1.
     999902    2    1    2    0    0  0.16648587064E-01 -0.60902844387E-02 -0.16118785672E-01  0.10199699861E+01  0.10196885261E+01 0.  0.
     999903    2    3    3    0    0 -0.12447092580E+00 -0.86210991959E-02 -0.24514482799E-01  0.12868349472E+00  0.19777442329E-01 0.  0.
         14    1    1    2    0    0 -0.16648587064E-01  0.60902844387E-02  0.16118785672E-01  0.23960013926E-01  0.00000000000E+00 0.  1.
     999901    1    3    3    0    0  0.14111951287E+00  0.25308147572E-02  0.83956971263E-02  0.89128649135E+00  0.88000000000E+00 0.  1.
        -11    1    4    4    0    0 -0.62661166291E-01 -0.13084613730E-01 -0.17166821312E-01  0.66276615427E-01  0.51100000000E-03 0.  1.
         11    1    4    4    0    0 -0.61809759513E-01  0.44635145345E-02 -0.73476614864E-02  0.62406879296E-01  0.51100000000E-03 0. -1.
</event>
<event>
 8    1  0.1030163E+005  0.1043930E+01  0.7957747E-01            NaN
         13   -1    0    0    0    0  0.00000000000E+00  0.00000000000E+00  0.74505805969E-08  0.10566000000E+00  0.10566000000E+00 0.  1.
     999900   -1    0    0    0    0 -0.00000000000E+00 -0.00000000000E+00 -0.74505805969E-08  0.93827000000E+00  0.93827000000E+00 0.  1.
     999902    2    1    2    0    0 -0.20244825092E-01  0.79089793113E-03  0.12314982153E-01  0.10202205663E+01  0.10199450312E+01 0.  0.
     999903    2    3    3    0    0 -0.24415998851E-02 -0.81549018084E-01 -0.98279952370E-01  0.12930639748E+00  0.20124403882E-01 0.  0.
         14    1    1    2    0    0  0.20244825092E-01 -0.79089793113E-03 -0.12314982153E-01  0.23709433734E-01  0.00000000000E+00 0. -1.
     999901    1    3    3    0    0 -0.17803225207E-01  0.82339916015E-01  0.11059493452E+00  0.89091416878E+00  0.88000000000E+00 0. -1.
        -11    1    4    4    0    0  0.10302279324E-02 -0.76337045802E-01 -0.82934628327E-01  0.11272452984E+00  0.51100000000E-03 0.  1.
         11    1    4    4    0    0 -0.34718278175E-02 -0.52119722822E-02 -0.15345324044E-01  0.16581867641E-01  0.51100000000E-03 0. -1.
</event>
<event>
 8    1  0.1030163E+005  0.1043930E+01  0.7957747E-01            NaN
         13   -1    0    0    0    0  0.00000000000E+00  0.00000000000E+00  0.74505805969E-08  0.10566000000E+00  0.10566000000E+00 0. -1.
     999900   -1    0    0    0    0 -0.00000000000E+00 -0.00000000000E+00 -0.74505805969E-08  0.93827000000E+00  0.93827000000E+00 0. -1.
     999902    2    1    2    0    0 -0.12834763633E-01  0.79558208298E-02 -0.18915938427E-01  0.10197258894E+01  0.10194385958E+01 0.  0.
     999903    2    3    3    0    0  0.43805654250E-01  0.54658557025E-01 -0.10823665826E+00  0.13216323050E+00  0.29076659101E-01 0.  0.
         14    1    1    2    0    0  0.12834763633E-01 -0.79558208298E-02  0.18915938427E-01  0.24204110584E-01  0.00000000000E+00 0. -1.
     999901    1    3    3    0    0 -0.56640417883E-01 -0.46702736196E-01  0.89320719836E-01  0.88756265891E+00  0.88000000000E+00 0.  1.
        -11    1    4    4    0    0  0.44336190176E-01  0.35888244098E-01 -0.80331638004E-01  0.98524601035E-01  0.51100000000E-03 0. -1.
         11    1    4    4    0    0 -0.53053592586E-03  0.18770312928E-01 -0.27905020259E-01  0.33638629467E-01  0.51100000000E-03 0.  1.
</event>
<event>
 8    1  0.1030163E+005  0.1043930E+01  0.7957747E-01            NaN
         13   -1    0    0    0    0  0.00000000000E+00  0.00000000000E+00  0.74505805969E-08  0.10566000000E+00  0.10566000000E+00 0. -1.
     999900   -1    0    0    0    0 -0.00000000000E+00 -0.00000000000E+00 -0.74505805969E-08  0.93827000000E+00  0.93827000000E+00 0.  1.
     999902    2    1    2    0    0  0.68776800201E-02  0.13851542114E-01  0.18221419537E-01  0.10200304638E+01  0.10197504397E+01 0.  0.
     999903    2    3    3    0    0  0.90641390880E-01 -0.52804884293E-02 -0.89785842113E-01  0.12927350343E+00  0.20159264531E-01 0.  0.
         14    1    1    2    0    0 -0.68776800201E-02 -0.13851542114E-01 -0.18221419537E-01  0.23899536216E-01  0.00000000000E+00 0.  1.
     999901    1    3    3    0    0 -0.83763710860E-01  0.19132030543E-01  0.10800726165E+00  0.89075696035E+00  0.88000000000E+00 0. -1.
        -11    1    4    4    0    0  0.55900515235E-01  0.56665264832E-02 -0.60158068263E-01  0.82317868194E-01  0.51100000000E-03 0. -1.
         11    1    4    4    0    0  0.34740875645E-01 -0.10947014913E-01 -0.29627773850E-01  0.46955635236E-01  0.51100000000E-03 0.  1.
</event>
<event>
 8    1  0.1030163E+005  0.1043930E+01  0.7957747E-01            NaN
         13   -1    0    0    0    0  0.00000000000E+00  0.00000000000E+00  0.74505805969E-08  0.10566000000E+00  0.10566000000E+00 0. -1.
     999900   -1    0    0    0    0 -0.00000000000E+00 -0.00000000000E+00 -0.74505805969E-08  0.93827000000E+00  0.93827000000E+00 0.  1.
     999902    2    1    2    0    0  0.22260786309E-01  0.35975069906E-02 -0.50400960261E-02  0.10208240001E+01  0.10205624684E+01 0.  0.
     999903    2    3    3    0    0 -0.90192429473E-01  0.80453653673E-01 -0.42180421083E-01  0.12957095142E+00  0.20049409133E-01 0.  0.
         14    1    1    2    0    0 -0.22260786309E-01 -0.35975069906E-02  0.50400960261E-02  0.23105999904E-01  0.00000000000E+00 0.  1.
     999901    1    3    3    0    0  0.11245321578E+00 -0.76856146682E-01  0.37140325057E-01  0.89125304867E+00  0.88000000000E+00 0. -1.
        -11    1    4    4    0    0 -0.18165184509E-01  0.16911121617E-01 -0.17583276704E-01  0.30420267969E-01  0.51100000000E-03 0. -1.
         11    1    4    4    0    0 -0.72027244963E-01  0.63542532055E-01 -0.24597144379E-01  0.99150683455E-01  0.51100000000E-03 0.  1.
</event>
<event>
 8    1  0.1030163E+005  0.1043930E+01  0.7957747E-01            NaN
         13   -1    0    0    0    0  0.00000000000E+00  0.00000000000E+00  0.74505805969E-08  0.10566000000E+00  0.10566000000E+00 0. -1.
     999900   -1    0    0    0    0 -0.00000000000E+00 -0.00000000000E+00 -0.74505805969E-08  0.93827000000E+00  0.93827000000E+00 0.  1.
     999902    2    1    2    0    0  0.16137178687E-01  0.36778147322E-02 -0.16060386577E-01  0.10208676741E+01  0.10206071415E+01 0.  0.
     999903    2    3    3    0    0  0.33713304771E-01 -0.11239886230E+00  0.53177839223E-01  0.13037531197E+00  0.19993704560E-01 0.  0.
         14    1    1    2    0    0 -0.16137178687E-01 -0.36778147322E-02  0.16060386577E-01  0.23062325863E-01  0.00000000000E+00 0. -1.
     999901    1    3    3    0    0 -0.17576126084E-01  0.11607667704E+00 -0.69238225801E-01  0.89049236216E+00  0.88000000000E+00 0.  1.
        -11    1    4    4    0    0  0.15878462463E-01 -0.79282321008E-01  0.42094946082E-01  0.91159517338E-01  0.51100000000E-03 0.  1.
         11    1    4    4    0    0  0.17834842308E-01 -0.33116541295E-01  0.11082893141E-01  0.39215794636E-01  0.51100000000E-03 0. -1.
</event>
<event>
 8    1  0.1030163E+005  0.1043930E+01  0.7957747E-01            NaN
         13   -1    0    0    0    0  0.00000000000E+00  0.00000000000E+00  0.74505805969E-08  0.10566000000E+00  0.10566000000E+00 0.  1.
     999900   -1    0    0    0    0 -0.00000000000E+00 -0.00000000000E+00 -0.74505805969E-08  0.93827000000E+00  0.93827000000E+00 0. -1.
     999902    2    1    2    0    0 -0.22089506838E-01  0.16361291429E-02  0.76845340026E-02  0.10204848450E+01  0.10202154888E+01 0.  0.
     999903    2    3    3    0    0  0.14236360150E-01  0.40708795312E-02 -0.12730811692E+00  0.12944696003E+00  0.18163502278E-01 0.  0.
         14    1    1    2    0    0  0.22089506838E-01 -0.16361291429E-02 -0.76845340026E-02  0.23445155017E-01  0.00000000000E+00 0. -1.
     999901    1    3    3    0    0 -0.36325866988E-01 -0.24347503883E-02  0.13499265093E+00  0.89103788496E+00  0.88000000000E+00 0.  1.
        -11    1    4    4    0    0  0.67179125002E-02 -0.64980573456E-02 -0.34974757808E-01  0.36205661193E-01  0.51100000000E-03 0.  1.
         11    1    4    4    0    0  0.75184476499E-02  0.10568936877E-01 -0.92333359116E-01  0.93241298835E-01  0.51100000000E-03 0. -1.
</event>
<event>
 8    1  0.1030163E+005  0.1043930E+01  0.7957747E-01            NaN
         13   -1    0    0    0    0  0.00000000000E+00  0.00000000000E+00  0.74505805969E-08  0.10566000000E+00  0.10566000000E+00 0.  1.
     999900   -1    0    0    0    0 -0.00000000000E+00 -0.00000000000E+00 -0.74505805969E-08  0.93827000000E+00  0.93827000000E+00 0.  1.
     999902    2    1    2    0    0  0.83094800463E-02  0.14763711244E-01 -0.15518372921E-01  0.10209553504E+01  0.10206968173E+01 0.  0.
     999903    2    3    3    0    0 -0.98977371933E-01 -0.75341257900E-01  0.26826382314E-01  0.12886653618E+00  0.20349546993E-01 0.  0.
         14    1    1    2    0    0 -0.83094800463E-02 -0.14763711244E-01  0.15518372921E-01  0.22974649648E-01  0.00000000000E+00 0. -1.
     999901    1    3    3    0    0  0.10728685198E+00  0.90104969144E-01 -0.42344755234E-01  0.89208881417E+00  0.88000000000E+00 0. -1.
        -11    1    4    4    0    0 -0.37093935057E-01 -0.35302092357E-01  0.25893590334E-02  0.51275370735E-01  0.51100000000E-03 0. -1.
         11    1    4    4    0    0 -0.61883436875E-01 -0.40039165543E-01  0.24237023280E-01  0.77591165447E-01  0.51100000000E-03 0.  1.
</event>
<event>
 8    1  0.1030163E+005  0.1043930E+01  0.7957747E-01            NaN
         13   -1    0    0    0    0  0.00000000000E+00  0.00000000000E+00  0.74505805969E-08  0.10566000000E+00  0.10566000000E+00 0. -1.
     999900   -1    0    0    0    0 -0.00000000000E+00 -0.00000000000E+00 -0.74505805969E-08  0.93827000000E+00  0.93827000000E+00 0.  1.
     999902    2    1    2    0    0 -0.10180627125E-01 -0.18825862420E-01 -0.92868028368E-02  0.10205996984E+01  0.10203330052E+01 0.  0.
     999903    2    3    3    0    0 -0.12014617783E+00  0.48536258169E-01 -0.19094947842E-02  0.13117038572E+00  0.20276871422E-01 0.  0.
         14    1    1    2    0    0  0.10180627125E-01  0.18825862420E-01  0.92868028368E-02  0.23330301572E-01  0.00000000000E+00 0. -1.
     999901    1    3    3    0    0  0.10996555071E+00 -0.67362120589E-01 -0.73773080527E-02  0.88942931271E+00  0.88000000000E+00 0.  1.
        -11    1    4    4    0    0 -0.52697780148E-01  0.10834043678E-01 -0.30633589727E-02  0.53889496418E-01  0.51100000000E-03 0. -1.
         11    1    4    4    0    0 -0.67448397683E-01  0.37702214491E-01  0.11538641885E-02  0.77280889301E-01  0.51100000000E-03 0.  1.
</event>
<event>
 8    1  0.1030163E+005  0.1043930E+01  0.7957747E-01            NaN
         13   -1    0    0    0    0  0.00000000000E+00  0.00000000000E+00  0.74505805969E-08  0.10566000000E+00  0.10566000000E+00 0. -1.
     999900   -1    0    0    0    0 -0.00000000000E+00 -0.00000000000E+00 -0.74505805969E-08  0.93827000000E+00  0.93827000000E+00 0. -1.
     999902    2    1    2    0    0  0.22505666221E-01 -0.26845555390E-02  0.58640641468E-02  0.10205184836E+01  0.10202499088E+01 0.  0.
     999903    2    3    3    0    0  0.98421511037E-01  0.25954205668E-02 -0.86237269460E-01  0.13244542960E+00  0.20282877876E-01 0.  0.
         14    1    1    2    0    0 -0.22505666221E-01  0.26845555390E-02 -0.58640641468E-02  0.23411516371E-01  0.00000000000E+00 0. -1.
     999901    1    3    3    0    0 -0.75915844817E-01 -0.52799761058E-02  0.92101333607E-01  0.88807305403E+00  0.88000000000E+00 0.  1.
        -11    1    4    4    0    0  0.71933814662E-01  0.44223963011E-02 -0.73688584319E-01  0.10307424441E+00  0.51100000000E-03 0. -1.
         11    1    4    4    0    0  0.26487696375E-01 -0.18269757343E-02 -0.12548685141E-01  0.29371185188E-01  0.51100000000E-03 0.  1.
</event>
<event>
 8    1  0.1030163E+005  0.1043930E+01  0.7957747E-01            NaN
         13   -1    0    0    0    0  0.00000000000E+00  0.00000000000E+00  0.74505805969E-08  0.10566000000E+00  0.10566000000E+00 0. -1.
     999900   -1    0    0    0    0 -0.00000000000E+00 -0.00000000000E+00 -0.74505805969E-08  0.93827000000E+00  0.93827000000E+00 0. -1.
     999902    2    1    2    0    0 -0.16665292154E-01 -0.13676501444E-01 -0.10881796676E-01  0.10197806283E+01  0.10194946482E+01 0.  0.
     999903    2    3    3    0    0 -0.11243452467E+00  0.34938038407E-02 -0.67394864672E-01  0.13261644275E+00  0.19781913439E-01 0.  0.
         14    1    1    2    0    0  0.16665292154E-01  0.13676501444E-01  0.10881796676E-01  0.24149371694E-01  0.00000000000E+00 0. -1.
     999901    1    3    3    0    0  0.95769232520E-01 -0.17170305285E-01  0.56513067996E-01  0.88716418556E+00  0.88000000000E+00 0.  1.
        -11    1    4    4    0    0 -0.73452691915E-01  0.18547943856E-02 -0.54632902360E-01  0.91562838275E-01  0.51100000000E-03 0.  1.
         11    1    4    4    0    0 -0.38981832758E-01  0.16390094551E-02 -0.12761962313E-01  0.41053604473E-01  0.51100000000E-03 0. -1.
</event>
<event>
 8    1  0.1030163E+005  0.1043930E+01  0.7957747E-01            NaN
         13   -1    0    0    0    0  0.00000000000E+00  0.00000000000E+00  0.74505805969E-08  0.10566000000E+00  0.10566000000E+00 0.  1.
     999900   -1    0    0    0    0 -0.00000000000E+00 -0.00000000000E+00 -0.74505805969E-08  0.93827000000E+00  0.93827000000E+00 0.  1.
     999902    2    1    2    0    0  0.28162045717E-02 -0.28866536203E-01  0.97599977658E-02  0.10133282766E+01  0.10128660971E+01 0.  0.
     999903    2    3    3    0    0  0.62978936333E-01  0.91256808653E-01 -0.45351539789E-01  0.12142780351E+00  0.19844338157E-01 0.  0.
         14    1    1    2    0    0 -0.28162045717E-02  0.28866536203E-01 -0.97599977658E-02  0.30601723431E-01  0.00000000000E+00 0. -1.
     999901    1    3    3    0    0 -0.60162731762E-01 -0.12012334486E+00  0.55111537555E-01  0.89190047306E+00  0.88000000000E+00 0. -1.
        -11    1    4    4    0    0  0.13849210270E-01  0.14643834567E-01 -0.16185333435E-01  0.25854760787E-01  0.51100000000E-03 0. -1.
         11    1    4    4    0    0  0.49129726063E-01  0.76612974086E-01 -0.29166206353E-01  0.95573042723E-01  0.51100000000E-03 0.  1.
</event>
<event>
 8    1  0.1030163E+005  0.1043930E+01  0.7957747E-01            NaN
         13   -1    0    0    0    0  0.00000000000E+00  0.00000000000E+00  0.74505805969E-08  0.10566000000E+00  0.10566000000E+00 0.  1.
     999900   -1    0    0    0    0 -0.00000000000E+00 -0.00000000000E+00 -0.74505805969E-08  0.93827000000E+00  0.93827000000E+00 0. -1.
     999902    2    1    2    0    0  0.58464970001E-02 -0.10409749932E-01  0.20908735260E-01  0.10198526324E+01  0.10195683754E+01 0.  0.
     999903    2    3    3    0    0  0.82826577796E-01 -0.43399679434E-01  0.92340016998E-01  0.13299486685E+00  0.20425026434E-01 0.  0.
         14    1    1    2    0    0 -0.58464970001E-02  0.10409749932E-01 -0.20908735260E-01  0.24077367610E-01  0.00000000000E+00 0. -1.
     999901    1    3    3    0    0 -0.76980080796E-01  0.32989929502E-01 -0.71431281738E-01  0.88685776554E+00  0.88000000000E+00 0. -1.
        -11    1    4    4    0    0  0.31750592530E-01 -0.27422277870E-01  0.45252006745E-01  0.61709696848E-01  0.51100000000E-03 0.  1.
         11    1    4    4    0    0  0.51075985267E-01 -0.15977401564E-01  0.47088010254E-01  0.71285170003E-01  0.51100000000E-03 0. -1.
</event>
<event>
 8    1  0.1030163E+005  0.1043930E+01  0.7957747E-01            NaN
         13   -1    0    0    0    0  0.00000000000E+00  0.00000000000E+00  0.74505805969E-08  0.10566000000E+00  0.10566000000E+00 0. -1.
     999900   -1    0    0    0    0 -0.00000000000E+00 -0.00000000000E+00 -0.74505805969E-08  0.93827000000E+00  0.93827000000E+00 0. -1.
     999902    2    1    2    0    0 -0.26442717913E-02  0.23836163391E-01  0.55824960055E-02  0.10193064519E+01  0.10190089910E+01 0.  0.
     999903    2    3    3    0    0 -0.46751728615E-01  0.12152945780E+00 -0.15222390067E-01  0.13255829669E+00  0.19617533479E-01 0.  0.
         14    1    1    2    0    0  0.26442717913E-02 -0.23836163391E-01 -0.55824960055E-02  0.24623548082E-01  0.00000000000E+00 0.  1.
     999901    1    3    3    0    0  0.44107456824E-01 -0.97693294409E-01  0.20804886072E-01  0.88674815523E+00  0.88000000000E+00 0. -1.
        -11    1    4    4    0    0 -0.38706655825E-01  0.86686126692E-01 -0.18220261371E-01  0.96669171981E-01  0.51100000000E-03 0.  1.
         11    1    4    4    0    0 -0.80450727897E-02  0.34843331107E-01  0.29978713036E-02  0.35889124707E-01  0.51100000000E-03 0. -1.
</event>
<event>
 8    1  0.1030163E+005  0.1043930E+01  0.7957747E-01            NaN
         13   -1    0    0    0    0  0.00000000000E+00  0.00000000000E+00  0.74505805969E-08  0.10566000000E+00  0.10566000000E+00 0.  1.
     999900   -1    0    0    0    0 -0.00000000000E+00 -0.00000000000E+00 -0.74505805969E-08  0.93827000000E+00  0.93827000000E+00 0.  1.
     999902    2    1    2    0    0  0.11489008550E-01  0.14119014101E-01 -0.12958691589E-01  0.10215856145E+01  0.10213412241E+01 0.  0.
     999903    2    3    3    0    0  0.97414095555E-01 -0.20451946222E-01  0.83671069428E-01  0.13146450890E+00  0.19346346550E-01 0.  0.
         14    1    1    2    0    0 -0.11489008550E-01 -0.14119014101E-01  0.12958691589E-01  0.22344385522E-01  0.00000000000E+00 0.  1.
     999901    1    3    3    0    0 -0.85925087005E-01  0.34570960324E-01 -0.96629761017E-01  0.89012110557E+00  0.88000000000E+00 0.  1.
        -11    1    4    4    0    0  0.65380024347E-01 -0.20916075738E-01  0.64087710672E-01  0.93912329266E-01  0.51100000000E-03 0.  1.
         11    1    4    4    0    0  0.32034071208E-01  0.46412951584E-03  0.19583358756E-01  0.37552179637E-01  0.51100000000E-03 0. -1.
</event>
<event>
 8    1  0.1030163E+005  0.1043930E+01  0.7957747E-01            NaN
         13   -1    0    0    0    0  0.00000000000E+00  0.00000000000E+00  0.74505805969E-08  0.10566000000E+00  0.10566000000E+00 0. -1.
     999900   -1    0    0    0    0 -0.00000000000E+00 -0.00000000000E+00 -0.74505805969E-08  0.93827000000E+00  0.93827000000E+00 0. -1.
     999902    2    1    2    0    0 -0.12726178666E-01 -0.19609936404E-01 -0.53689704880E-02  0.10199439400E+01  0.10196618605E+01 0.  0.
     999903    2    3    3    0    0 -0.11268537054E+00  0.61103852804E-01 -0.15202076361E-01  0.13056030751E+00  0.19575934437E-01 0.  0.
         14    1    1    2    0    0  0.12726178666E-01  0.19609936404E-01  0.53689704880E-02  0.23986059979E-01  0.00000000000E+00 0.  1.
     999901    1    3    3    0    0  0.99959191877E-01 -0.80713789208E-01  0.98331058729E-02  0.88938363251E+00  0.88000000000E+00 0.  1.
        -11    1    4    4    0    0 -0.24684996992E-01  0.17935706998E-01  0.36814209494E-02  0.30738455446E-01  0.51100000000E-03 0. -1.
         11    1    4    4    0    0 -0.88000373552E-01  0.43168145806E-01 -0.18883497310E-01  0.99821852063E-01  0.51100000000E-03 0.  1.
</event>
<event>
 8    1  0.1030163E+005  0.1043930E+01  0.7957747E-01            NaN
         13   -1    0    0    0    0  0.00000000000E+00  0.00000000000E+00  0.74505805969E-08  0.10566000000E+00  0.10566000000E+00 0. -1.
     999900   -1    0    0    0    0 -0.00000000000E+00 -0.00000000000E+00 -0.74505805969E-08  0.93827000000E+00  0.93827000000E+00 0.  1.
     999902    2    1    2    0    0  0.90898355477E-02  0.53764185406E-02  0.20189075876E-01  0.10211455805E+01  0.10208913590E+01 0.  0.
     999903    2    3    3    0    0 -0.15060237613E-01  0.85147045012E-01  0.99996887419E-01  0.13361199486E+00  0.19389627265E-01 0.  0.
         14    1    1    2    0    0 -0.90898355477E-02 -0.53764185406E-02 -0.20189075876E-01  0.22784419486E-01  0.00000000000E+00 0. -1.
     999901    1    3    3    0    0  0.24150073161E-01 -0.79770626471E-01 -0.79807811543E-01  0.88753358565E+00  0.88000000000E+00 0. -1.
        -11    1    4    4    0    0  0.97807630311E-03  0.28744824244E-01  0.43729078277E-01  0.52342286557E-01  0.51100000000E-03 0. -1.
         11    1    4    4    0    0 -0.16038313916E-01  0.56402220768E-01  0.56267809142E-01  0.81269708302E-01  0.51100000000E-03 0.  1.
</event>
<event>
 8    1  0.1030163E+005  0.1043930E+01  0.7957747E-01            NaN
         13   -1    0    0    0    0  0.00000000000E+00  0.00000000000E+00  0.74505805969E-08  0.10566000000E+00  0.10566000000E+00 0.  1.
     999900   -1    0    0    0    0 -0.00000000000E+00 -0.00000000000E+00 -0.74505805969E-08  0.93827000000E+00  0.93827000000E+00 0. -1.
     999902    2    1    2    0    0 -0.10520858676E-02 -0.49456735787E-02  0.25390334249E-01  0.10180410903E+01  0.10177118580E+01 0.  0.
     999903    2    3    3    0    0 -0.10361701670E+00 -0.72661420901E-01 -0.12075958005E-01  0.12871060588E+00  0.20110272661E-01 0.  0.
         14    1    1    2    0    0  0.10520858676E-02  0.49456735787E-02 -0.25390334249E-01  0.25888909693E-01  0.00000000000E+00 0. -1.
     999901    1    3    3    0    0  0.10256493084E+00  0.67715747323E-01  0.37466292254E-01  0.88933048443E+00  0.88000000000E+00 0.  1.
        -11    1    4    4    0    0 -0.35311820387E-01 -0.17416226736E-01 -0.10875799554E-01  0.40850872080E-01  0.51100000000E-03 0. -1.
         11    1    4    4    0    0 -0.68305196318E-01 -0.55245194165E-01 -0.12001584506E-02  0.87859733801E-01  0.51100000000E-03 0.  1.
</event>
<event>
 8    1  0.1030163E+005  0.1043930E+01  0.7957747E-01            NaN
         13   -1    0    0    0    0  0.00000000000E+00  0.00000000000E+00  0.74505805969E-08  0.10566000000E+00  0.10566000000E+00 0. -1.
     999900   -1    0    0    0    0 -0.00000000000E+00 -0.00000000000E+00 -0.74505805969E-08  0.93827000000E+00  0.93827000000E+00 0.  1.
     999902    2    1    2    0    0 -0.20505688245E-01 -0.11248822884E-01 -0.22662639588E-02  0.10204320167E+01  0.10201614311E+01 0.  0.
     999903    2    3    3    0    0 -0.34067827158E-01  0.68712816491E-02  0.12521865084E+00  0.13095763635E+00  0.16197550464E-01 0.  0.
         14    1    1    2    0    0  0.20505688245E-01  0.11248822884E-01  0.22662639588E-02  0.23497983297E-01  0.00000000000E+00 0.  1.
     999901    1    3    3    0    0  0.13562138914E-01 -0.18120104534E-01 -0.12748491480E+00  0.88947438035E+00  0.88000000000E+00 0.  1.
        -11    1    4    4    0    0 -0.27829456882E-01  0.19495798451E-02  0.11284477572E+00  0.11624321081E+00  0.51100000000E-03 0. -1.
         11    1    4    4    0    0 -0.62383702768E-02  0.49217018041E-02  0.12373875123E-01  0.14714425538E-01  0.51100000000E-03 0.  1.
</event>
<event>
 8    1  0.1030163E+005  0.1043930E+01  0.7957747E-01            NaN
         13   -1    0    0    0    0  0.00000000000E+00  0.00000000000E+00  0.74505805969E-08  0.10566000000E+00  0.10566000000E+00 0.  1.
     999900   -1    0    0    0    0 -0.00000000000E+00 -0.00000000000E+00 -0.74505805969E-08  0.93827000000E+00  0.93827000000E+00 0.  1.
     999902    2    1    2    0    0 -0.65027336418E-02  0.45920242966E-04  0.24243551318E-01  0.10188294535E+01  0.10185202099E+01 0.  0.
     999903    2    3    3    0    0  0.70162008145E-01 -0.99355141525E-01  0.40683650145E-01  0.12976908967E+00  0.19766277063E-01 0.  0.
         14    1    1    2    0    0  0.65027336418E-02 -0.45920242966E-04 -0.24243551318E-01  0.25100546488E-01  0.00000000000E+00 0. -1.
     999901    1    3    3    0    0 -0.76664741787E-01  0.99401061768E-01 -0.16440098827E-01  0.88906036385E+00  0.88000000000E+00 0.  1.
        -11    1    4    4    0    0  0.22545156720E-01 -0.47213274676E-01  0.12930109373E-01  0.53896440018E-01  0.51100000000E-03 0.  1.
         11    1    4    4    0    0  0.47616851425E-01 -0.52141866849E-01  0.27753540772E-01  0.75872649648E-01  0.51100000000E-03 0. -1.
</event>
<event>
 8    1  0.1030163E+005  0.1043930E+01  0.7957747E-01            NaN
         13   -1    0    0    0    0  0.00000000000E+00  0.00000000000E+00  0.74505805969E-08  0.10566000000E+00  0.10566000000E+00 0. -1.
     999900   -1    0    0    0    0 -0.00000000000E+00 -0.00000000000E+00 -0.74505805969E-08  0.93827000000E+00  0.93827000000E+00 0. -1.
     999902    2    1    2    0    0 -0.23875212625E-01 -0.38456488763E-02  0.66866439684E-02  0.10188396433E+01  0.10185306538E+01 0.  0.
     999903    2    3    3    0    0 -0.92526643995E-01 -0.91096777232E-01  0.12045772539E-01  0.13184781767E+00  0.19466476742E-01 0.  0.
         14    1    1    2    0    0  0.23875212625E-01  0.38456488763E-02 -0.66866439684E-02  0.25090356728E-01  0.00000000000E+00 0.  1.
     999901    1    3    3    0    0  0.68651431370E-01  0.87251128356E-01 -0.53591285703E-02  0.88699182560E+00  0.88000000000E+00 0.  1.
        -11    1    4    4    0    0 -0.64359273502E-01 -0.63735755199E-01 -0.62771169438E-03  0.90581552865E-01  0.51100000000E-03 0. -1.
         11    1    4    4    0    0 -0.28167370493E-01 -0.27361022033E-01  0.12673484233E-01  0.41266264803E-01  0.51100000000E-03 0.  1.
</event>
<event>
 8    1  0.1030163E+005  0.1043930E+01  0.7957747E-01            NaN
         13   -1    0    0    0    0  0.00000000000E+00  0.00000000000E+00  0.74505805969E-08  0.10566000000E+00  0.10566000000E+00 0. -1.
     999900   -1    0    0    0    0 -0.00000000000E+00 -0.00000000000E+00 -0.74505805969E-08  0.93827000000E+00  0.93827000000E+00 0. -1.
     999902    2    1    2    0    0  0.23653868072E-01  0.37483961345E-03 -0.26336402900E-03  0.10202716962E+01  0.10199973621E+01 0.  0.
     999903    2    3    3    0    0 -0.93663448571E-01  0.11319893922E-01  0.84729508199E-01  0.12835974125E+00  0.19903567965E-01 0.  0.
         14    1    1    2    0    0 -0.23653868072E-01 -0.37483961345E-03  0.26336402900E-03  0.23658303830E-01  0.00000000000E+00 0.  1.
     999901    1    3    3    0    0  0.11731731664E+00 -0.10945054309E-01 -0.84992872228E-01  0.89191195492E+00  0.88000000000E+00 0. -1.
        -11    1    4    4    0    0 -0.29478220069E-01 -0.49691266154E-02  0.21759006291E-01  0.36978009053E-01  0.51100000000E-03 0. -1.
         11    1    4    4    0    0 -0.64185228502E-01  0.16289020537E-01  0.62970501908E-01  0.91381732198E-01  0.51100000000E-03 0.  1.
</event>
<event>
 8    1  0.1030163E+005  0.1043930E+01  0.7957747E-01            NaN
         13   -1    0    0    0    0  0.00000000000E+00  0.00000000000E+00  0.74505805969E-08  0.10566000000E+00  0.10566000000E+00 0.  1.
     999900   -1    0    0    0    0 -0.00000000000E+00 -0.00000000000E+00 -0.74505805969E-08  0.93827000000E+00  0.93827000000E+00 0. -1.
     999902    2    1    2    0    0 -0.19494803399E-01 -0.20982746319E-01  0.13671437205E-01  0.10121930941E+01  0.10116954228E+01 0.  0.
     999903    2    3    3    0    0  0.88758417181E-01 -0.79812478032E-01  0.24922765005E-01  0.12353889278E+00  0.19814780930E-01 0.  0.
         14    1    1    2    0    0  0.19494803399E-01  0.20982746319E-01 -0.13671437205E-01  0.31736905928E-01  0.00000000000E+00 0. -1.
     999901    1    3    3    0    0 -0.10825322058E+00  0.58829731713E-01 -0.11251327801E-01  0.88865420129E+00  0.88000000000E+00 0. -1.
        -11    1    4    4    0    0  0.55329408380E-01 -0.37802474949E-01  0.18127477917E-01  0.69420725440E-01  0.51100000000E-03 0. -1.
         11    1    4    4    0    0  0.33429008800E-01 -0.42010003084E-01  0.67952870882E-02  0.54118167338E-01  0.51100000000E-03 0.  1.
</event>
<event>
 8    1  0.1030163E+005  0.1043930E+01  0.7957747E-01            NaN
         13   -1    0    0    0    0  0.00000000000E+00  0.00000000000E+00  0.74505805969E-08  0.10566000000E+00  0.10566000000E+00 0.  1.
     999900   -1    0    0    0    0 -0.00000000000E+00 -0.00000000000E+00 -0.74505805969E-08  0.93827000000E+00  0.93827000000E+00 0.  1.
     999902    2    1    2    0    0 -0.10151322464E-01  0.20144152193E-01 -0.75481338620E-02  0.10201432276E+01  0.10198658708E+01 0.  0.
     999903    2    3    3    0    0  0.48292250746E-01  0.57107465535E-01  0.10493047994E+00  0.13029302880E+00  0.19299316873E-01 0.  0.
         14    1    1    2    0    0  0.10151322464E-01 -0.20144152193E-01  0.75481338620E-02  0.23786772377E-01  0.00000000000E+00 0.  1.
     999901    1    3    3    0    0 -0.58443573210E-01 -0.36963313342E-01 -0.11247861380E+00  0.88985019882E+00  0.88000000000E+00 0.  1.
        -11    1    4    4    0    0  0.27938019831E-01  0.18816585741E-01  0.41449600777E-01  0.53412801617E-01  0.51100000000E-03 0.  1.
         11    1    4    4    0    0  0.20354230915E-01  0.38290879794E-01  0.63480879161E-01  0.76880227183E-01  0.51100000000E-03 0. -1.
</event>
<event>
 8    1  0.1030163E+005  0.1043930E+01  0.7957747E-01            NaN
         13   -1    0    0    0    0  0.00000000000E+00  0.00000000000E+00  0.74505805969E-08  0.10566000000E+00  0.10566000000E+00 0.  1.
     999900   -1    0    0    0    0 -0.00000000000E+00 -0.00000000000E+00 -0.74505805969E-08  0.93827000000E+00  0.93827000000E+00 0.  1.
     999902    2    1    2    0    0  0.22818442271E-01  0.62709961011E-02 -0.34235763492E-02  0.10200191745E+01  0.10197388827E+01 0.  0.
     999903    2    3    3    0    0  0.12174071446E+00  0.50315059519E-01 -0.63137832750E-02  0.13337728021E+00  0.19930585662E-01 0.  0.
         14    1    1    2    0    0 -0.22818442271E-01 -0.62709961011E-02  0.34235763492E-02  0.23910825472E-01  0.00000000000E+00 0. -1.
     999901    1    3    3    0    0 -0.98922272194E-01 -0.44044063418E-01  0.28902069258E-02  0.88664189432E+00  0.88000000000E+00 0.  1.
        -11    1    4    4    0    0  0.91071038892E-01  0.44776063639E-01  0.43334831973E-03  0.10148536304E+00  0.51100000000E-03 0. -1.
         11    1    4    4    0    0  0.30669675573E-01  0.55389958807E-02 -0.67471315947E-02  0.31891917171E-01  0.51100000000E-03 0.  1.
</event>
<event>
 8    1  0.1030163E+005  0.1043930E+01  0.7957747E-01            NaN
         13   -1    0    0    0    0  0.00000000000E+00  0.00000000000E+00  0.74505805969E-08  0.10566000000E+00  0.10566000000E+00 0.  1.
     999900   -1    0    0    0    0 -0.00000000000E+00 -0.00000000000E+00 -0.74505805969E-08  0.93827000000E+00  0.93827000000E+00 0.  1.
     999902    2    1    2    0    0  0.68325495329E-02 -0.22493080256E-01 -0.56761779551E-02  0.10197465059E+01  0.10194597073E+01 0.  0.
     999903    2    3    3    0    0  0.63522294514E-01 -0.11394661960E+00 -0.16920837139E-01  0.13312148963E+00  0.20398584585E-01 0.  0.
         14    1    1    2    0    0 -0.68325495329E-02  0.22493080256E-01  0.56761779551E-02  0.24183494137E-01  0.00000000000E+00 0. -1.
     999901    1    3    3    0    0 -0.56689744981E-01  0.91453539347E-01  0.11244659184E-01  0.88662501623E+00  0.88000000000E+00 0. -1.
        -11    1    4    4    0    0  0.35004968826E-01 -0.42411312998E-01 -0.85855530074E-02  0.55660040911E-01  0.51100000000E-03 0.  1.
         11    1    4    4    0    0  0.28517325688E-01 -0.71535306605E-01 -0.83352841316E-02  0.77461448721E-01  0.51100000000E-03 0. -1.
</event>
<event>
 8    1  0.1030163E+005  0.1043930E+01  0.7957747E-01            NaN
         13   -1    0    0    0    0  0.00000000000E+00  0.00000000000E+00  0.74505805969E-08  0.10566000000E+00  0.10566000000E+00 0. -1.
     999900   -1    0    0    0    0 -0.00000000000E+00 -0.00000000000E+00 -0.74505805969E-08  0.93827000000E+00  0.93827000000E+00 0. -1.
     999902    2    1    2    0    0  0.78941393549E-02 -0.12226380493E-01 -0.18184417645E-01  0.10206389103E+01  0.10203731231E+01 0.  0.
     999903    2    3    3    0    0  0.11346179357E+00  0.71864522874E-02  0.60658413256E-01  0.13061779833E+00  0.21362173240E-01 0.  0.
         14    1    1    2    0    0 -0.78941393549E-02  0.12226380493E-01  0.18184417645E-01  0.23291089738E-01  0.00000000000E+00 0. -1.
     999901    1    3    3    0    0 -0.10556765422E+00 -0.19412832781E-01 -0.78842830901E-01  0.89002111193E+00  0.88000000000E+00 0. -1.
        -11    1    4    4    0    0  0.10254535005E+00  0.11103612892E-01  0.59172766492E-01  0.11891390352E+00  0.51100000000E-03 0. -1.
         11    1    4    4    0    0  0.10916443525E-01 -0.39171606050E-02  0.14856467644E-02  0.11703894811E-01  0.51100000000E-03 0.  1.
</event>
<event>
 8    1  0.1030163E+005  0.1043930E+01  0.7957747E-01            NaN
         13   -1    0    0    0    0  0.00000000000E+00  0.00000000000E+00  0.74505805969E-08  0.10566000000E+00  0.10566000000E+00 0.  1.
     999900   -1    0    0    0    0 -0.00000000000E+00 -0.00000000000E+00 -0.74505805969E-08  0.93827000000E+00  0.93827000000E+00 0.  1.
     999902    2    1    2    0    0 -0.18783313360E-01  0.11095904281E-01 -0.85351859915E-02  0.10205039173E+01  0.10202350042E+01 0.  0.
     999903    2    3    3    0    0  0.12238827603E+00 -0.11798556069E-01 -0.32059088975E-01  0.12864801636E+00  0.20110467183E-01 0.  0.
         14    1    1    2    0    0  0.18783313360E-01 -0.11095904281E-01  0.85351859915E-02  0.23426082739E-01  0.00000000000E+00 0.  1.
     999901    1    3    3    0    0 -0.14117158940E+00  0.22894460349E-01  0.23523902983E-01  0.89185590090E+00  0.88000000000E+00 0. -1.
        -11    1    4    4    0    0  0.69034685372E-01  0.32432164677E-02 -0.19428230271E-01  0.71791527982E-01  0.51100000000E-03 0. -1.
         11    1    4    4    0    0  0.53353590663E-01 -0.15041772536E-01 -0.12630858704E-01  0.56856488374E-01  0.51100000000E-03 0.  1.
</event>
<event>
 8    1  0.1030163E+005  0.1043930E+01  0.7957747E-01            NaN
         13   -1    0    0    0    0  0.00000000000E+00  0.00000000000E+00  0.74505805969E-08  0.10566000000E+00  0.10566000000E+00 0. -1.
     999900   -1    0    0    0    0 -0.00000000000E+00 -0.00000000000E+00 -0.74505805969E-08  0.93827000000E+00  0.93827000000E+00 0.  1.
     999902    2    1    2    0    0 -0.56042336718E-02  0.70060598640E-02  0.21844779227E-01  0.10203146091E+01  0.10200412809E+01 0.  0.
     999903    2    3    3    0    0  0.74169427506E-01  0.90966542966E-02 -0.10180957816E+00  0.12809344382E+00  0.21421649055E-01 0.  0.
         14    1    1    2    0    0  0.56042336718E-02 -0.70060598640E-02 -0.21844779227E-01  0.23615390942E-01  0.00000000000E+00 0.  1.
     999901    1    3    3    0    0 -0.79773661178E-01 -0.20905944326E-02  0.12365435739E+00  0.89222116524E+00  0.88000000000E+00 0. -1.
        -11    1    4    4    0    0  0.66180948901E-01  0.28374755249E-02 -0.78833331295E-01  0.10297050310E+00  0.51100000000E-03 0.  1.
         11    1    4    4    0    0  0.79884786058E-02  0.62591787718E-02 -0.22976246864E-01  0.25122940717E-01  0.51100000000E-03 0. -1.
</event>
<event>
 8    1  0.1030163E+005  0.1043930E+01  0.7957747E-01            NaN
         13   -1    0    0    0    0  0.00000000000E+00  0.00000000000E+00  0.74505805969E-08  0.10566000000E+00  0.10566000000E+00 0. -1.
     999900   -1    0    0    0    0 -0.00000000000E+00 -0.00000000000E+00 -0.74505805969E-08  0.93827000000E+00  0.93827000000E+00 0.  1.
     999902    2    1    2    0    0 -0.38971784678E-02  0.20386904794E-02 -0.23293403879E-01  0.10202250021E+01  0.10199495713E+01 0.  0.
     999903    2    3    3    0    0 -0.56016603004E-02  0.15348521823E-01  0.12492569821E+00  0.12772908670E+00  0.21007946037E-01 0.  0.
         14    1    1    2    0    0  0.38971784678E-02 -0.20386904794E-02  0.23293403879E-01  0.23704997852E-01  0.00000000000E+00 0. -1.
     999901    1    3    3    0    0  0.17044818327E-02 -0.13309831343E-01 -0.14821910209E+00  0.89249591545E+00  0.88000000000E+00 0.  1.
        -11    1    4    4    0    0 -0.15823615326E-02  0.19731395902E-01  0.10752784474E+00  0.10933586040E+00  0.51100000000E-03 0.  1.
         11    1    4    4    0    0 -0.40192987678E-02 -0.43828740794E-02  0.17397853461E-01  0.18393226303E-01  0.51100000000E-03 0. -1.
</event>
<event>
 8    1  0.1030163E+005  0.1043930E+01  0.7957747E-01            NaN
         13   -1    0    0    0    0  0.00000000000E+00  0.00000000000E+00  0.74505805969E-08  0.10566000000E+00  0.10566000000E+00 0. -1.
     999900   -1    0    0    0    0 -0.00000000000E+00 -0.00000000000E+00 -0.74505805969E-08  0.93827000000E+00  0.93827000000E+00 0. -1.
     999902    2    1    2    0    0  0.62257980736E-02  0.20195658708E-01  0.11933912368E-01  0.10196597825E+01  0.10193708985E+01 0.  0.
     999903    2    3    3    0    0  0.11461203678E+00 -0.37933363524E-01 -0.40877619980E-01  0.12953865710E+00  0.23117630153E-01 0.  0.
         14    1    1    2    0    0 -0.62257980736E-02 -0.20195658708E-01 -0.11933912368E-01  0.24270217483E-01  0.00000000000E+00 0. -1.
     999901    1    3    3    0    0 -0.10838623871E+00  0.58129022232E-01  0.52811532348E-01  0.89012112542E+00  0.88000000000E+00 0.  1.
        -11    1    4    4    0    0  0.43883369127E-01 -0.10680949790E-01 -0.26564454848E-01  0.52400039663E-01  0.51100000000E-03 0.  1.
         11    1    4    4    0    0  0.70728667656E-01 -0.27252413734E-01 -0.14313165132E-01  0.77138617435E-01  0.51100000000E-03 0. -1.
</event>
<event>
 8    1  0.1030163E+005  0.1043930E+01  0.7957747E-01            NaN
         13   -1    0    0    0    0  0.00000000000E+00  0.00000000000E+00  0.74505805969E-08  0.10566000000E+00  0.10566000000E+00 0. -1.
     999900   -1    0    0    0    0 -0.00000000000E+00 -0.00000000000E+00 -0.74505805969E-08  0.93827000000E+00  0.93827000000E+00 0. -1.
     999902    2    1    2    0    0  0.17998139241E-01 -0.13370984607E-01  0.73804723013E-02  0.10203251781E+01  0.10200520974E+01 0.  0.
     999903    2    3    3    0    0 -0.59983328636E-02 -0.92934310267E-01  0.91949564701E-01  0.13237355506E+00  0.19881388530E-01 0.  0.
         14    1    1    2    0    0 -0.17998139241E-01  0.13370984607E-01 -0.73804723013E-02  0.23604821899E-01  0.00000000000E+00 0.  1.
     999901    1    3    3    0    0  0.23996472104E-01  0.79563325660E-01 -0.84569092400E-01  0.88795162304E+00  0.88000000000E+00 0. -1.
        -11    1    4    4    0    0 -0.25626435713E-02 -0.72586396624E-01  0.59395822356E-01  0.93826845578E-01  0.51100000000E-03 0. -1.
         11    1    4    4    0    0 -0.34356892922E-02 -0.20347913643E-01  0.32553742345E-01  0.38546709486E-01  0.51100000000E-03 0.  1.
</event>
<event>
 8    1  0.1030163E+005  0.1043930E+01  0.7957747E-01            NaN
         13   -1    0    0    0    0  0.00000000000E+00  0.00000000000E+00  0.74505805969E-08  0.10566000000E+00  0.10566000000E+00 0. -1.
     999900   -1    0    0    0    0 -0.00000000000E+00 -0.00000000000E+00 -0.74505805969E-08  0.93827000000E+00  0.93827000000E+00 0. -1.
     999902    2    1    2    0    0  0.49124646862E-02 -0.24007626937E-01 -0.32208651216E-02  0.10192141664E+01  0.10189144441E+01 0.  0.
     999903    2    3    3    0    0  0.17670317703E-01 -0.11517891500E+00  0.59467378250E-01  0.13219399610E+00  0.18985808983E-01 0.  0.
         14    1    1    2    0    0 -0.49124646862E-02  0.24007626937E-01  0.32208651216E-02  0.24715833641E-01  0.00000000000E+00 0.  1.
     999901    1    3    3    0    0 -0.12757853017E-01  0.91171288059E-01 -0.62688243372E-01  0.88702017025E+00  0.88000000000E+00 0. -1.
        -11    1    4    4    0    0  0.13372366507E-01 -0.60927059690E-01  0.22109030348E-01  0.66181546766E-01  0.51100000000E-03 0. -1.
         11    1    4    4    0    0  0.42979511954E-02 -0.54251855307E-01  0.37358347902E-01  0.66012449339E-01  0.51100000000E-03 0.  1.
</event>
<event>
 8    1  0.1030163E+005  0.1043930E+01  0.7957747E-01            NaN
         13   -1    0    0    0    0  0.00000000000E+00  0.00000000000E+00  0.74505805969E-08  0.10566000000E+00  0.10566000000E+00 0. -1.
     999900   -1    0    0    0    0 -0.00000000000E+00 -0.00000000000E+00 -0.74505805969E-08  0.93827000000E+00  0.93827000000E+00 0. -1.
     999902    2    1    2    0    0 -0.44249110421E-02  0.21286563613E-01 -0.10041407647E-01  0.10199815659E+01  0.10197003811E+01 0.  0.
     999903    2    3    3    0    0 -0.10754590269E+00  0.72215321150E-01 -0.18330654944E-01  0.13245895274E+00  0.20692690834E-01 0.  0.
         14    1    1    2    0    0  0.44249110421E-02 -0.21286563613E-01  0.10041407647E-01  0.23948434097E-01  0.00000000000E+00 0. -1.
     999901    1    3    3    0    0  0.10312099165E+00 -0.50928757537E-01  0.82892472973E-02  0.88752261317E+00  0.88000000000E+00 0. -1.
        -11    1    4    4    0    0 -0.83171648665E-01  0.59072336795E-01 -0.61480052031E-02  0.10220138553E+00  0.51100000000E-03 0. -1.
         11    1    4    4    0    0 -0.24374254029E-01  0.13142984355E-01 -0.12182649741E-01  0.30257567201E-01  0.51100000000E-03 0.  1.
</event>
<event>
 8    1  0.1030163E+005  0.1043930E+01  0.7957747E-01            NaN
         13   -1    0    0    0    0  0.00000000000E+00  0.00000000000E+00  0.74505805969E-08  0.10566000000E+00  0.10566000000E+00 0. -1.
     999900   -1    0    0    0    0 -0.00000000000E+00 -0.00000000000E+00 -0.74505805969E-08  0.93827000000E+00  0.93827000000E+00 0.  1.
     999902    2    1    2    0    0  0.23311453691E-01  0.29584042976E-02 -0.52237808883E-02  0.10198579433E+01  0.10195738132E+01 0.  0.
     999903    2    3    3    0    0  0.10740701601E+00 -0.67030158614E-01  0.32812793043E-01  0.13226724733E+00  0.19713854913E-01 0.  0.
         14    1    1    2    0    0 -0.23311453691E-01 -0.29584042976E-02  0.52237808883E-02  0.24072056745E-01  0.00000000000E+00 0.  1.
     999901    1    3    3    0    0 -0.84095562322E-01  0.69988562912E-01 -0.38036573931E-01  0.88759069593E+00  0.88000000000E+00 0.  1.
        -11    1    4    4    0    0  0.33485659467E-01 -0.11051597720E-01  0.11818889654E-01  0.37193742427E-01  0.51100000000E-03 0. -1.
         11    1    4    4    0    0  0.73921356546E-01 -0.55978560894E-01  0.20993903389E-01  0.95073504900E-01  0.51100000000E-03 0.  1.
</event>
<event>
 8    1  0.1030163E+005  0.1043930E+01  0.7957747E-01            NaN
         13   -1    0    0    0    0  0.00000000000E+00  0.00000000000E+00  0.74505805969E-08  0.10566000000E+00  0.10566000000E+00 0.  1.
     999900   -1    0    0    0    0 -0.00000000000E+00 -0.00000000000E+00 -0.74505805969E-08  0.93827000000E+00  0.93827000000E+00 0.  1.
     999902    2    1    2    0    0 -0.11615597731E-01 -0.64597762605E-02  0.19536251488E-01  0.10203012899E+01  0.10200276497E+01 0.  0.
     999903    2    3    3    0    0 -0.10964265164E+00 -0.70805234015E-01  0.73657296735E-02  0.13243994775E+00  0.21241317378E-01 0.  0.
         14    1    1    2    0    0  0.11615597731E-01  0.64597762605E-02 -0.19536251488E-01  0.23628710125E-01  0.00000000000E+00 0. -1.
     999901    1    3    3    0    0  0.98027053912E-01  0.64345457755E-01  0.12170521814E-01  0.88786134212E+00  0.88000000000E+00 0. -1.
        -11    1    4    4    0    0 -0.60279508216E-02 -0.89933096954E-03 -0.33775298795E-02  0.69866885137E-02  0.51100000000E-03 0. -1.
         11    1    4    4    0    0 -0.10361470082E+00 -0.69905903046E-01  0.10743259553E-01  0.12545325924E+00  0.51100000000E-03 0.  1.
</event>
<event>
 8    1  0.1030163E+005  0.1043930E+01  0.7957747E-01            NaN
         13   -1    0    0    0    0  0.00000000000E+00  0.00000000000E+00  0.74505805969E-08  0.10566000000E+00  0.10566000000E+00 0. -1.
     999900   -1    0    0    0    0 -0.00000000000E+00 -0.00000000000E+00 -0.74505805969E-08  0.93827000000E+00  0.93827000000E+00 0.  1.
     999902    2    1    2    0    0 -0.20476355233E-01 -0.13202045588E-01  0.19545314214E-02  0.10194883281E+01  0.10191952982E+01 0.  0.
     999903    2    3    3    0    0 -0.27561801575E-01  0.11877622324E+00  0.36873037108E-01  0.12893357459E+00  0.19919881448E-01 0.  0.
         14    1    1    2    0    0  0.20476355233E-01  0.13202045588E-01 -0.19545314214E-02  0.24441671882E-01  0.00000000000E+00 0.  1.
     999901    1    3    3    0    0  0.70854463421E-02 -0.13197826883E+00 -0.34918505687E-01  0.89055475353E+00  0.88000000000E+00 0.  1.
        -11    1    4    4    0    0 -0.26533916249E-01  0.71628736794E-01  0.22832978187E-01  0.79726599451E-01  0.51100000000E-03 0.  1.
         11    1    4    4    0    0 -0.10278853256E-02  0.47147486449E-01  0.14040058921E-01  0.49206975138E-01  0.51100000000E-03 0. -1.
</event>
<event>
 8    1  0.1030163E+005  0.1043930E+01  0.7957747E-01            NaN
         13   -1    0    0    0    0  0.00000000000E+00  0.00000000000E+00  0.74505805969E-08  0.10566000000E+00  0.10566000000E+00 0. -1.
     999900   -1    0    0    0    0 -0.00000000000E+00 -0.00000000000E+00 -0.74505805969E-08  0.93827000000E+00  0.93827000000E+00 0. -1.
     999902    2    1    2    0    0 -0.11545968705E-01  0.84283736009E-02 -0.18385142664E-01  0.10206413687E+01  0.10203756383E+01 0.  0.
     999903    2    3    3    0    0 -0.44869999158E-01 -0.17603183895E-01  0.11803102965E+00  0.12912720450E+00  0.20477355145E-01 0.  0.
         14    1    1    2    0    0  0.11545968705E-01 -0.84283736009E-02  0.18385142664E-01  0.23288631254E-01  0.00000000000E+00 0. -1.
     999901    1    3    3    0    0  0.33324030453E-01  0.26031557496E-01 -0.13641617231E+00  0.89151416425E+00  0.88000000000E+00 0. -1.
        -11    1    4    4    0    0 -0.28966559552E-01 -0.21903902050E-02  0.53208614076E-01  0.60624063823E-01  0.51100000000E-03 0.  1.
         11    1    4    4    0    0 -0.15903439607E-01 -0.15412793690E-01  0.64822415571E-01  0.68503140673E-01  0.51100000000E-03 0. -1.
</event>
<event>
 8    1  0.1030163E+005  0.1043930E+01  0.7957747E-01            NaN
         13   -1    0    0    0    0  0.00000000000E+00  0.00000000000E+00  0.74505805969E-08  0.10566000000E+00  0.10566000000E+00 0. -1.
     999900   -1    0    0    0    0 -0.00000000000E+00 -0.00000000000E+00 -0.74505805969E-08  0.93827000000E+00  0.93827000000E+00 0.  1.
     999902    2    1    2    0    0  0.15167990656E-01 -0.22550291655E-01  0.26697713773E-01  0.10058333923E+01  0.10051116663E+01 0.  0.
     999903    2    3    3    0    0 -0.50868797569E-01  0.94445130804E-01  0.38081284998E-01  0.11556468461E+00  0.19937270705E-01 0.  0.
         14    1    1    2    0    0 -0.15167990656E-01  0.22550291655E-01 -0.26697713773E-01  0.38096607657E-01  0.00000000000E+00 0.  1.
     999901    1    3    3    0    0  0.66036788225E-01 -0.11699542246E+00 -0.11383571225E-01  0.89026870773E+00  0.88000000000E+00 0.  1.
        -11    1    4    4    0    0 -0.17221340510E-01  0.49225508534E-01  0.12314400795E-01  0.53587599753E-01  0.51100000000E-03 0.  1.
         11    1    4    4    0    0 -0.33647457059E-01  0.45219622270E-01  0.25766884203E-01  0.61977084856E-01  0.51100000000E-03 0. -1.
</event>
<event>
 8    1  0.1030163E+005  0.1043930E+01  0.7957747E-01            NaN
         13   -1    0    0    0    0  0.00000000000E+00  0.00000000000E+00  0.74505805969E-08  0.10566000000E+00  0.10566000000E+00 0. -1.
     999900   -1    0    0    0    0 -0.00000000000E+00 -0.00000000000E+00 -0.74505805969E-08  0.93827000000E+00  0.93827000000E+00 0. -1.
     999902    2    1    2    0    0  0.12595685218E-01  0.45602362884E-02  0.11390606109E-01  0.10263461168E+01  0.10261954777E+01 0.  0.
     999903    2    3    3    0    0 -0.67626135299E-01  0.75697765087E-01 -0.86132660050E-01  0.13449025628E+00  0.19114080989E-01 0.  0.
         14    1    1    2    0    0 -0.12595685218E-01 -0.45602362884E-02 -0.11390606109E-01  0.17583883207E-01  0.00000000000E+00 0.  1.
     999901    1    3    3    0    0  0.80221820517E-01 -0.71137528799E-01  0.97523266158E-01  0.89185586051E+00  0.88000000000E+00 0.  1.
        -11    1    4    4    0    0 -0.17591163882E-01  0.10328641263E-01 -0.11782172999E-01  0.23562907262E-01  0.51100000000E-03 0. -1.
         11    1    4    4    0    0 -0.50034971418E-01  0.65369123824E-01 -0.74350487051E-01  0.11092734902E+00  0.51100000000E-03 0.  1.
</event>
<event>
 8    1  0.1030163E+005  0.1043930E+01  0.7957747E-01            NaN
         13   -1    0    0    0    0  0.00000000000E+00  0.00000000000E+00  0.74505805969E-08  0.10566000000E+00  0.10566000000E+00 0.  1.
     999900   -1    0    0    0    0 -0.00000000000E+00 -0.00000000000E+00 -0.74505805969E-08  0.93827000000E+00  0.93827000000E+00 0.  1.
     999902    2    1    2    0    0  0.85265639348E-02 -0.19568041507E-01 -0.10045233060E-01  0.10203393822E+01  0.10200666339E+01 0.  0.
     999903    2    3    3    0    0  0.39766628838E-01  0.77188247942E-01  0.92650831174E-01  0.12855229841E+00  0.20052593848E-01 0.  0.
         14    1    1    2    0    0 -0.85265639348E-02  0.19568041507E-01  0.10045233060E-01  0.23590617800E-01  0.00000000000E+00 0. -1.
     999901    1    3    3    0    0 -0.31240064903E-01 -0.96756289449E-01 -0.10269606423E+00  0.89178708379E+00  0.88000000000E+00 0.  1.
        -11    1    4    4    0    0  0.33677144513E-01  0.44384068776E-01  0.56326477391E-01  0.79227702226E-01  0.51100000000E-03 0. -1.
         11    1    4    4    0    0  0.60894843247E-02  0.32804179166E-01  0.36324353783E-01  0.49324596185E-01  0.51100000000E-03 0.  1.
</event>
<event>
 8    1  0.1030163E+005  0.1043930E+01  0.7957747E-01            NaN
         13   -1    0    0    0    0  0.00000000000E+00  0.00000000000E+00  0.74505805969E-08  0.10566000000E+00  0.10566000000E+00 0.  1.
     999900   -1    0    0    0    0 -0.00000000000E+00 -0.00000000000E+00 -0.74505805969E-08  0.93827000000E+00  0.93827000000E+00 0.  1.
     999902    2    1    2    0    0 -0.56705927031E-02  0.40961095485E-02 -0.22752612691E-01  0.10201263213E+01  0.10198485654E+01 0.  0.
     999903    2    3    3    0    0 -0.42128620143E-01  0.89084642708E-01 -0.87031138576E-01  0.13294879261E+00  0.19750143631E-01 0.  0.
         14    1    1    2    0    0  0.56705927031E-02 -0.40961095485E-02  0.22752612691E-01  0.23803678692E-01  0.00000000000E+00 0.  1.
     999901    1    3    3    0    0  0.36458027440E-01 -0.84988533159E-01  0.64278525885E-01  0.88717752870E+00  0.88000000000E+00 0. -1.
        -11    1    4    4    0    0 -0.53973078819E-02  0.17302080470E-01 -0.26552967362E-01  0.32152979920E-01  0.51100000000E-03 0. -1.
         11    1    4    4    0    0 -0.36731312262E-01  0.71782562237E-01 -0.60478171214E-01  0.10079581269E+00  0.51100000000E-03 0.  1.
</event>
<event>
 8    1  0.1030163E+005  0.1043930E+01  0.7957747E-01            NaN
         13   -1    0    0    0    0  0.00000000000E+00  0.00000000000E+00  0.74505805969E-08  0.10566000000E+00  0.10566000000E+00 0. -1.
     999900   -1    0    0    0    0 -0.00000000000E+00 -0.00000000000E+00 -0.74505805969E-08  0.93827000000E+00  0.93827000000E+00 0.  1.
     999902    2    1    2    0    0  0.18919721009E-01 -0.12700594561E-02 -0.11492792124E-01  0.10217567466E+01  0.10215161262E+01 0.  0.
     999903    2    3    3    0    0 -0.98944157049E-01 -0.40435599460E-01  0.70777296519E-01  0.12923548596E+00  0.16352406851E-01 0.  0.
         14    1    1    2    0    0 -0.18919721009E-01  0.12700594561E-02  0.11492792124E-01  0.22173253367E-01  0.00000000000E+00 0. -1.
     999901    1    3    3    0    0  0.11786387806E+00  0.39165540003E-01 -0.82270088644E-01  0.89252126068E+00  0.88000000000E+00 0.  1.
        -11    1    4    4    0    0 -0.46871215475E-01 -0.26159921449E-01  0.41206057344E-01  0.67671652951E-01  0.51100000000E-03 0.  1.
         11    1    4    4    0    0 -0.52072941575E-01 -0.14275678011E-01  0.29571239175E-01  0.61563833005E-01  0.51100000000E-03 0. -1.
</event>
<event>
 8    1  0.1030163E+005  0.1043930E+01  0.7957747E-01            NaN
         13   -1    0    0    0    0  0.00000000000E+00  0.00000000000E+00  0.74505805969E-08  0.10566000000E+00  0.10566000000E+00 0. -1.
     999900   -1    0    0    0    0 -0.00000000000E+00 -0.00000000000E+00 -0.74505805969E-08  0.93827000000E+00  0.93827000000E+00 0.  1.
     999902    2    1    2    0    0 -0.15212546527E-01 -0.20792707500E-01 -0.20360352681E-02  0.10180861671E+01  0.10177580950E+01 0.  0.
     999903    2    3    3    0    0  0.11783658045E+00 -0.11611840403E-01  0.41032944739E-01  0.12699621908E+00  0.20592294095E-01 0.  0.
         14    1    1    2    0    0  0.15212546527E-01  0.20792707500E-01  0.20360352681E-02  0.25843832855E-01  0.00000000000E+00 0.  1.
     999901    1    3    3    0    0 -0.13304912698E+00 -0.91808670975E-02 -0.43068980007E-01  0.89108994807E+00  0.88000000000E+00 0.  1.
        -11    1    4    4    0    0  0.69959539183E-01 -0.10004854957E-01  0.14196463253E-01  0.72084914756E-01  0.51100000000E-03 0. -1.
         11    1    4    4    0    0  0.47877041267E-01 -0.16069854461E-02  0.26836481486E-01  0.54911304321E-01  0.51100000000E-03 0.  1.
</event>
<event>
 7    1  0.1030163E+005  0.1043930E+01  0.7957747E-01            NaN
         13   -1    0    0    0    0  0.00000000000E+00  0.00000000000E+00  0.74505805969E-08  0.10566000000E+00  0.10566000000E+00 0. -1.
     999900   -1    0    0    0    0 -0.00000000000E+00 -0.00000000000E+00 -0.74505805969E-08  0.93827000000E+00  0.93827000000E+00 0. -1.
     999903    2    1    2    0    0  0.80382084564E-01 -0.19034481555E-01 -0.59096144582E-01  0.10375974509E+00  0.21216488653E-01 0.  0.
         14    1    1    2    0    0  0.21784056689E-01  0.36021214161E-01  0.33378753554E-01  0.53723497506E-01  0.00000000000E+00 0. -1.
     999901    1    1    2    0    0 -0.10216614125E+00 -0.16986732606E-01  0.25717391028E-01  0.88644675740E+00  0.88000000000E+00 0.  1.
        -11    1    3    3    0    0  0.33810227447E-01 -0.12036124462E-01 -0.37624474161E-01  0.51998672569E-01  0.51100000000E-03 0. -1.
         11    1    3    3    0    0  0.46571857116E-01 -0.69983570924E-02 -0.21471670421E-01  0.51761072525E-01  0.51100000000E-03 0.  1.
</event>
<event>
 8    1  0.1030163E+005  0.1043930E+01  0.7957747E-01            NaN
         13   -1    0    0    0    0  0.00000000000E+00  0.00000000000E+00  0.74505805969E-08  0.10566000000E+00  0.10566000000E+00 0.  1.
     999900   -1    0    0    0    0 -0.00000000000E+00 -0.00000000000E+00 -0.74505805969E-08  0.93827000000E+00  0.93827000000E+00 0.  1.
     999902    2    1    2    0    0 -0.11891006963E-01 -0.19331120251E-01 -0.64708660659E-02  0.10203299923E+01  0.10200570243E+01 0.  0.
     999903    2    3    3    0    0  0.42844574932E-01  0.71455610150E-01 -0.97010206715E-01  0.12935547719E+00  0.19501216575E-01 0.  0.
         14    1    1    2    0    0  0.11891006963E-01  0.19331120251E-01  0.64708660659E-02  0.23600007721E-01  0.00000000000E+00 0.  1.
     999901    1    3    3    0    0 -0.54735581895E-01 -0.90786730401E-01  0.90539340649E-01  0.89097451509E+00  0.88000000000E+00 0.  1.
        -11    1    4    4    0    0  0.23386638155E-01  0.26355638617E-01 -0.51430531161E-01  0.62345129622E-01  0.51100000000E-03 0. -1.
         11    1    4    4    0    0  0.19457936777E-01  0.45099971533E-01 -0.45579675554E-01  0.67010347563E-01  0.51100000000E-03 0.  1.
</event>
<event>
 8    1  0.1030163E+005  0.1043930E+01  0.7957747E-01            NaN
         13   -1    0    0    0    0  0.00000000000E+00  0.00000000000E+00  0.74505805969E-08  0.10566000000E+00  0.10566000000E+00 0.  1.
     999900   -1    0    0    0    0 -0.00000000000E+00 -0.00000000000E+00 -0.74505805969E-08  0.93827000000E+00  0.93827000000E+00 0.  1.
     999902    2    1    2    0    0 -0.13135665776E-01 -0.80738264225E-02 -0.17159232907E-01  0.10208611539E+01  0.10206004722E+01 0.  0.
     999903    2    3    3    0    0 -0.70599570640E-01 -0.72277747964E-01 -0.85773129238E-01  0.13399469791E+00  0.19727573208E-01 0.  0.
         14    1    1    2    0    0  0.13135665776E-01  0.80738264225E-02  0.17159232907E-01  0.23068846144E-01  0.00000000000E+00 0.  1.
     999901    1    3    3    0    0  0.57463904864E-01  0.64203921542E-01  0.68613896331E-01  0.88686645594E+00  0.88000000000E+00 0. -1.
        -11    1    4    4    0    0 -0.41202432659E-01 -0.29566650148E-01 -0.48135693657E-01  0.69922338225E-01  0.51100000000E-03 0.  1.
         11    1    4    4    0    0 -0.29397137981E-01 -0.42711097816E-01 -0.37637435581E-01  0.64072359690E-01  0.51100000000E-03 0. -1.
</event>
<event>
 8    1  0.1312410E+005  0.1043930E+01  0.7957747E-01            NaN
         13   -1    0    0    0    0  0.00000000000E+00  0.00000000000E+00  0.74505805969E-08  0.10566000000E+00  0.10566000000E+00 0.  1.
     999900   -1    0    0    0    0 -0.00000000000E+00 -0.00000000000E+00 -0.74505805969E-08  0.93827000000E+00  0.93827000000E+00 0.  1.
     999902    2    1    2    0    0 -0.44967185696E-02 -0.20670339905E-01 -0.10824764140E-01  0.10201674465E+01  0.10198906608E+01 0.  0.
     999903    2    3    3    0    0 -0.37611382355E-02  0.92900252157E-01 -0.87983222764E-01  0.12952035131E+00  0.19745148837E-01 0.  0.
         14    1    1    2    0    0  0.44967185696E-02  0.20670339905E-01  0.10824764140E-01  0.23762553490E-01  0.00000000000E+00 0.  1.
     999901    1    3    3    0    0 -0.73558033414E-03 -0.11357059206E+00  0.77158458624E-01  0.89064709520E+00  0.88000000000E+00 0. -1.
        -11    1    4    4    0    0 -0.91486722068E-02  0.30483243743E-01 -0.36499957907E-01  0.48429685116E-01  0.51100000000E-03 0.  1.
         11    1    4    4    0    0  0.53875339713E-02  0.62417008413E-01 -0.51483264857E-01  0.81090666189E-01  0.51100000000E-03 0. -1.
</event>
<event>
 8    1  0.1030163E+005  0.1043930E+01  0.7957747E-01            NaN
         13   -1    0    0    0    0  0.00000000000E+00  0.00000000000E+00  0.74505805969E-08  0.10566000000E+00  0.10566000000E+00 0. -1.
     999900   -1    0    0    0    0 -0.00000000000E+00 -0.00000000000E+00 -0.74505805969E-08  0.93827000000E+00  0.93827000000E+00 0.  1.
     999902    2    1    2    0    0 -0.14898579163E-01  0.12796530242E-01  0.11813480058E-01  0.10210110742E+01  0.10207538080E+01 0.  0.
     999903    2    3    3    0    0 -0.18480165196E-01  0.48077619473E-01 -0.11844078662E+00  0.13071687735E+00  0.20142196725E-01 0.  0.
         14    1    1    2    0    0  0.14898579163E-01 -0.12796530242E-01 -0.11813480058E-01  0.22918925769E-01  0.00000000000E+00 0.  1.
     999901    1    3    3    0    0  0.35815860336E-02 -0.35281089230E-01  0.13025426668E+00  0.89029419688E+00  0.88000000000E+00 0. -1.
        -11    1    4    4    0    0  0.38378110530E-02  0.13668413076E-01 -0.33681345752E-01  0.36554732695E-01  0.51100000000E-03 0. -1.
         11    1    4    4    0    0 -0.22317976250E-01  0.34409206397E-01 -0.84759440867E-01  0.94162144654E-01  0.51100000000E-03 0.  1.
</event>
<event>
 8    1  0.1030163E+005  0.1043930E+01  0.7957747E-01            NaN
         13   -1    0    0    0    0  0.00000000000E+00  0.00000000000E+00  0.74505805969E-08  0.10566000000E+00  0.10566000000E+00 0. -1.
     999900   -1    0    0    0    0 -0.00000000000E+00 -0.00000000000E+00 -0.74505805969E-08  0.93827000000E+00  0.93827000000E+00 0. -1.
     999902    2    1    2    0    0  0.76798641826E-02  0.31339945957E-02 -0.21770082255E-01  0.10206332466E+01  0.10203673287E+01 0.  0.
     999903    2    3    3    0    0 -0.10555633913E+00 -0.20488018320E-01  0.67618254776E-01  0.12857343248E+00  0.19924847181E-01 0.  0.
         14    1    1    2    0    0 -0.76798641826E-02 -0.31339945957E-02  0.21770082255E-01  0.23296753365E-01  0.00000000000E+00 0. -1.
     999901    1    3    3    0    0  0.11323620331E+00  0.23622012916E-01 -0.89388337030E-01  0.89205981416E+00  0.88000000000E+00 0. -1.
        -11    1    4    4    0    0 -0.77442681449E-01 -0.75164345158E-02  0.54200952939E-01  0.94825471886E-01  0.51100000000E-03 0. -1.
         11    1    4    4    0    0 -0.28113657681E-01 -0.12971583805E-01  0.13417301836E-01  0.33747960593E-01  0.51100000000E-03 0.  1.
</event>
<event>
 8    1  0.1122379E+005  0.1043930E+01  0.7957747E-01            NaN
         13   -1    0    0    0    0  0.00000000000E+00  0.00000000000E+00  0.74505805969E-08  0.10566000000E+00  0.10566000000E+00 0. -1.
     999900   -1    0    0    0    0 -0.00000000000E+00 -0.00000000000E+00 -0.74505805969E-08  0.93827000000E+00  0.93827000000E+00 0.  1.
     999902    2    1    2    0    0 -0.98546849998E-02 -0.13390480307E-01 -0.18410825367E-01  0.10191231810E+01  0.10188212207E+01 0.  0.
     999903    2    3    3    0    0 -0.14181985806E-01 -0.11679243351E+00 -0.56923217944E-01  0.13222189344E+00  0.20019368563E-01 0.  0.
         14    1    1    2    0    0  0.98546849998E-02  0.13390480307E-01  0.18410825367E-01  0.24806819022E-01  0.00000000000E+00 0. -1.
     999901    1    3    3    0    0  0.43273008064E-02  0.10340195320E+00  0.38512392577E-01  0.88690128754E+00  0.88000000000E+00 0.  1.
        -11    1    4    4    0    0 -0.22631278342E-02 -0.49827778730E-01 -0.14065881524E-01  0.51827014431E-01  0.51100000000E-03 0.  1.
         11    1    4    4    0    0 -0.11918857972E-01 -0.66964654776E-01 -0.42857336420E-01  0.80394879008E-01  0.51100000000E-03 0. -1.
</event>
<event>
 8    1  0.1030163E+005  0.1043930E+01  0.7957747E-01            NaN
         13   -1    0    0    0    0  0.00000000000E+00  0.00000000000E+00  0.74505805969E-08  0.10566000000E+00  0.10566000000E+00 0. -1.
     999900   -1    0    0    0    0 -0.00000000000E+00 -0.00000000000E+00 -0.74505805969E-08  0.93827000000E+00  0.93827000000E+00 0.  1.
     999902    2    1    2    0    0  0.29646519520E-02  0.11614052718E-02 -0.23586628299E-01  0.10201294316E+01  0.10198517491E+01 0.  0.
     999903    2    3    3    0    0  0.11019650819E+00  0.64607674773E-01 -0.23010276603E-01  0.13135250101E+00  0.20163943954E-01 0.  0.
         14    1    1    2    0    0 -0.29646519520E-02 -0.11614052718E-02  0.23586628299E-01  0.23800568437E-01  0.00000000000E+00 0. -1.
     999901    1    3    3    0    0 -0.10723185623E+00 -0.63446269501E-01 -0.57635169579E-03  0.88877693055E+00  0.88000000000E+00 0. -1.
        -11    1    4    4    0    0  0.59073737514E-01  0.39445142536E-01 -0.21993906926E-01  0.74361406633E-01  0.51100000000E-03 0.  1.
         11    1    4    4    0    0  0.51122770672E-01  0.25162532237E-01 -0.10163696772E-02  0.56991094375E-01  0.51100000000E-03 0. -1.
</event>
<event>
 8    1  0.1030163E+005  0.1043930E+01  0.7957747E-01            NaN
         13   -1    0    0    0    0  0.00000000000E+00  0.00000000000E+00  0.74505805969E-08  0.10566000000E+00  0.10566000000E+00 0.  1.
     999900   -1    0    0    0    0 -0.00000000000E+00 -0.00000000000E+00 -0.74505805969E-08  0.93827000000E+00  0.93827000000E+00 0.  1.
     999902    2    1    2    0    0  0.20343126041E-01 -0.47051633639E-02 -0.11044284810E-01  0.10203088746E+01  0.10200354121E+01 0.  0.
     999903    2    3    3    0    0  0.10131982716E+00  0.48189086734E-01  0.66554103891E-01  0.13161514907E+00  0.17470067655E-01 0.  0.
         14    1    1    2    0    0 -0.20343126041E-01  0.47051633639E-02  0.11044284810E-01  0.23621125425E-01  0.00000000000E+00 0.  1.
     999901    1    3    3    0    0 -0.80976701123E-01 -0.52894250098E-01 -0.77598388702E-01  0.88869372550E+00  0.88000000000E+00 0. -1.
        -11    1    4    4    0    0  0.82338831886E-01  0.46024197526E-01  0.57437937057E-01  0.11044133161E+00  0.51100000000E-03 0. -1.
         11    1    4    4    0    0  0.18980995278E-01  0.21648892074E-02  0.91161668340E-02  0.21173817458E-01  0.51100000000E-03 0.  1.
</event>
<event>
 8    1  0.1030163E+005  0.1043930E+01  0.7957747E-01            NaN
         13   -1    0    0    0    0  0.00000000000E+00  0.00000000000E+00  0.74505805969E-08  0.10566000000E+00  0.10566000000E+00 0.  1.
     999900   -1    0    0    0    0 -0.00000000000E+00 -0.00000000000E+00 -0.74505805969E-08  0.93827000000E+00  0.93827000000E+00 0. -1.
     999902    2    1    2    0    0  0.60046880950E-02 -0.23342701510E-01  0.48844558563E-02  0.10193374015E+01  0.10190406970E+01 0.  0.
     999903    2    3    3    0    0  0.10169070710E+00  0.50715867254E-01 -0.57448063258E-01  0.12887357359E+00  0.19875082291E-01 0.  0.
         14    1    1    2    0    0 -0.60046880950E-02  0.23342701510E-01 -0.48844558563E-02  0.24592598519E-01  0.00000000000E+00 0. -1.
     999901    1    3    3    0    0 -0.95686019006E-01 -0.74058568764E-01  0.62332519114E-01  0.89046382789E+00  0.88000000000E+00 0. -1.
        -11    1    4    4    0    0  0.61759620665E-01  0.19931208919E-01 -0.34010615939E-01  0.73269959405E-01  0.51100000000E-03 0.  1.
         11    1    4    4    0    0  0.39931086436E-01  0.30784658335E-01 -0.23437447319E-01  0.55603614187E-01  0.51100000000E-03 0. -1.
</event>
<event>
 8    1  0.1030163E+005  0.1043930E+01  0.7957747E-01            NaN
         13   -1    0    0    0    0  0.00000000000E+00  0.00000000000E+00  0.74505805969E-08  0.10566000000E+00  0.10566000000E+00 0. -1.
     999900   -1    0    0    0    0 -0.00000000000E+00 -0.00000000000E+00 -0.74505805969E-08  0.93827000000E+00  0.93827000000E+00 0.  1.
     999902    2    1    2    0    0 -0.72535049655E-02  0.20279059043E-01 -0.70291666466E-02  0.10212746970E+01  0.10210233807E+01 0.  0.
     999903    2    3    3    0    0 -0.25380452818E-01  0.19819875309E-01 -0.12805455487E+00  0.13280638486E+00  0.14232778856E-01 0.  0.
         14    1    1    2    0    0  0.72535049655E-02 -0.20279059043E-01  0.70291666466E-02  0.22655302993E-01  0.00000000000E+00 0. -1.
     999901    1    3    3    0    0  0.18126947852E-01  0.45918373376E-03  0.12102538823E+00  0.88846831214E+00  0.88000000000E+00 0. -1.
        -11    1    4    4    0    0 -0.15933685319E-02 -0.17606582194E-02 -0.17896020582E-01  0.18060105601E-01  0.51100000000E-03 0. -1.
         11    1    4    4    0    0 -0.23787084286E-01  0.21580533529E-01 -0.11015853429E+00  0.11474627926E+00  0.51100000000E-03 0.  1.
</event>
<event>
 8    1  0.1030163E+005  0.1043930E+01  0.7957747E-01            NaN
         13   -1    0    0    0    0  0.00000000000E+00  0.00000000000E+00  0.74505805969E-08  0.10566000000E+00  0.10566000000E+00 0. -1.
     999900   -1    0    0    0    0 -0.00000000000E+00 -0.00000000000E+00 -0.74505805969E-08  0.93827000000E+00  0.93827000000E+00 0. -1.
     999902    2    1    2    0    0  0.60366296373E-02  0.63166048166E-03 -0.23497988647E-01  0.10196607733E+01  0.10193719132E+01 0.  0.
     999903    2    3    3    0    0 -0.24050330953E-01  0.12555580177E+00  0.27995512052E-02  0.12994012792E+00  0.23106743204E-01 0.  0.
         14    1    1    2    0    0 -0.60366296373E-02 -0.63166048166E-03  0.23497988647E-01  0.24269226663E-01  0.00000000000E+00 0. -1.
     999901    1    3    3    0    0  0.30086960590E-01 -0.12492414129E+00 -0.26297539852E-01  0.88972064541E+00  0.88000000000E+00 0. -1.
        -11    1    4    4    0    0 -0.11671995518E-01  0.17800475581E-01  0.27964231019E-02  0.21474950837E-01  0.51100000000E-03 0.  1.
         11    1    4    4    0    0 -0.12378335434E-01  0.10775532619E+00  0.31281033018E-05  0.10846517709E+00  0.51100000000E-03 0. -1.
</event>
<event>
 8    1  0.1030163E+005  0.1043930E+01  0.7957747E-01            NaN
         13   -1    0    0    0    0  0.00000000000E+00  0.00000000000E+00  0.74505805969E-08  0.10566000000E+00  0.10566000000E+00 0.  1.
     999900   -1    0    0    0    0 -0.00000000000E+00 -0.00000000000E+00 -0.74505805969E-08  0.93827000000E+00  0.93827000000E+00 0. -1.
     999902    2    1    2    0    0 -0.10405553037E-01 -0.18999730485E-01 -0.11001344874E-01  0.10196340151E+01  0.10193445099E+01 0.  0.
     999903    2    3    3    0    0 -0.21708928500E-01  0.86164224040E-01 -0.92182098486E-01  0.12959045529E+00  0.20014887964E-01 0.  0.
         14    1    1    2    0    0  0.10405553037E-01  0.18999730485E-01  0.11001344874E-01  0.24295984885E-01  0.00000000000E+00 0.  1.
     999901    1    3    3    0    0  0.11303375464E-01 -0.10516395452E+00  0.81180753612E-01  0.89004355982E+00  0.88000000000E+00 0.  1.
        -11    1    4    4    0    0 -0.15979357821E-01  0.37835110456E-01 -0.53333286439E-01  0.67316684582E-01  0.51100000000E-03 0. -1.
         11    1    4    4    0    0 -0.57295706792E-02  0.48329113583E-01 -0.38848812047E-01  0.62273770709E-01  0.51100000000E-03 0.  1.
</event>
<event>
 8    1  0.1030163E+005  0.1043930E+01  0.7957747E-01            NaN
         13   -1    0    0    0    0  0.00000000000E+00  0.00000000000E+00  0.74505805969E-08  0.10566000000E+00  0.10566000000E+00 0.  1.
     999900   -1    0    0    0    0 -0.00000000000E+00 -0.00000000000E+00 -0.74505805969E-08  0.93827000000E+00  0.93827000000E+00 0. -1.
     999902    2    1    2    0    0 -0.78376296471E-02  0.19463638553E-01 -0.12082201094E-01  0.10197175807E+01  0.10194300874E+01 0.  0.
     999903    2    3    3    0    0  0.48873018382E-01 -0.11578728448E+00 -0.10064036508E-01  0.12757802730E+00  0.19483353068E-01 0.  0.
         14    1    1    2    0    0  0.78376296471E-02 -0.19463638553E-01  0.12082201094E-01  0.24212419282E-01  0.00000000000E+00 0.  1.
     999901    1    3    3    0    0 -0.56710648029E-01  0.13525092303E+00 -0.20181645855E-02  0.89213955342E+00  0.88000000000E+00 0.  1.
        -11    1    4    4    0    0  0.28426893451E-01 -0.74463785666E-01 -0.15338585138E-01  0.81169433668E-01  0.51100000000E-03 0.  1.
         11    1    4    4    0    0  0.20446124931E-01 -0.41323498813E-01  0.52745486303E-02  0.46408593634E-01  0.51100000000E-03 0. -1.
</event>
<event>
 8    1  0.1030163E+005  0.1043930E+01  0.7957747E-01            NaN
         13   -1    0    0    0    0  0.00000000000E+00  0.00000000000E+00  0.74505805969E-08  0.10566000000E+00  0.10566000000E+00 0. -1.
     999900   -1    0    0    0    0 -0.00000000000E+00 -0.00000000000E+00 -0.74505805969E-08  0.93827000000E+00  0.93827000000E+00 0. -1.
     999902    2    1    2    0    0  0.12009655814E-02  0.13263669579E-01 -0.15342428629E-01  0.10236135691E+01  0.10234119315E+01 0.  0.
     999903    2    3    3    0    0 -0.25195149246E-01 -0.12211511501E+00 -0.40465152357E-01  0.13251575097E+00  0.19393267887E-01 0.  0.
         14    1    1    2    0    0 -0.12009655814E-02 -0.13263669579E-01  0.15342428629E-01  0.20316430919E-01  0.00000000000E+00 0. -1.
     999901    1    3    3    0    0  0.26396114828E-01  0.13537878459E+00  0.25122723728E-01  0.89109781811E+00  0.88000000000E+00 0.  1.
        -11    1    4    4    0    0 -0.10161042513E-02 -0.31906656412E-01 -0.36793934124E-02  0.32138236544E-01  0.51100000000E-03 0.  1.
         11    1    4    4    0    0 -0.24179044995E-01 -0.90208458602E-01 -0.36785758945E-01  0.10037751443E+00  0.51100000000E-03 0. -1.
</event>
<event>
 8    1  0.1030163E+005  0.1043930E+01  0.7957747E-01            NaN
         13   -1    0    0    0    0  0.00000000000E+00  0.00000000000E+00  0.74505805969E-08  0.10566000000E+00  0.10566000000E+00 0. -1.
     999900   -1    0    0    0    0 -0.00000000000E+00 -0.00000000000E+00 -0.74505805969E-08  0.93827000000E+00  0.93827000000E+00 0. -1.
     999902    2    1    2    0    0  0.76944316507E-02 -0.74415308051E-02  0.20132836840E-01  0.10211284260E+01  0.10208738171E+01 0.  0.
     999903    2    3    3    0    0  0.18508486369E-01  0.11378025802E-01 -0.12454500061E+00  0.12905062883E+00  0.25895638348E-01 0.  0.
         14    1    1    2    0    0 -0.76944316507E-02  0.74415308051E-02 -0.20132836840E-01  0.22801574033E-01  0.00000000000E+00 0.  1.
     999901    1    3    3    0    0 -0.10814054718E-01 -0.18819556607E-01  0.14467783745E+00  0.89207779713E+00  0.88000000000E+00 0.  1.
        -11    1    4    4    0    0  0.10291656188E-01  0.88842442541E-02 -0.20217951125E-01  0.24369543528E-01  0.51100000000E-03 0. -1.
         11    1    4    4    0    0  0.82168301811E-02  0.24937815477E-02 -0.10432704949E+00  0.10468108531E+00  0.51100000000E-03 0.  1.
</event>
<event>
 8    1  0.1030163E+005  0.1043930E+01  0.7957747E-01            NaN
         13   -1    0    0    0    0  0.00000000000E+00  0.00000000000E+00  0.74505805969E-08  0.10566000000E+00  0.10566000000E+00 0. -1.
     999900   -1    0    0    0    0 -0.00000000000E+00 -0.00000000000E+00 -0.74505805969E-08  0.93827000000E+00  0.93827000000E+00 0. -1.
     999902    2    1    2    0    0 -0.16556843117E-01  0.14846985011E-01  0.50511917108E-02  0.10211248130E+01  0.10208701225E+01 0.  0.
     999903    2    3    3    0    0 -0.72669643199E-01 -0.25407983028E-01 -0.10500406070E+00  0.13158489404E+00  0.19033889050E-01 0.  0.
         14    1    1    2    0    0  0.16556843117E-01 -0.14846985011E-01 -0.50511917108E-02  0.22805187034E-01  0.00000000000E+00 0.  1.
     999901    1    3    3    0    0  0.56112800081E-01  0.40254968039E-01  0.11005525241E+00  0.88953991893E+00  0.88000000000E+00 0.  1.
        -11    1    4    4    0    0 -0.38416077062E-01 -0.10901548032E-01 -0.69515515315E-01  0.80170485323E-01  0.51100000000E-03 0.  1.
         11    1    4    4    0    0 -0.34253566136E-01 -0.14506434996E-01 -0.35488545380E-01  0.51414408715E-01  0.51100000000E-03 0. -1.
</event>
<event>
 8    1  0.1030163E+005  0.1043930E+01  0.7957747E-01            NaN
         13   -1    0    0    0    0  0.00000000000E+00  0.00000000000E+00  0.74505805969E-08  0.10566000000E+00  0.10566000000E+00 0.  1.
     999900   -1    0    0    0    0 -0.00000000000E+00 -0.00000000000E+00 -0.74505805969E-08  0.93827000000E+00  0.93827000000E+00 0. -1.
     999902    2    1    2    0    0 -0.15036120701E-01 -0.11541397743E-01 -0.13454934423E-01  0.10206851286E+01  0.10204204073E+01 0.  0.
     999903    2    3    3    0    0  0.10439160237E+00  0.14215425208E-02  0.71939777770E-01  0.12842772415E+00  0.20462680098E-01 0.  0.
         14    1    1    2    0    0  0.15036120701E-01  0.11541397743E-01  0.13454934423E-01  0.23244871433E-01  0.00000000000E+00 0.  1.
     999901    1    3    3    0    0 -0.11942772307E+00 -0.12962940263E-01 -0.85394712193E-01  0.89225740441E+00  0.88000000000E+00 0. -1.
        -11    1    4    4    0    0  0.10340616104E-01  0.59424387198E-02  0.52423577557E-02  0.13037804845E-01  0.51100000000E-03 0.  1.
         11    1    4    4    0    0  0.94050986269E-01 -0.45208961990E-02  0.66697420014E-01  0.11538991931E+00  0.51100000000E-03 0. -1.
</event>
<event>
 8    1  0.1030163E+005  0.1043930E+01  0.7957747E-01            NaN
         13   -1    0    0    0    0  0.00000000000E+00  0.00000000000E+00  0.74505805969E-08  0.10566000000E+00  0.10566000000E+00 0.  1.
     999900   -1    0    0    0    0 -0.00000000000E+00 -0.00000000000E+00 -0.74505805969E-08  0.93827000000E+00  0.93827000000E+00 0.  1.
     999902    2    1    2    0    0 -0.76647784701E-02  0.48009566640E-02 -0.22271264957E-01  0.10198923783E+01  0.10196090702E+01 0.  0.
     999903    2    3    3    0    0 -0.34180678811E-01 -0.75198688658E-01 -0.10128094019E+00  0.13234206142E+00  0.20819000810E-01 0.  0.
         14    1    1    2    0    0  0.76647784701E-02 -0.48009566640E-02  0.22271264957E-01  0.24037621694E-01  0.00000000000E+00 0.  1.
     999901    1    3    3    0    0  0.26515900340E-01  0.79999645322E-01  0.79009675236E-01  0.88755031689E+00  0.88000000000E+00 0. -1.
        -11    1    4    4    0    0 -0.91824512185E-03 -0.24593698869E-01 -0.30170152990E-01  0.38938315970E-01  0.51100000000E-03 0. -1.
         11    1    4    4    0    0 -0.33262433689E-01 -0.50604989790E-01 -0.71110787203E-01  0.93403745451E-01  0.51100000000E-03 0.  1.
</event>
<event>
 8    1  0.1030163E+005  0.1043930E+01  0.7957747E-01            NaN
         13   -1    0    0    0    0  0.00000000000E+00  0.00000000000E+00  0.74505805969E-08  0.10566000000E+00  0.10566000000E+00 0.  1.
     999900   -1    0    0    0    0 -0.00000000000E+00 -0.00000000000E+00 -0.74505805969E-08  0.93827000000E+00  0.93827000000E+00 0. -1.
     999902    2    1    2    0    0  0.16101591877E-01  0.14250781040E-01 -0.91122013271E-02  0.10205766655E+01  0.10203094393E+01 0.  0.
     999903    2    3    3    0    0  0.49795943434E-01  0.11536577306E+00  0.38197667085E-01  0.13288427809E+00  0.20255172615E-01 0.  0.
         14    1    1    2    0    0 -0.16101591877E-01 -0.14250781040E-01  0.91122013271E-02  0.23353334543E-01  0.00000000000E+00 0.  1.
     999901    1    3    3    0    0 -0.33694351556E-01 -0.10111499202E+00 -0.47309868413E-01  0.88769238737E+00  0.88000000000E+00 0. -1.
        -11    1    4    4    0    0  0.34350611556E-01  0.71291929657E-01  0.33527141073E-01  0.85946693119E-01  0.51100000000E-03 0.  1.
         11    1    4    4    0    0  0.15445331878E-01  0.44073843400E-01  0.46705260122E-02  0.46937584973E-01  0.51100000000E-03 0. -1.
</event>
<event>
 8    1  0.1030163E+005  0.1043930E+01  0.7957747E-01            NaN
         13   -1    0    0    0    0  0.00000000000E+00  0.00000000000E+00  0.74505805969E-08  0.10566000000E+00  0.10566000000E+00 0.  1.
     999900   -1    0    0    0    0 -0.00000000000E+00 -0.00000000000E+00 -0.74505805969E-08  0.93827000000E+00  0.93827000000E+00 0.  1.
     999902    2    1    2    0    0  0.17401616416E-01 -0.95238198696E-02  0.12816433340E-01  0.10203126258E+01  0.10200392512E+01 0.  0.
     999903    2    3    3    0    0  0.89659912407E-01  0.28720451104E-01 -0.88068380091E-01  0.13078374425E+00  0.22013268340E-01 0.  0.
         14    1    1    2    0    0 -0.17401616416E-01  0.95238198696E-02 -0.12816433340E-01  0.23617374163E-01  0.00000000000E+00 0. -1.
     999901    1    3    3    0    0 -0.72258295991E-01 -0.38244270974E-01  0.10088481343E+00  0.88952888159E+00  0.88000000000E+00 0. -1.
        -11    1    4    4    0    0  0.39743669846E-01  0.26627945633E-02 -0.43374363364E-01  0.58891818497E-01  0.51100000000E-03 0. -1.
         11    1    4    4    0    0  0.49916242561E-01  0.26057656541E-01 -0.44694016727E-01  0.71891925750E-01  0.51100000000E-03 0.  1.
</event>
<event>
 8    1  0.1030163E+005  0.1043930E+01  0.7957747E-01            NaN
         13   -1    0    0    0    0  0.00000000000E+00  0.00000000000E+00  0.74505805969E-08  0.10566000000E+00  0.10566000000E+00 0. -1.
     999900   -1    0    0    0    0 -0.00000000000E+00 -0.00000000000E+00 -0.74505805969E-08  0.93827000000E+00  0.93827000000E+00 0. -1.
     999902    2    1    2    0    0 -0.21967496650E-01 -0.54035732132E-02  0.72778639284E-02  0.10201658081E+01  0.10198889838E+01 0.  0.
     999903    2    3    3    0    0 -0.12146531918E+00  0.44841754221E-01 -0.21742898602E-01  0.13265996911E+00  0.19008079295E-01 0.  0.
         14    1    1    2    0    0  0.21967496650E-01  0.54035732132E-02 -0.72778639284E-02  0.23764191884E-01  0.00000000000E+00 0. -1.
     999901    1    3    3    0    0  0.99497822530E-01 -0.50245327435E-01  0.29020762530E-01  0.88750583901E+00  0.88000000000E+00 0.  1.
        -11    1    4    4    0    0 -0.49032044131E-01  0.25232771195E-01 -0.15889721892E-01  0.57389707062E-01  0.51100000000E-03 0. -1.
         11    1    4    4    0    0 -0.72433275049E-01  0.19608983027E-01 -0.58531767103E-02  0.75270262045E-01  0.51100000000E-03 0.  1.
</event>
<event>
 8    1  0.1030163E+005  0.1043930E+01  0.7957747E-01            NaN
         13   -1    0    0    0    0  0.00000000000E+00  0.00000000000E+00  0.74505805969E-08  0.10566000000E+00  0.10566000000E+00 0. -1.
     999900   -1    0    0    0    0 -0.00000000000E+00 -0.00000000000E+00 -0.74505805969E-08  0.93827000000E+00  0.93827000000E+00 0.  1.
     999902    2    1    2    0    0 -0.39616463313E-02 -0.22881714117E-01  0.47285431142E-04  0.10207078184E+01  0.10204436196E+01 0.  0.
     999903    2    3    3    0    0 -0.57231875848E-01 -0.75249659051E-01  0.91210453691E-01  0.13285037361E+00  0.19795860828E-01 0.  0.
         14    1    1    2    0    0  0.39616463313E-02  0.22881714117E-01 -0.47285431142E-04  0.23222181605E-01  0.00000000000E+00 0.  1.
     999901    1    3    3    0    0  0.53270229517E-01  0.52367944933E-01 -0.91163168260E-01  0.88785744478E+00  0.88000000000E+00 0.  1.
        -11    1    4    4    0    0 -0.33617203188E-01 -0.38241860969E-01  0.36238581814E-01  0.62498417688E-01  0.51100000000E-03 0.  1.
         11    1    4    4    0    0 -0.23614672661E-01 -0.37007798081E-01  0.54971871877E-01  0.70351955924E-01  0.51100000000E-03 0. -1.
</event>
<event>
 8    1  0.1030163E+005  0.1043930E+01  0.7957747E-01            NaN
         13   -1    0    0    0    0  0.00000000000E+00  0.00000000000E+00  0.74505805969E-08  0.10566000000E+00  0.10566000000E+00 0. -1.
     999900   -1    0    0    0    0 -0.00000000000E+00 -0.00000000000E+00 -0.74505805969E-08  0.93827000000E+00  0.93827000000E+00 0.  1.
     999902    2    1    2    0    0  0.18663627754E-01 -0.55304993107E-02  0.10758941572E-01  0.10216887715E+01  0.10214466572E+01 0.  0.
     999903    2    3    3    0    0  0.12792291904E+00  0.12181812277E-01  0.33851012520E-01  0.13445455071E+00  0.20480854318E-01 0.  0.
         14    1    1    2    0    0 -0.18663627754E-01  0.55304993107E-02 -0.10758941572E-01  0.22241228547E-01  0.00000000000E+00 0.  1.
     999901    1    3    3    0    0 -0.10925929128E+00 -0.17712311588E-01 -0.23092070949E-01  0.88723422074E+00  0.88000000000E+00 0. -1.
        -11    1    4    4    0    0  0.46905518849E-01  0.12762785659E-01  0.70873589549E-02  0.49127468632E-01  0.51100000000E-03 0. -1.
         11    1    4    4    0    0  0.81017400186E-01 -0.58097338197E-03  0.26763653566E-01  0.85327082080E-01  0.51100000000E-03 0.  1.
</event>
<event>
 8    1  0.1030163E+005  0.1043930E+01  0.7957747E-01            NaN
         13   -1    0    0    0    0  0.00000000000E+00  0.00000000000E+00  0.74505805969E-08  0.10566000000E+00  0.10566000000E+00 0. -1.
     999900   -1    0    0    0    0 -0.00000000000E+00 -0.00000000000E+00 -0.74505805969E-08  0.93827000000E+00  0.93827000000E+00 0.  1.
     999902    2    1    2    0    0  0.83947015746E-02  0.17531527532E-01  0.14933259041E-01  0.10194182131E+01  0.10191234790E+01 0.  0.
     999903    2    3    3    0    0  0.65420525810E-01 -0.65349008917E-01  0.89771580502E-01  0.13053019859E+00  0.20708884929E-01 0.  0.
         14    1    1    2    0    0 -0.83947015746E-02 -0.17531527532E-01 -0.14933259041E-01  0.24511786914E-01  0.00000000000E+00 0.  1.
     999901    1    3    3    0    0 -0.57025824235E-01  0.82880536449E-01 -0.74838321461E-01  0.88888801449E+00  0.88000000000E+00 0.  1.
        -11    1    4    4    0    0  0.43004655938E-01 -0.51590090541E-01  0.73647678830E-01  0.99675371043E-01  0.51100000000E-03 0.  1.
         11    1    4    4    0    0  0.22415869872E-01 -0.13758918376E-01  0.16123901671E-01  0.30854827549E-01  0.51100000000E-03 0. -1.
</event>
<event>
 8    1  0.1030163E+005  0.1043930E+01  0.7957747E-01            NaN
         13   -1    0    0    0    0  0.00000000000E+00  0.00000000000E+00  0.74505805969E-08  0.10566000000E+00  0.10566000000E+00 0. -1.
     999900   -1    0    0    0    0 -0.00000000000E+00 -0.00000000000E+00 -0.74505805969E-08  0.93827000000E+00  0.93827000000E+00 0. -1.
     999902    2    1    2    0    0  0.27410333282E-02 -0.36797930528E-02 -0.23880883157E-01  0.10196122961E+01  0.10193222669E+01 0.  0.
     999903    2    3    3    0    0  0.32673273907E-01  0.21666867968E-01 -0.12536352931E+00  0.13291216660E+00  0.20313383639E-01 0.  0.
         14    1    1    2    0    0 -0.27410333282E-02  0.36797930528E-02  0.23880883157E-01  0.24317703859E-01  0.00000000000E+00 0. -1.
     999901    1    3    3    0    0 -0.29932240578E-01 -0.25346661020E-01  0.10148264615E+00  0.88670012954E+00  0.88000000000E+00 0.  1.
        -11    1    4    4    0    0  0.21569450465E-01  0.24216303676E-01 -0.99309286680E-01  0.10447136497E+00  0.51100000000E-03 0.  1.
         11    1    4    4    0    0  0.11103823441E-01 -0.25494357084E-02 -0.26054242631E-01  0.28440801633E-01  0.51100000000E-03 0. -1.
</event>
<event>
 8    1  0.1030163E+005  0.1043930E+01  0.7957747E-01            NaN
         13   -1    0    0    0    0  0.00000000000E+00  0.00000000000E+00  0.74505805969E-08  0.10566000000E+00  0.10566000000E+00 0. -1.
     999900   -1    0    0    0    0 -0.00000000000E+00 -0.00000000000E+00 -0.74505805969E-08  0.93827000000E+00  0.93827000000E+00 0. -1.
     999902    2    1    2    0    0  0.22841032418E-01 -0.95873139859E-02  0.33800438057E-02  0.10189289191E+01  0.10186221518E+01 0.  0.
     999903    2    3    3    0    0 -0.11057498850E+00 -0.38520572613E-01  0.46562748523E-01  0.12735631178E+00  0.18462881748E-01 0.  0.
         14    1    1    2    0    0 -0.22841032418E-01  0.95873139859E-02 -0.33800438057E-02  0.25001080927E-01  0.00000000000E+00 0. -1.
     999901    1    3    3    0    0  0.13341602092E+00  0.28933258627E-01 -0.43182704717E-01  0.89157260730E+00  0.88000000000E+00 0. -1.
        -11    1    4    4    0    0 -0.22636743105E-01 -0.15259462626E-01  0.71796872181E-02  0.28232647194E-01  0.51100000000E-03 0.  1.
         11    1    4    4    0    0 -0.87938245399E-01 -0.23261109987E-01  0.39383061305E-01  0.99123664583E-01  0.51100000000E-03 0. -1.
</event>
<event>
 8    1  0.1030163E+005  0.1043930E+01  0.7957747E-01            NaN
         13   -1    0    0    0    0  0.00000000000E+00  0.00000000000E+00  0.74505805969E-08  0.10566000000E+00  0.10566000000E+00 0.  1.
     999900   -1    0    0    0    0 -0.00000000000E+00 -0.00000000000E+00 -0.74505805969E-08  0.93827000000E+00  0.93827000000E+00 0. -1.
     999902    2    1    2    0    0  0.17532666154E-01 -0.12837077948E-01  0.85314767488E-02  0.10205853850E+01  0.10203183607E+01 0.  0.
     999903    2    3    3    0    0 -0.33006941819E-01 -0.16769474286E-01  0.12452408713E+00  0.13152745588E+00  0.20556018552E-01 0.  0.
         14    1    1    2    0    0 -0.17532666154E-01  0.12837077948E-01 -0.85314767488E-02  0.23344614973E-01  0.00000000000E+00 0.  1.
     999901    1    3    3    0    0  0.50539607973E-01  0.39323963387E-02 -0.11599261038E+00  0.88905792915E+00  0.88000000000E+00 0. -1.
        -11    1    4    4    0    0 -0.21820371207E-01 -0.16700765374E-01  0.59427594501E-01  0.65474760579E-01  0.51100000000E-03 0. -1.
         11    1    4    4    0    0 -0.11186570612E-01 -0.68708912212E-04  0.65096492630E-01  0.66052695302E-01  0.51100000000E-03 0.  1.
</event>
<event>
 8    1  0.1030163E+005  0.1043930E+01  0.7957747E-01            NaN
         13   -1    0    0    0    0  0.00000000000E+00  0.00000000000E+00  0.74505805969E-08  0.10566000000E+00  0.10566000000E+00 0. -1.
     999900   -1    0    0    0    0 -0.00000000000E+00 -0.00000000000E+00 -0.74505805969E-08  0.93827000000E+00  0.93827000000E+00 0.  1.
     999902    2    1    2    0    0  0.22641656709E-01 -0.47373449437E-02  0.17228761615E-02  0.10207339797E+01  0.10204703827E+01 0.  0.
     999903    2    3    3    0    0 -0.27330205325E-01 -0.13384757205E-01  0.12546532845E+00  0.13063052547E+00  0.19917170806E-01 0.  0.
         14    1    1    2    0    0 -0.22641656709E-01  0.47373449437E-02 -0.17228761615E-02  0.23196020303E-01  0.00000000000E+00 0. -1.
     999901    1    3    3    0    0  0.49971862034E-01  0.86474122613E-02 -0.12374245229E+00  0.89010345423E+00  0.88000000000E+00 0.  1.
        -11    1    4    4    0    0 -0.19821650330E-01 -0.40202125784E-02  0.45869636759E-01  0.50133268678E-01  0.51100000000E-03 0.  1.
         11    1    4    4    0    0 -0.75085549948E-02 -0.93645446267E-02  0.79595691689E-01  0.80497256789E-01  0.51100000000E-03 0. -1.
</event>
<event>
 8    1  0.1030163E+005  0.1043930E+01  0.7957747E-01            NaN
         13   -1    0    0    0    0  0.00000000000E+00  0.00000000000E+00  0.74505805969E-08  0.10566000000E+00  0.10566000000E+00 0.  1.
     999900   -1    0    0    0    0 -0.00000000000E+00 -0.00000000000E+00 -0.74505805969E-08  0.93827000000E+00  0.93827000000E+00 0.  1.
     999902    2    1    2    0    0 -0.42651024599E-02 -0.21391485928E-01 -0.39849854036E-02  0.10217564374E+01  0.10215158102E+01 0.  0.
     999903    2    3    3    0    0  0.79330802028E-01  0.39805155988E-01  0.93031781239E-01  0.13038358768E+00  0.21613445402E-01 0.  0.
         14    1    1    2    0    0  0.42651024599E-02  0.21391485928E-01  0.39849854036E-02  0.22173562589E-01  0.00000000000E+00 0. -1.
     999901    1    3    3    0    0 -0.83595904488E-01 -0.61196641917E-01 -0.97016766642E-01  0.89137284973E+00  0.88000000000E+00 0. -1.
        -11    1    4    4    0    0  0.18257340951E-01  0.10792560792E-01  0.36637981441E-01  0.42336894927E-01  0.51100000000E-03 0.  1.
         11    1    4    4    0    0  0.61073461077E-01  0.29012595197E-01  0.56393799798E-01  0.88046692752E-01  0.51100000000E-03 0. -1.
</event>
<event>
 8    1  0.1030163E+005  0.1043930E+01  0.7957747E-01            NaN
         13   -1    0    0    0    0  0.00000000000E+00  0.00000000000E+00  0.74505805969E-08  0.10566000000E+00  0.10566000000E+00 0.  1.
     999900   -1    0    0    0    0 -0.00000000000E+00 -0.00000000000E+00 -0.74505805969E-08  0.93827000000E+00  0.93827000000E+00 0.  1.
     999902    2    1    2    0    0 -0.65027613276E-02  0.16911479647E-01 -0.14333254386E-01  0.10208274843E+01  0.10205660324E+01 0.  0.
     999903    2    3    3    0    0 -0.17596262858E-01  0.12865853233E+00  0.20963267431E-01  0.13298948447E+00  0.19598418014E-01 0.  0.
         14    1    1    2    0    0  0.65027613276E-02 -0.16911479647E-01  0.14333254386E-01  0.23102515665E-01  0.00000000000E+00 0.  1.
     999901    1    3    3    0    0  0.11093501530E-01 -0.11174705269E+00 -0.35296521817E-01  0.88783799987E+00  0.88000000000E+00 0.  1.
        -11    1    4    4    0    0 -0.46709595701E-02  0.59395676018E-01  0.37373133882E-03  0.59582421813E-01  0.51100000000E-03 0.  1.
         11    1    4    4    0    0 -0.12925303287E-01  0.69262856314E-01  0.20589536092E-01  0.73407062653E-01  0.51100000000E-03 0. -1.
</event>
<event>
 8    1  0.1030163E+005  0.1043930E+01  0.7957747E-01            NaN
         13   -1    0    0    0    0  0.00000000000E+00  0.00000000000E+00  0.74505805969E-08  0.10566000000E+00  0.10566000000E+00 0. -1.
     999900   -1    0    0    0    0 -0.00000000000E+00 -0.00000000000E+00 -0.74505805969E-08  0.93827000000E+00  0.93827000000E+00 0. -1.
     999902    2    1    2    0    0 -0.37385071695E-02  0.22355813552E-01 -0.63145576930E-02  0.10204006040E+01  0.10201292860E+01 0.  0.
     999903    2    3    3    0    0  0.10403424035E+00  0.19451949077E-01  0.72824390085E-01  0.13029590762E+00  0.21728558676E-01 0.  0.
         14    1    1    2    0    0  0.37385071695E-02 -0.22355813552E-01  0.63145576930E-02  0.23529395961E-01  0.00000000000E+00 0. -1.
     999901    1    3    3    0    0 -0.10777274752E+00  0.29038644753E-02 -0.79138947778E-01  0.89010469642E+00  0.88000000000E+00 0. -1.
        -11    1    4    4    0    0  0.89922998712E-01  0.18257615236E-01  0.70974305824E-01  0.11600473878E+00  0.51100000000E-03 0. -1.
         11    1    4    4    0    0  0.14111241639E-01  0.11943338402E-02  0.18500842610E-02  0.14291168836E-01  0.51100000000E-03 0.  1.
</event>
<event>
 8    1  0.1030163E+005  0.1043930E+01  0.7957747E-01            NaN
         13   -1    0    0    0    0  0.00000000000E+00  0.00000000000E+00  0.74505805969E-08  0.10566000000E+00  0.10566000000E+00 0.  1.
     999900   -1    0    0    0    0 -0.00000000000E+00 -0.00000000000E+00 -0.74505805969E-08  0.93827000000E+00  0.93827000000E+00 0. -1.
     999902    2    1    2    0    0 -0.19070801691E-01  0.14230534628E-01  0.92039101410E-03  0.10201171734E+01  0.10198392014E+01 0.  0.
     999903    2    3    3    0    0 -0.47859192573E-01 -0.75999138174E-01 -0.93512387582E-01  0.13001172176E+00  0.95973874381E-02 0.  0.
         14    1    1    2    0    0  0.19070801691E-01 -0.14230534628E-01 -0.92039101410E-03  0.23812826640E-01  0.00000000000E+00 0. -1.
     999901    1    3    3    0    0  0.28788390882E-01  0.90229672802E-01  0.94432778596E-01  0.89010545160E+00  0.88000000000E+00 0.  1.
        -11    1    4    4    0    0 -0.27579657002E-01 -0.52291807102E-01 -0.60905282938E-01  0.84881006009E-01  0.51100000000E-03 0.  1.
         11    1    4    4    0    0 -0.20279535571E-01 -0.23707331071E-01 -0.32607104644E-01  0.45130715746E-01  0.51100000000E-03 0. -1.
</event>
<event>
 8    1  0.1030163E+005  0.1043930E+01  0.7957747E-01            NaN
         13   -1    0    0    0    0  0.00000000000E+00  0.00000000000E+00  0.74505805969E-08  0.10566000000E+00  0.10566000000E+00 0. -1.
     999900   -1    0    0    0    0 -0.00000000000E+00 -0.00000000000E+00 -0.74505805969E-08  0.93827000000E+00  0.93827000000E+00 0.  1.
     999902    2    1    2    0    0  0.16507414185E-01  0.10131205544E-01 -0.13861710971E-01  0.10201122948E+01  0.10198342076E+01 0.  0.
     999903    2    3    3    0    0  0.44674206926E-01 -0.51271236427E-02  0.11948624308E+00  0.12949011810E+00  0.21648469637E-01 0.  0.
         14    1    1    2    0    0 -0.16507414185E-01 -0.10131205544E-01  0.13861710971E-01  0.23817705177E-01  0.00000000000E+00 0. -1.
     999901    1    3    3    0    0 -0.28166792741E-01  0.15258329187E-01 -0.13334795405E+00  0.89062217672E+00  0.88000000000E+00 0.  1.
        -11    1    4    4    0    0  0.81538864569E-02  0.56745909045E-02  0.12811846335E-01  0.16220091670E-01  0.51100000000E-03 0. -1.
         11    1    4    4    0    0  0.36520320469E-01 -0.10801714547E-01  0.10667439675E+00  0.11327002643E+00  0.51100000000E-03 0.  1.
</event>
<event>
 8    1  0.1030163E+005  0.1043930E+01  0.7957747E-01            NaN
         13   -1    0    0    0    0  0.00000000000E+00  0.00000000000E+00  0.74505805969E-08  0.10566000000E+00  0.10566000000E+00 0.  1.
     999900   -1    0    0    0    0 -0.00000000000E+00 -0.00000000000E+00 -0.74505805969E-08  0.93827000000E+00  0.93827000000E+00 0.  1.
     999902    2    1    2    0    0  0.14826675342E-01 -0.12271750720E-01  0.14061018499E-01  0.10200943459E+01  0.10198158344E+01 0.  0.
     999903    2    3    3    0    0 -0.25295839275E-01 -0.38387344430E-01  0.12228315692E+00  0.13217325045E+00  0.20078096792E-01 0.  0.
         14    1    1    2    0    0 -0.14826675342E-01  0.12271750720E-01 -0.14061018499E-01  0.23835654148E-01  0.00000000000E+00 0. -1.
     999901    1    3    3    0    0  0.40122514617E-01  0.26115593710E-01 -0.10822213842E+00  0.88792109540E+00  0.88000000000E+00 0.  1.
        -11    1    4    4    0    0 -0.17148185449E-02  0.24162600689E-02  0.84601638906E-02  0.89785527463E-02  0.51100000000E-03 0. -1.
         11    1    4    4    0    0 -0.23581020731E-01 -0.40803604498E-01  0.11382299303E+00  0.12319469770E+00  0.51100000000E-03 0.  1.
</event>
<event>
 8    1  0.1030163E+005  0.1043930E+01  0.7957747E-01            NaN
         13   -1    0    0    0    0  0.00000000000E+00  0.00000000000E+00  0.74505805969E-08  0.10566000000E+00  0.10566000000E+00 0. -1.
     999900   -1    0    0    0    0 -0.00000000000E+00 -0.00000000000E+00 -0.74505805969E-08  0.93827000000E+00  0.93827000000E+00 0.  1.
     999902    2    1    2    0    0 -0.51974349831E-02  0.40214540709E-02  0.25672476230E-01  0.10174297838E+01  0.10170846098E+01 0.  0.
     999903    2    3    3    0    0  0.35064464789E-01  0.10893606827E+00  0.57826370408E-01  0.12970123871E+00  0.19543248113E-01 0.  0.
         14    1    1    2    0    0  0.51974349831E-02 -0.40214540709E-02 -0.25672476230E-01  0.26500216207E-01  0.00000000000E+00 0.  1.
     999901    1    3    3    0    0 -0.40261899772E-01 -0.10491461420E+00 -0.32153894178E-01  0.88772854508E+00  0.88000000000E+00 0. -1.
        -11    1    4    4    0    0  0.98345103935E-02  0.52799130477E-01  0.34741180196E-01  0.63966213709E-01  0.51100000000E-03 0.  1.
         11    1    4    4    0    0  0.25229954396E-01  0.56136937794E-01  0.23085190212E-01  0.65735025000E-01  0.51100000000E-03 0. -1.
</event>
<event>
 8    1  0.1030163E+005  0.1043930E+01  0.7957747E-01            NaN
         13   -1    0    0    0    0  0.00000000000E+00  0.00000000000E+00  0.74505805969E-08  0.10566000000E+00  0.10566000000E+00 0. -1.
     999900   -1    0    0    0    0 -0.00000000000E+00 -0.00000000000E+00 -0.74505805969E-08  0.93827000000E+00  0.93827000000E+00 0.  1.
     999902    2    1    2    0    0 -0.30886439898E-01  0.22966440657E-02  0.10217432398E-01  0.10113164650E+01  0.10107904578E+01 0.  0.
     999903    2    3    3    0    0  0.81425101609E-02 -0.64375763316E-01  0.10302402437E+00  0.12307014080E+00  0.17937964924E-01 0.  0.
         14    1    1    2    0    0  0.30886439898E-01 -0.22966440657E-02 -0.10217432398E-01  0.32613535049E-01  0.00000000000E+00 0.  1.
     999901    1    3    3    0    0 -0.39028950059E-01  0.66672407382E-01 -0.92806591972E-01  0.88824632415E+00  0.88000000000E+00 0.  1.
        -11    1    4    4    0    0 -0.23492846805E-02 -0.28737967118E-01  0.57355191154E-01  0.64197110262E-01  0.51100000000E-03 0. -1.
         11    1    4    4    0    0  0.10491794841E-01 -0.35637796198E-01  0.45668833216E-01  0.58873030542E-01  0.51100000000E-03 0.  1.
</event>
<event>
 8    1  0.1030163E+005  0.1043930E+01  0.7957747E-01            NaN
         13   -1    0    0    0    0  0.00000000000E+00  0.00000000000E+00  0.74505805969E-08  0.10566000000E+00  0.10566000000E+00 0.  1.
     999900   -1    0    0    0    0 -0.00000000000E+00 -0.00000000000E+00 -0.74505805969E-08  0.93827000000E+00  0.93827000000E+00 0. -1.
     999902    2    1    2    0    0  0.40702819014E-02  0.21495292636E-01 -0.79398882733E-02  0.10206564823E+01  0.10203911006E+01 0.  0.
     999903    2    3    3    0    0 -0.15832051571E-01 -0.27452930192E-01  0.12415329653E+00  0.12923029867E+00  0.16796184696E-01 0.  0.
         14    1    1    2    0    0 -0.40702819014E-02 -0.21495292636E-01  0.79398882733E-02  0.23273517699E-01  0.00000000000E+00 0.  1.
     999901    1    3    3    0    0  0.19902333472E-01  0.48948222828E-01 -0.13209318481E+00  0.89142618363E+00  0.88000000000E+00 0. -1.
        -11    1    4    4    0    0 -0.15140504886E-01 -0.19984235911E-01  0.66185503596E-01  0.70777020144E-01  0.51100000000E-03 0. -1.
         11    1    4    4    0    0 -0.69154668534E-03 -0.74686942806E-02  0.57967792938E-01  0.58453278524E-01  0.51100000000E-03 0.  1.
</event>
<event>
 8    1  0.1030163E+005  0.1043930E+01  0.7957747E-01            NaN
         13   -1    0    0    0    0  0.00000000000E+00  0.00000000000E+00  0.74505805969E-08  0.10566000000E+00  0.10566000000E+00 0.  1.
     999900   -1    0    0    0    0 -0.00000000000E+00 -0.00000000000E+00 -0.74505805969E-08  0.93827000000E+00  0.93827000000E+00 0. -1.
     999902    2    1    2    0    0 -0.16652181842E-02 -0.17116518697E-01 -0.14499342342E-01  0.10214360210E+01  0.10211883107E+01 0.  0.
     999903    2    3    3    0    0 -0.10709106747E+00 -0.68492119895E-01  0.31809301521E-01  0.13244864616E+00  0.19265123586E-01 0.  0.
         14    1    1    2    0    0  0.16652181842E-02  0.17116518697E-01  0.14499342342E-01  0.22493979022E-01  0.00000000000E+00 0. -1.
     999901    1    3    3    0    0  0.10542584928E+00  0.51375601198E-01 -0.46308643862E-01  0.88898737482E+00  0.88000000000E+00 0. -1.
        -11    1    4    4    0    0 -0.67310771818E-01 -0.53177045711E-01  0.24339126301E-01  0.89169458804E-01  0.51100000000E-03 0. -1.
         11    1    4    4    0    0 -0.39780295649E-01 -0.15315074184E-01  0.74701752203E-02  0.43279187353E-01  0.51100000000E-03 0.  1.
</event>
<event>
 8    1  0.1030163E+005  0.1043930E+01  0.7957747E-01            NaN
         13   -1    0    0    0    0  0.00000000000E+00  0.00000000000E+00  0.74505805969E-08  0.10566000000E+00  0.10566000000E+00 0. -1.
     999900   -1    0    0    0    0 -0.00000000000E+00 -0.00000000000E+00 -0.74505805969E-08  0.93827000000E+00  0.93827000000E+00 0. -1.
     999902    2    1    2    0    0  0.20483156266E-01 -0.23328940865E-02 -0.12386528740E-01  0.10198794661E+01  0.10195958500E+01 0.  0.
     999903    2    3    3    0    0 -0.11593558365E+00 -0.43405416855E-01  0.23759095302E-01  0.12768916643E+00  0.20370047791E-01 0.  0.
         14    1    1    2    0    0 -0.20483156266E-01  0.23328940865E-02  0.12386528740E-01  0.24050533875E-01  0.00000000000E+00 0. -1.
     999901    1    3    3    0    0  0.13641873991E+00  0.41072522769E-01 -0.36145624042E-01  0.89219029969E+00  0.88000000000E+00 0. -1.
        -11    1    4    4    0    0 -0.48648210609E-01 -0.80876068212E-02  0.12365272889E-01  0.50845047686E-01  0.51100000000E-03 0. -1.
         11    1    4    4    0    0 -0.67287373038E-01 -0.35317810034E-01  0.11393822413E-01  0.76844118748E-01  0.51100000000E-03 0.  1.
</event>
<event>
 8    1  0.1030163E+005  0.1043930E+01  0.7957747E-01            NaN
         13   -1    0    0    0    0  0.00000000000E+00  0.00000000000E+00  0.74505805969E-08  0.10566000000E+00  0.10566000000E+00 0.  1.
     999900   -1    0    0    0    0 -0.00000000000E+00 -0.00000000000E+00 -0.74505805969E-08  0.93827000000E+00  0.93827000000E+00 0. -1.
     999902    2    1    2    0    0  0.58077256483E-02  0.14428898353E-01 -0.17969854309E-01  0.10201636699E+01  0.10198867951E+01 0.  0.
     999903    2    3    3    0    0  0.52958290959E-01  0.44248919699E-01 -0.11258628471E+00  0.13333523189E+00  0.18440853613E-01 0.  0.
         14    1    1    2    0    0 -0.58077256483E-02 -0.14428898353E-01  0.17969854309E-01  0.23766330149E-01  0.00000000000E+00 0.  1.
     999901    1    3    3    0    0 -0.47150565311E-01 -0.29820021346E-01  0.94616430399E-01  0.88682843797E+00  0.88000000000E+00 0. -1.
        -11    1    4    4    0    0  0.28954308251E-01  0.27678661236E-01 -0.48377207284E-01  0.62809836488E-01  0.51100000000E-03 0. -1.
         11    1    4    4    0    0  0.24003982708E-01  0.16570258463E-01 -0.64209077423E-01  0.70525395397E-01  0.51100000000E-03 0.  1.
</event>
<event>
 8    1  0.1030163E+005  0.1043930E+01  0.7957747E-01            NaN
         13   -1    0    0    0    0  0.00000000000E+00  0.00000000000E+00  0.74505805969E-08  0.10566000000E+00  0.10566000000E+00 0. -1.
     999900   -1    0    0    0    0 -0.00000000000E+00 -0.00000000000E+00 -0.74505805969E-08  0.93827000000E+00  0.93827000000E+00 0. -1.
     999902    2    1    2    0    0  0.33804515555E-02 -0.21727397292E-02  0.25755268258E-01  0.10178631227E+01  0.10175292892E+01 0.  0.
     999903    2    3    3    0    0 -0.70117334443E-01  0.82460729682E-01 -0.62045335039E-01  0.12641839941E+00  0.20390575766E-01 0.  0.
         14    1    1    2    0    0 -0.33804515555E-02  0.21727397292E-02 -0.25755268258E-01  0.26066877329E-01  0.00000000000E+00 0.  1.
     999901    1    3    3    0    0  0.73497785999E-01 -0.84633469411E-01  0.87800603297E-01  0.89144472326E+00  0.88000000000E+00 0.  1.
        -11    1    4    4    0    0 -0.63067117536E-02  0.22398936176E-02 -0.83092720420E-02  0.10681613147E-01  0.51100000000E-03 0. -1.
         11    1    4    4    0    0 -0.63810622689E-01  0.80220836065E-01 -0.53736062997E-01  0.11573678626E+00  0.51100000000E-03 0.  1.
</event>
<event>
 8    1  0.1030163E+005  0.1043930E+01  0.7957747E-01            NaN
         13   -1    0    0    0    0  0.00000000000E+00  0.00000000000E+00  0.74505805969E-08  0.10566000000E+00  0.10566000000E+00 0. -1.
     999900   -1    0    0    0    0 -0.00000000000E+00 -0.00000000000E+00 -0.74505805969E-08  0.93827000000E+00  0.93827000000E+00 0.  1.
     999902    2    1    2    0    0 -0.19586633288E-01  0.17327469617E-03  0.13105846016E-02  0.10242988039E+01  0.10241106658E+01 0.  0.
     999903    2    3    3    0    0 -0.76687107120E-01  0.24185556632E-01  0.10752418282E+00  0.13575033465E+00  0.20021236648E-01 0.  0.
         14    1    1    2    0    0  0.19586633288E-01 -0.17327469617E-03 -0.13105846016E-02  0.19631196083E-01  0.00000000000E+00 0.  1.
     999901    1    3    3    0    0  0.57100473833E-01 -0.24012281936E-01 -0.10621359822E+00  0.88854846927E+00  0.88000000000E+00 0.  1.
        -11    1    4    4    0    0 -0.32283477068E-01  0.19124987281E-01  0.57568364931E-01  0.68719471709E-01  0.51100000000E-03 0.  1.
         11    1    4    4    0    0 -0.44403630052E-01  0.50605693509E-02  0.49955817891E-01  0.67030862938E-01  0.51100000000E-03 0. -1.
</event>
<event>
 8    1  0.1030163E+005  0.1043930E+01  0.7957747E-01            NaN
         13   -1    0    0    0    0  0.00000000000E+00  0.00000000000E+00  0.74505805969E-08  0.10566000000E+00  0.10566000000E+00 0.  1.
     999900   -1    0    0    0    0 -0.00000000000E+00 -0.00000000000E+00 -0.74505805969E-08  0.93827000000E+00  0.93827000000E+00 0. -1.
     999902    2    1    2    0    0  0.10434922814E-01  0.19038748950E-01  0.45827008865E-02  0.10217407521E+01  0.10214997806E+01 0.  0.
     999903    2    3    3    0    0 -0.17566655302E-01 -0.80384648221E-01  0.99460905506E-01  0.13063415128E+00  0.20063167961E-01 0.  0.
         14    1    1    2    0    0 -0.10434922814E-01 -0.19038748950E-01 -0.45827008865E-02  0.22189247917E-01  0.00000000000E+00 0. -1.
     999901    1    3    3    0    0  0.28001578116E-01  0.99423397171E-01 -0.94878204619E-01  0.89110660080E+00  0.88000000000E+00 0.  1.
        -11    1    4    4    0    0 -0.19037508326E-01 -0.71601822723E-01  0.95509455416E-01  0.12087830631E+00  0.51100000000E-03 0.  1.
         11    1    4    4    0    0  0.14708530246E-02 -0.87828254986E-02  0.39514500894E-02  0.97558449746E-02  0.51100000000E-03 0. -1.
</event>
<event>
 8    1  0.1030163E+005  0.1043930E+01  0.7957747E-01            NaN
         13   -1    0    0    0    0  0.00000000000E+00  0.00000000000E+00  0.74505805969E-08  0.10566000000E+00  0.10566000000E+00 0. -1.
     999900   -1    0    0    0    0 -0.00000000000E+00 -0.00000000000E+00 -0.74505805969E-08  0.93827000000E+00  0.93827000000E+00 0.  1.
     999902    2    1    2    0    0 -0.51682357592E-02  0.21162855281E-01  0.18296483717E-01  0.10154811262E+01  0.10150825480E+01 0.  0.
     999903    2    3    3    0    0 -0.37362373147E-01  0.12135126098E+00  0.13366890764E-01  0.12919760496E+00  0.19780593800E-01 0.  0.
         14    1    1    2    0    0  0.51682357592E-02 -0.21162855281E-01 -0.18296483717E-01  0.28448873808E-01  0.00000000000E+00 0.  1.
     999901    1    3    3    0    0  0.32194137388E-01 -0.10018840570E+00  0.49295929529E-02  0.88628352123E+00  0.88000000000E+00 0. -1.
        -11    1    4    4    0    0 -0.44552275208E-02  0.13195311020E-01  0.78846985718E-02  0.16012335174E-01  0.51100000000E-03 0.  1.
         11    1    4    4    0    0 -0.32907145627E-01  0.10815594996E+00  0.54821921926E-02  0.11318526979E+00  0.51100000000E-03 0. -1.
</event>
<event>
 8    1  0.1030163E+005  0.1043930E+01  0.7957747E-01            NaN
         13   -1    0    0    0    0  0.00000000000E+00  0.00000000000E+00  0.74505805969E-08  0.10566000000E+00  0.10566000000E+00 0.  1.
     999900   -1    0    0    0    0 -0.00000000000E+00 -0.00000000000E+00 -0.74505805969E-08  0.93827000000E+00  0.93827000000E+00 0.  1.
     999902    2    1    2    0    0  0.20167842095E-01  0.18945179382E-02 -0.10241688704E-01  0.10212314705E+01  0.10209791835E+01 0.  0.
     999903    2    3    3    0    0 -0.54869870661E-01  0.98096014896E-01 -0.64019620444E-01  0.13118795906E+00  0.21868652352E-01 0.  0.
         14    1    1    2    0    0 -0.20167842095E-01 -0.18945179382E-02  0.10241688704E-01  0.22698529479E-01  0.00000000000E+00 0.  1.
     999901    1    3    3    0    0  0.75037712756E-01 -0.96201496958E-01  0.53777931740E-01  0.89004351146E+00  0.88000000000E+00 0.  1.
        -11    1    4    4    0    0 -0.37157023391E-01  0.84021441702E-01 -0.51842510897E-01  0.10549006641E+00  0.51100000000E-03 0.  1.
         11    1    4    4    0    0 -0.17712847269E-01  0.14074573193E-01 -0.12177109547E-01  0.25697892655E-01  0.51100000000E-03 0. -1.
</event>
<event>
 8    1  0.1030163E+005  0.1043930E+01  0.7957747E-01            NaN
         13   -1    0    0    0    0  0.00000000000E+00  0.00000000000E+00  0.74505805969E-08  0.10566000000E+00  0.10566000000E+00 0. -1.
     999900   -1    0    0    0    0 -0.00000000000E+00 -0.00000000000E+00 -0.74505805969E-08  0.93827000000E+00  0.93827000000E+00 0. -1.
     999902    2    1    2    0    0  0.11742403360E-01  0.17242163485E-01  0.10951698022E-01  0.10203691017E+01  0.10200970482E+01 0.  0.
     999903    2    3    3    0    0 -0.71440698141E-01 -0.88070403248E-01  0.57826082725E-01  0.12896157817E+00  0.20665515303E-01 0.  0.
         14    1    1    2    0    0 -0.11742403360E-01 -0.17242163485E-01 -0.10951698022E-01  0.23560898283E-01  0.00000000000E+00 0.  1.
     999901    1    3    3    0    0  0.83183101502E-01  0.10531256673E+00 -0.46874384703E-01  0.89140752354E+00  0.88000000000E+00 0.  1.
        -11    1    4    4    0    0 -0.45584111142E-01 -0.54100153003E-01  0.46937433310E-01  0.84900656712E-01  0.51100000000E-03 0. -1.
         11    1    4    4    0    0 -0.25856587000E-01 -0.33970250246E-01  0.10888649416E-01  0.44060921462E-01  0.51100000000E-03 0.  1.
</event>
<event>
 8    1  0.1030163E+005  0.1043930E+01  0.7957747E-01            NaN
         13   -1    0    0    0    0  0.00000000000E+00  0.00000000000E+00  0.74505805969E-08  0.10566000000E+00  0.10566000000E+00 0.  1.
     999900   -1    0    0    0    0 -0.00000000000E+00 -0.00000000000E+00 -0.74505805969E-08  0.93827000000E+00  0.93827000000E+00 0. -1.
     999902    2    1    2    0    0  0.14367497714E-01  0.25420547582E-02 -0.18626448644E-01  0.10202692388E+01  0.10199948470E+01 0.  0.
     999903    2    3    3    0    0 -0.45751389968E-01  0.92259425595E-01  0.74653576487E-01  0.12877350105E+00  0.20111359843E-01 0.  0.
         14    1    1    2    0    0 -0.14367497714E-01 -0.25420547582E-02  0.18626448644E-01  0.23660761231E-01  0.00000000000E+00 0.  1.
     999901    1    3    3    0    0  0.60118887682E-01 -0.89717370837E-01 -0.93280025131E-01  0.89149573772E+00  0.88000000000E+00 0. -1.
        -11    1    4    4    0    0 -0.14257199780E-01  0.32999831214E-01  0.37975421991E-01  0.52293884940E-01  0.51100000000E-03 0.  1.
         11    1    4    4    0    0 -0.31494190187E-01  0.59259594381E-01  0.36678154496E-01  0.76479616108E-01  0.51100000000E-03 0. -1.
</event>
<event>
 8    1  0.1030163E+005  0.1043930E+01  0.7957747E-01            NaN
         13   -1    0    0    0    0  0.00000000000E+00  0.00000000000E+00  0.74505805969E-08  0.10566000000E+00  0.10566000000E+00 0.  1.
     999900   -1    0    0    0    0 -0.00000000000E+00 -0.00000000000E+00 -0.74505805969E-08  0.93827000000E+00  0.93827000000E+00 0.  1.
     999902    2    1    2    0    0 -0.10959234918E-01 -0.16977373454E-01  0.12770406018E-01  0.10200256215E+01  0.10197454826E+01 0.  0.
     999903    2    3    3    0    0 -0.48047137254E-01  0.78913985224E-01 -0.86925552917E-01  0.12844839584E+00  0.20174096804E-01 0.  0.
         14    1    1    2    0    0  0.10959234918E-01  0.16977373454E-01 -0.12770406018E-01  0.23904378454E-01  0.00000000000E+00 0. -1.
     999901    1    3    3    0    0  0.37087902336E-01 -0.95891358678E-01  0.99695958935E-01  0.89157722571E+00  0.88000000000E+00 0. -1.
        -11    1    4    4    0    0 -0.30603633541E-01  0.66295648962E-01 -0.67972966319E-01  0.99761118320E-01  0.51100000000E-03 0.  1.
         11    1    4    4    0    0 -0.17443503713E-01  0.12618336262E-01 -0.18952586598E-01  0.28687277521E-01  0.51100000000E-03 0. -1.
</event>
<event>
 8    1  0.1030163E+005  0.1043930E+01  0.7957747E-01            NaN
         13   -1    0    0    0    0  0.00000000000E+00  0.00000000000E+00  0.74505805969E-08  0.10566000000E+00  0.10566000000E+00 0. -1.
     999900   -1    0    0    0    0 -0.00000000000E+00 -0.00000000000E+00 -0.74505805969E-08  0.93827000000E+00  0.93827000000E+00 0.  1.
     999902    2    1    2    0    0 -0.37918897282E-02  0.23607263842E-01  0.15640961470E-02  0.10199690374E+01  0.10196875548E+01 0.  0.
     999903    2    3    3    0    0  0.11699955980E+00  0.35673663955E-01  0.41525362368E-01  0.13073730430E+00  0.20158862115E-01 0.  0.
         14    1    1    2    0    0  0.37918897282E-02 -0.23607263842E-01 -0.15640961470E-02  0.23960962639E-01  0.00000000000E+00 0. -1.
     999901    1    3    3    0    0 -0.12079144953E+00 -0.12066400113E-01 -0.39961266221E-01  0.88923173306E+00  0.88000000000E+00 0.  1.
        -11    1    4    4    0    0  0.69796817919E-01  0.14044588055E-01  0.31494853034E-01  0.77852637296E-01  0.51100000000E-03 0. -1.
         11    1    4    4    0    0  0.47202741880E-01  0.21629075901E-01  0.10030509334E-01  0.52884667001E-01  0.51100000000E-03 0.  1.
</event>
<event>
 8    1  0.1030163E+005  0.1043930E+01  0.7957747E-01            NaN
         13   -1    0    0    0    0  0.00000000000E+00  0.00000000000E+00  0.74505805969E-08  0.10566000000E+00  0.10566000000E+00 0. -1.
     999900   -1    0    0    0    0 -0.00000000000E+00 -0.00000000000E+00 -0.74505805969E-08  0.93827000000E+00  0.93827000000E+00 0. -1.
     999902    2    1    2    0    0 -0.60391465761E-02  0.21020713462E-01 -0.10596949513E-01  0.10196269750E+01  0.10193373000E+01 0.  0.
     999903    2    3    3    0    0 -0.91052423493E-03  0.11716869113E+00 -0.59513436972E-01  0.13302471968E+00  0.20600864785E-01 0.  0.
         14    1    1    2    0    0  0.60391465761E-02 -0.21020713462E-01  0.10596949513E-01  0.24303025014E-01  0.00000000000E+00 0. -1.
     999901    1    3    3    0    0 -0.51286223412E-02 -0.96147977664E-01  0.48916487459E-01  0.88660225531E+00  0.88000000000E+00 0.  1.
        -11    1    4    4    0    0 -0.50922950945E-02  0.39559072216E-01 -0.10904820366E-01  0.41352483506E-01  0.51100000000E-03 0. -1.
         11    1    4    4    0    0  0.41817708596E-02  0.77609618911E-01 -0.48608616606E-01  0.91672236170E-01  0.51100000000E-03 0.  1.
</event>
<event>
 8    1  0.1030163E+005  0.1043930E+01  0.7957747E-01            NaN
         13   -1    0    0    0    0  0.00000000000E+00  0.00000000000E+00  0.74505805969E-08  0.10566000000E+00  0.10566000000E+00 0.  1.
     999900   -1    0    0    0    0 -0.00000000000E+00 -0.00000000000E+00 -0.74505805969E-08  0.93827000000E+00  0.93827000000E+00 0.  1.
     999902    2    1    2    0    0 -0.98106951095E-02 -0.10449671943E-01  0.21455441055E-01  0.10181272611E+01  0.10178002449E+01 0.  0.
     999903    2    3    3    0    0  0.62583364313E-01  0.66906409957E-01  0.88868662708E-01  0.12921252636E+00  0.20126911687E-01 0.  0.
         14    1    1    2    0    0  0.98106951095E-02  0.10449671943E-01 -0.21455441055E-01  0.25802738868E-01  0.00000000000E+00 0. -1.
     999901    1    3    3    0    0 -0.72394059422E-01 -0.77356081899E-01 -0.67413221653E-01  0.88891473478E+00  0.88000000000E+00 0.  1.
        -11    1    4    4    0    0  0.46292389322E-01  0.41925158746E-01  0.48806722439E-01  0.79265765128E-01  0.51100000000E-03 0.  1.
         11    1    4    4    0    0  0.16290974991E-01  0.24981251210E-01  0.40061940269E-01  0.49946761229E-01  0.51100000000E-03 0. -1.
</event>
<event>
 8    1  0.1030163E+005  0.1043930E+01  0.7957747E-01            NaN
         13   -1    0    0    0    0  0.00000000000E+00  0.00000000000E+00  0.74505805969E-08  0.10566000000E+00  0.10566000000E+00 0. -1.
     999900   -1    0    0    0    0 -0.00000000000E+00 -0.00000000000E+00 -0.74505805969E-08  0.93827000000E+00  0.93827000000E+00 0. -1.
     999902    2    1    2    0    0 -0.98514352753E-02  0.21514263248E-01  0.32707208600E-02  0.10200425155E+01  0.10197627771E+01 0.  0.
     999903    2    3    3    0    0  0.12536611814E-01  0.92348006599E-01 -0.90840047402E-01  0.13191218693E+00  0.21531137686E-01 0.  0.
         14    1    1    2    0    0  0.98514352753E-02 -0.21514263248E-01 -0.32707208600E-02  0.23887484486E-01  0.00000000000E+00 0.  1.
     999901    1    3    3    0    0 -0.22388047089E-01 -0.70833743350E-01  0.94110768262E-01  0.88813032858E+00  0.88000000000E+00 0.  1.
        -11    1    4    4    0    0  0.15627942102E-01  0.56427659019E-01 -0.65410816903E-01  0.87790371714E-01  0.51100000000E-03 0.  1.
         11    1    4    4    0    0 -0.30913302879E-02  0.35920347579E-01 -0.25429230499E-01  0.44121815216E-01  0.51100000000E-03 0. -1.
</event>
<event>
 8    1  0.1030163E+005  0.1043930E+01  0.7957747E-01            NaN
         13   -1    0    0    0    0  0.00000000000E+00  0.00000000000E+00  0.74505805969E-08  0.10566000000E+00  0.10566000000E+00 0. -1.
     999900   -1    0    0    0    0 -0.00000000000E+00 -0.00000000000E+00 -0.74505805969E-08  0.93827000000E+00  0.93827000000E+00 0. -1.
     999902    2    1    2    0    0 -0.19952354533E-01 -0.93715609182E-02 -0.22136850297E-02  0.10217754743E+01  0.10215352647E+01 0.  0.
     999903    2    3    3    0    0 -0.94440458462E-01  0.70861039390E-01 -0.58672687315E-01  0.13319606500E+00  0.18931993993E-01 0.  0.
         14    1    1    2    0    0  0.19952354533E-01  0.93715609182E-02  0.22136850297E-02  0.22154525652E-01  0.00000000000E+00 0. -1.
     999901    1    3    3    0    0  0.74488103928E-01 -0.80232600309E-01  0.56459002285E-01  0.88857940935E+00  0.88000000000E+00 0. -1.
        -11    1    4    4    0    0 -0.21740930698E-01  0.20077534986E-01 -0.23504994961E-01  0.37795785318E-01  0.51100000000E-03 0.  1.
         11    1    4    4    0    0 -0.72699527763E-01  0.50783504405E-01 -0.35167692354E-01  0.95400279681E-01  0.51100000000E-03 0. -1.
</event>
<event>
 8    1  0.1030163E+005  0.1043930E+01  0.7957747E-01            NaN
         13   -1    0    0    0    0  0.00000000000E+00  0.00000000000E+00  0.74505805969E-08  0.10566000000E+00  0.10566000000E+00 0. -1.
     999900   -1    0    0    0    0 -0.00000000000E+00 -0.00000000000E+00 -0.74505805969E-08  0.93827000000E+00  0.93827000000E+00 0.  1.
     999902    2    1    2    0    0  0.32719913569E-02 -0.21017777785E-01  0.10080442386E-01  0.10203913461E+01  0.10201198120E+01 0.  0.
     999903    2    3    3    0    0  0.23434887467E-01  0.48953607222E-01  0.11687696434E+00  0.13094880480E+00  0.23274773395E-01 0.  0.
         14    1    1    2    0    0 -0.32719913569E-02  0.21017777785E-01 -0.10080442386E-01  0.23538653937E-01  0.00000000000E+00 0.  1.
     999901    1    3    3    0    0 -0.20162896110E-01 -0.69971385008E-01 -0.10679652195E+00  0.88944254126E+00  0.88000000000E+00 0.  1.
        -11    1    4    4    0    0  0.16094978525E-02  0.23479085034E-01  0.65369037522E-01  0.69478270739E-01  0.51100000000E-03 0. -1.
         11    1    4    4    0    0  0.21825389614E-01  0.25474522188E-01  0.51507926814E-01  0.61470534065E-01  0.51100000000E-03 0.  1.
</event>
<event>
 8    1  0.1030163E+005  0.1043930E+01  0.7957747E-01            NaN
         13   -1    0    0    0    0  0.00000000000E+00  0.00000000000E+00  0.74505805969E-08  0.10566000000E+00  0.10566000000E+00 0. -1.
     999900   -1    0    0    0    0 -0.00000000000E+00 -0.00000000000E+00 -0.74505805969E-08  0.93827000000E+00  0.93827000000E+00 0. -1.
     999902    2    1    2    0    0 -0.13444618472E-01 -0.51309559517E-02 -0.15451766202E-01  0.10228150396E+01  0.10225970681E+01 0.  0.
     999903    2    3    3    0    0  0.10305600462E+00 -0.73717571751E-01 -0.32073349015E-01  0.13233606955E+00  0.20719920688E-01 0.  0.
         14    1    1    2    0    0  0.13444618472E-01  0.51309559517E-02  0.15451766202E-01  0.21114960421E-01  0.00000000000E+00 0. -1.
     999901    1    3    3    0    0 -0.11650062309E+00  0.68586615799E-01  0.16621582813E-01  0.89047897003E+00  0.88000000000E+00 0. -1.
        -11    1    4    4    0    0  0.26876575964E-01 -0.26367471775E-01 -0.19095145616E-02  0.37702801888E-01  0.51100000000E-03 0.  1.
         11    1    4    4    0    0  0.76179428658E-01 -0.47350099976E-01 -0.30163834453E-01  0.94633267662E-01  0.51100000000E-03 0. -1.
</event>
<event>
 8    1  0.1434717E+005  0.1043930E+01  0.7957747E-01            NaN
         13   -1    0    0    0    0  0.00000000000E+00  0.00000000000E+00  0.74505805969E-08  0.10566000000E+00  0.10566000000E+00 0. -1.
     999900   -1    0    0    0    0 -0.00000000000E+00 -0.00000000000E+00 -0.74505805969E-08  0.93827000000E+00  0.93827000000E+00 0.  1.
     999902    2    1    2    0    0  0.16508709506E-01  0.15845328893E-01 -0.65336307385E-02  0.10201329357E+01  0.10198553360E+01 0.  0.
     999903    2    3    3    0    0  0.70404266267E-01  0.11003527927E+00 -0.18138882490E-01  0.13339105691E+00  0.19990788173E-01 0.  0.
         14    1    1    2    0    0 -0.16508709506E-01 -0.15845328893E-01  0.65336307385E-02  0.23797064271E-01  0.00000000000E+00 0. -1.
     999901    1    3    3    0    0 -0.53895556761E-01 -0.94189950377E-01  0.11605251752E-01  0.88674187882E+00  0.88000000000E+00 0. -1.
        -11    1    4    4    0    0  0.43387368589E-01  0.56189941402E-01 -0.19992853039E-02  0.71021345598E-01  0.51100000000E-03 0.  1.
         11    1    4    4    0    0  0.27016897679E-01  0.53845337868E-01 -0.16139597187E-01  0.62369711308E-01  0.51100000000E-03 0. -1.
</event>
<event>
 8    1  0.1030163E+005  0.1043930E+01  0.7957747E-01            NaN
         13   -1    0    0    0    0  0.00000000000E+00  0.00000000000E+00  0.74505805969E-08  0.10566000000E+00  0.10566000000E+00 0. -1.
     999900   -1    0    0    0    0 -0.00000000000E+00 -0.00000000000E+00 -0.74505805969E-08  0.93827000000E+00  0.93827000000E+00 0. -1.
     999902    2    1    2    0    0  0.25329490373E-01 -0.27969357649E-01  0.29619369894E-04  0.10061958122E+01  0.10054880127E+01 0.  0.
     999903    2    3    3    0    0 -0.11326342783E-01 -0.67383125109E-01  0.95911974745E-01  0.11935280400E+00  0.19421980641E-01 0.  0.
         14    1    1    2    0    0 -0.25329490373E-01  0.27969357649E-01 -0.29619369894E-04  0.37734187776E-01  0.00000000000E+00 0. -1.
     999901    1    3    3    0    0  0.36655833156E-01  0.39413767460E-01 -0.95882355375E-01  0.88684300823E+00  0.88000000000E+00 0. -1.
        -11    1    4    4    0    0 -0.47903387259E-02 -0.46913255765E-01  0.78988523778E-01  0.91995917960E-01  0.51100000000E-03 0.  1.
         11    1    4    4    0    0 -0.65360040573E-02 -0.20469869344E-01  0.16923450967E-01  0.27356886037E-01  0.51100000000E-03 0. -1.
</event>
<event>
 8    1  0.1030163E+005  0.1043930E+01  0.7957747E-01            NaN
         13   -1    0    0    0    0  0.00000000000E+00  0.00000000000E+00  0.74505805969E-08  0.10566000000E+00  0.10566000000E+00 0. -1.
     999900   -1    0    0    0    0 -0.00000000000E+00 -0.00000000000E+00 -0.74505805969E-08  0.93827000000E+00  0.93827000000E+00 0. -1.
     999902    2    1    2    0    0 -0.10373480659E-02  0.23925853174E-01 -0.30306330716E-02  0.10197906695E+01  0.10195049300E+01 0.  0.
     999903    2    3    3    0    0  0.68637673067E-01 -0.96525777563E-01  0.43712619195E-01  0.12763141489E+00  0.18725092578E-01 0.  0.
         14    1    1    2    0    0  0.10373480659E-02 -0.23925853174E-01  0.30306330716E-02  0.24139330519E-01  0.00000000000E+00 0. -1.
     999901    1    3    3    0    0 -0.69675021133E-01  0.12045163074E+00 -0.46743252266E-01  0.89215925459E+00  0.88000000000E+00 0. -1.
        -11    1    4    4    0    0  0.33731304062E-01 -0.36552248091E-01  0.25455424971E-01  0.55875822103E-01  0.51100000000E-03 0.  1.
         11    1    4    4    0    0  0.34906369005E-01 -0.59973529472E-01  0.18257194223E-01  0.71755592788E-01  0.51100000000E-03 0. -1.
</event>
<event>
 8    1  0.1030163E+005  0.1043930E+01  0.7957747E-01            NaN
         13   -1    0    0    0    0  0.00000000000E+00  0.00000000000E+00  0.74505805969E-08  0.10566000000E+00  0.10566000000E+00 0.  1.
     999900   -1    0    0    0    0 -0.00000000000E+00 -0.00000000000E+00 -0.74505805969E-08  0.93827000000E+00  0.93827000000E+00 0.  1.
     999902    2    1    2    0    0 -0.11312195934E-01  0.65443295421E-02  0.18847375249E-01  0.10209949269E+01  0.10207372939E+01 0.  0.
     999903    2    3    3    0    0 -0.99463790436E-01  0.61027666701E-01  0.62518416375E-01  0.13383862864E+00  0.19667344000E-01 0.  0.
         14    1    1    2    0    0  0.11312195934E-01 -0.65443295421E-02 -0.18847375249E-01  0.22935073136E-01  0.00000000000E+00 0.  1.
     999901    1    3    3    0    0  0.88151594502E-01 -0.54483337159E-01 -0.43671041126E-01  0.88715629822E+00  0.88000000000E+00 0.  1.
        -11    1    4    4    0    0 -0.46260500353E-01  0.30305328030E-01  0.18725137329E-01  0.58389542633E-01  0.51100000000E-03 0.  1.
         11    1    4    4    0    0 -0.53203290082E-01  0.30722338671E-01  0.43793279045E-01  0.75449086009E-01  0.51100000000E-03 0. -1.
</event>
<event>
 8    1  0.1030163E+005  0.1043930E+01  0.7957747E-01            NaN
         13   -1    0    0    0    0  0.00000000000E+00  0.00000000000E+00  0.74505805969E-08  0.10566000000E+00  0.10566000000E+00 0. -1.
     999900   -1    0    0    0    0 -0.00000000000E+00 -0.00000000000E+00 -0.74505805969E-08  0.93827000000E+00  0.93827000000E+00 0. -1.
     999902    2    1    2    0    0  0.57527160593E-02  0.19578219231E-01  0.10952461632E-01  0.10207706212E+01  0.10205078659E+01 0.  0.
     999903    2    3    3    0    0  0.76816459447E-01 -0.44875038510E-01  0.95005252463E-01  0.13157483303E+00  0.19271771294E-01 0.  0.
         14    1    1    2    0    0 -0.57527160593E-02 -0.19578219231E-01 -0.10952461632E-01  0.23159378794E-01  0.00000000000E+00 0.  1.
     999901    1    3    3    0    0 -0.71063743388E-01  0.64453257741E-01 -0.84052790832E-01  0.88919578817E+00  0.88000000000E+00 0. -1.
        -11    1    4    4    0    0  0.22439160030E-01 -0.19612932587E-01  0.42273722023E-01  0.51725348932E-01  0.51100000000E-03 0.  1.
         11    1    4    4    0    0  0.54377299417E-01 -0.25262105923E-01  0.52731530441E-01  0.79849484101E-01  0.51100000000E-03 0. -1.
</event>
<event>
 8    1  0.1030163E+005  0.1043930E+01  0.7957747E-01            NaN
         13   -1    0    0    0    0  0.00000000000E+00  0.00000000000E+00  0.74505805969E-08  0.10566000000E+00  0.10566000000E+00 0.  1.
     999900   -1    0    0    0    0 -0.00000000000E+00 -0.00000000000E+00 -0.74505805969E-08  0.93827000000E+00  0.93827000000E+00 0.  1.
     999902    2    1    2    0    0 -0.12392508594E-01 -0.20858928426E-01 -0.13210841290E-02  0.10196315550E+01  0.10193419905E+01 0.  0.
     999903    2    3    3    0    0  0.43308189962E-01  0.64121485955E-01  0.10001173930E+00  0.12800799111E+00  0.19913149224E-01 0.  0.
         14    1    1    2    0    0  0.12392508594E-01  0.20858928426E-01  0.13210841290E-02  0.24298444962E-01  0.00000000000E+00 0.  1.
     999901    1    3    3    0    0 -0.55700698556E-01 -0.84980414380E-01 -0.10133282343E+00  0.89162356393E+00  0.88000000000E+00 0.  1.
        -11    1    4    4    0    0  0.12836947298E-01  0.96346134023E-02  0.31239964253E-01  0.35125624249E-01  0.51100000000E-03 0.  1.
         11    1    4    4    0    0  0.30471242664E-01  0.54486872552E-01  0.68771775043E-01  0.92882366861E-01  0.51100000000E-03 0. -1.
</event>
<event>
 8    1  0.1030163E+005  0.1043930E+01  0.7957747E-01            NaN
         13   -1    0    0    0    0  0.00000000000E+00  0.00000000000E+00  0.74505805969E-08  0.10566000000E+00  0.10566000000E+00 0.  1.
     999900   -1    0    0    0    0 -0.00000000000E+00 -0.00000000000E+00 -0.74505805969E-08  0.93827000000E+00  0.93827000000E+00 0. -1.
     999902    2    1    2    0    0 -0.22882001264E-01  0.32677866170E-02  0.93460335032E-02  0.10189978370E+01  0.10186927795E+01 0.  0.
     999903    2    3    3    0    0 -0.14108532324E-01 -0.24437084240E-01  0.12618216572E+00  0.13080010255E+00  0.19761227509E-01 0.  0.
         14    1    1    2    0    0  0.22882001264E-01 -0.32677866170E-02 -0.93460335032E-02  0.24932163033E-01  0.00000000000E+00 0. -1.
     999901    1    3    3    0    0 -0.87734689408E-02  0.27704870857E-01 -0.11683613221E+00  0.88819773441E+00  0.88000000000E+00 0. -1.
        -11    1    4    4    0    0 -0.15303224868E-01 -0.24563598328E-01  0.88866852744E-01  0.93461958528E-01  0.51100000000E-03 0. -1.
         11    1    4    4    0    0  0.11946925441E-02  0.12651408768E-03  0.37315312972E-01  0.37338144026E-01  0.51100000000E-03 0.  1.
</event>
<event>
 8    1  0.1030163E+005  0.1043930E+01  0.7957747E-01            NaN
         13   -1    0    0    0    0  0.00000000000E+00  0.00000000000E+00  0.74505805969E-08  0.10566000000E+00  0.10566000000E+00 0. -1.
     999900   -1    0    0    0    0 -0.00000000000E+00 -0.00000000000E+00 -0.74505805969E-08  0.93827000000E+00  0.93827000000E+00 0.  1.
     999902    2    1    2    0    0  0.10563864468E-01  0.51858632544E-02 -0.19556275642E-01  0.10211059704E+01  0.10208508542E+01 0.  0.
     999903    2    3    3    0    0  0.78300636579E-01  0.88703034223E-01 -0.59175663730E-01  0.13367536238E+00  0.19186593235E-01 0.  0.
         14    1    1    2    0    0 -0.10563864468E-01 -0.51858632544E-02  0.19556275642E-01  0.22824029600E-01  0.00000000000E+00 0. -1.
     999901    1    3    3    0    0 -0.67736772112E-01 -0.83517170968E-01  0.39619388088E-01  0.88743060802E+00  0.88000000000E+00 0. -1.
        -11    1    4    4    0    0  0.47790917290E-01  0.48600496491E-01 -0.43668266758E-01  0.80951582302E-01  0.51100000000E-03 0. -1.
         11    1    4    4    0    0  0.30509719289E-01  0.40102537732E-01 -0.15507396972E-01  0.52723780076E-01  0.51100000000E-03 0.  1.
</event>
<event>
 8    1  0.1030163E+005  0.1043930E+01  0.7957747E-01            NaN
         13   -1    0    0    0    0  0.00000000000E+00  0.00000000000E+00  0.74505805969E-08  0.10566000000E+00  0.10566000000E+00 0.  1.
     999900   -1    0    0    0    0 -0.00000000000E+00 -0.00000000000E+00 -0.74505805969E-08  0.93827000000E+00  0.93827000000E+00 0. -1.
     999902    2    1    2    0    0  0.20922729793E-01  0.50166922905E-02 -0.97217393951E-02  0.10203198318E+01  0.10200466260E+01 0.  0.
     999903    2    3    3    0    0 -0.11665788354E-01 -0.92158788947E-01 -0.89586874593E-01  0.13077864365E+00  0.21163944289E-01 0.  0.
         14    1    1    2    0    0 -0.20922729793E-01 -0.50166922905E-02  0.97217393951E-02  0.23610168157E-01  0.00000000000E+00 0. -1.
     999901    1    3    3    0    0  0.32588518147E-01  0.97175481238E-01  0.79865135198E-01  0.88954118819E+00  0.88000000000E+00 0.  1.
        -11    1    4    4    0    0 -0.12327054848E-02 -0.54758011217E-01 -0.64168701575E-01  0.84367308468E-01  0.51100000000E-03 0.  1.
         11    1    4    4    0    0 -0.10433082869E-01 -0.37400777730E-01 -0.25418173018E-01  0.46411335184E-01  0.51100000000E-03 0. -1.
</event>
<event>
 8    1  0.1290613E+005  0.1043930E+01  0.7957747E-01            NaN
         13   -1    0    0    0    0  0.00000000000E+00  0.00000000000E+00  0.74505805969E-08  0.10566000000E+00  0.10566000000E+00 0.  1.
     999900   -1    0    0    0    0 -0.00000000000E+00 -0.00000000000E+00 -0.74505805969E-08  0.93827000000E+00  0.93827000000E+00 0.  1.
     999902    2    1    2    0    0 -0.46753426176E-02 -0.22082222493E-01 -0.76219334772E-02  0.10201061202E+01  0.10198278871E+01 0.  0.
     999903    2    3    3    0    0 -0.12793528424E+00 -0.20700876003E-01  0.95750788413E-02  0.13134818996E+00  0.19097163403E-01 0.  0.
         14    1    1    2    0    0  0.46753426176E-02  0.22082222493E-01  0.76219334772E-02  0.23823879800E-01  0.00000000000E+00 0.  1.
     999901    1    3    3    0    0  0.12325994162E+00 -0.13813464896E-02 -0.17197012318E-01  0.88875793024E+00  0.88000000000E+00 0.  1.
        -11    1    4    4    0    0 -0.55353156942E-01  0.68101740197E-04  0.98622799868E-03  0.55364342207E-01  0.51100000000E-03 0. -1.
         11    1    4    4    0    0 -0.72582127300E-01 -0.20768977743E-01  0.85888508426E-02  0.75983847755E-01  0.51100000000E-03 0.  1.
</event>
<event>
 8    1  0.1030163E+005  0.1043930E+01  0.7957747E-01            NaN
         13   -1    0    0    0    0  0.00000000000E+00  0.00000000000E+00  0.74505805969E-08  0.10566000000E+00  0.10566000000E+00 0.  1.
     999900   -1    0    0    0    0 -0.00000000000E+00 -0.00000000000E+00 -0.74505805969E-08  0.93827000000E+00  0.93827000000E+00 0. -1.
     999902    2    1    2    0    0 -0.18993581176E-01 -0.11874218516E-01 -0.18349431782E-01  0.10149739154E+01  0.10145607887E+01 0.  0.
     999903    2    3    3    0    0 -0.96035467962E-01 -0.82140023442E-01  0.92956082137E-02  0.12838664729E+00  0.20662243637E-01 0.  0.
         14    1    1    2    0    0  0.18993581176E-01  0.11874218516E-01  0.18349431782E-01  0.28956084645E-01  0.00000000000E+00 0.  1.
     999901    1    3    3    0    0  0.77041886786E-01  0.70265804927E-01 -0.27645039996E-01  0.88658726807E+00  0.88000000000E+00 0. -1.
        -11    1    4    4    0    0 -0.52813255487E-01 -0.31633561960E-01  0.37877142894E-02  0.61680873031E-01  0.51100000000E-03 0. -1.
         11    1    4    4    0    0 -0.43222212475E-01 -0.50506461483E-01  0.55078939243E-02  0.66705774257E-01  0.51100000000E-03 0.  1.
</event>
<event>
 8    1  0.1030163E+005  0.1043930E+01  0.7957747E-01            NaN
         13   -1    0    0    0    0  0.00000000000E+00  0.00000000000E+00  0.74505805969E-08  0.10566000000E+00  0.10566000000E+00 0. -1.
     999900   -1    0    0    0    0 -0.00000000000E+00 -0.00000000000E+00 -0.74505805969E-08  0.93827000000E+00  0.93827000000E+00 0. -1.
     999902    2    1    2    0    0  0.59508117406E-02 -0.23582066887E-01  0.30985151656E-02  0.10194121119E+01  0.10191172293E+01 0.  0.
     999903    2    3    3    0    0  0.41411752402E-02 -0.12669355638E+00  0.34436596769E-01  0.13283592829E+00  0.19776200009E-01 0.  0.
         14    1    1    2    0    0 -0.59508117406E-02  0.23582066887E-01 -0.30985151656E-02  0.24517888067E-01  0.00000000000E+00 0. -1.
     999901    1    3    3    0    0  0.18096365003E-02  0.10311148949E+00 -0.31338081603E-01  0.88657618365E+00  0.88000000000E+00 0.  1.
        -11    1    4    4    0    0  0.72842248656E-02 -0.49959464711E-01  0.55974489298E-02  0.50799612219E-01  0.51100000000E-03 0.  1.
         11    1    4    4    0    0 -0.31430496254E-02 -0.76734091668E-01  0.28839147839E-01  0.82036316068E-01  0.51100000000E-03 0. -1.
</event>
<event>
 8    1  0.1030163E+005  0.1043930E+01  0.7957747E-01            NaN
         13   -1    0    0    0    0  0.00000000000E+00  0.00000000000E+00  0.74505805969E-08  0.10566000000E+00  0.10566000000E+00 0. -1.
     999900   -1    0    0    0    0 -0.00000000000E+00 -0.00000000000E+00 -0.74505805969E-08  0.93827000000E+00  0.93827000000E+00 0. -1.
     999902    2    1    2    0    0 -0.12970618687E-01  0.18243482003E-01 -0.60177734576E-02  0.10207508028E+01  0.10204875924E+01 0.  0.
     999903    2    3    3    0    0 -0.12537718570E+00  0.36465342747E-01  0.16618091777E-01  0.13312494982E+00  0.19923136619E-01 0.  0.
         14    1    1    2    0    0  0.12970618687E-01 -0.18243482003E-01  0.60177734576E-02  0.23179197184E-01  0.00000000000E+00 0. -1.
     999901    1    3    3    0    0  0.11240656702E+00 -0.18221860745E-01 -0.22635865235E-01  0.88762585300E+00  0.88000000000E+00 0.  1.
        -11    1    4    4    0    0 -0.20102982813E-01  0.10451053022E-01 -0.31970220285E-02  0.22887474699E-01  0.51100000000E-03 0. -1.
         11    1    4    4    0    0 -0.10527420289E+00  0.26014289725E-01  0.19815113806E-01  0.11023747512E+00  0.51100000000E-03 0.  1.
</event>
<event>
 8    1  0.1030163E+005  0.1043930E+01  0.7957747E-01            NaN
         13   -1    0    0    0    0  0.00000000000E+00  0.00000000000E+00  0.74505805969E-08  0.10566000000E+00  0.10566000000E+00 0. -1.
     999900   -1    0    0    0    0 -0.00000000000E+00 -0.00000000000E+00 -0.74505805969E-08  0.93827000000E+00  0.93827000000E+00 0. -1.
     999902    2    1    2    0    0  0.66110752545E-02  0.17980780095E-01  0.13493318561E-01  0.10204974497E+01  0.10202283864E+01 0.  0.
     999903    2    3    3    0    0 -0.57349080113E-02 -0.79069554048E-01  0.10187457947E+00  0.13067587321E+00  0.20319211364E-01 0.  0.
         14    1    1    2    0    0 -0.66110752545E-02 -0.17980780095E-01 -0.13493318561E-01  0.23432550323E-01  0.00000000000E+00 0.  1.
     999901    1    3    3    0    0  0.12345983266E-01  0.97050334144E-01 -0.88381260910E-01  0.88982157646E+00  0.88000000000E+00 0. -1.
        -11    1    4    4    0    0 -0.11411097479E-01 -0.67707025810E-01  0.80492364359E-01  0.10580045525E+00  0.51100000000E-03 0. -1.
         11    1    4    4    0    0  0.56761894678E-02 -0.11362528239E-01  0.21382215112E-01  0.24875417965E-01  0.51100000000E-03 0.  1.
</event>
<event>
 8    1  0.1030163E+005  0.1043930E+01  0.7957747E-01            NaN
         13   -1    0    0    0    0  0.00000000000E+00  0.00000000000E+00  0.74505805969E-08  0.10566000000E+00  0.10566000000E+00 0.  1.
     999900   -1    0    0    0    0 -0.00000000000E+00 -0.00000000000E+00 -0.74505805969E-08  0.93827000000E+00  0.93827000000E+00 0.  1.
     999902    2    1    2    0    0 -0.77366632299E-02 -0.54692038696E-02 -0.22369019398E-01  0.10196371785E+01  0.10193477496E+01 0.  0.
     999903    2    3    3    0    0 -0.12660664262E+00  0.37930951763E-02 -0.31087896795E-01  0.13155391604E+00  0.17214702189E-01 0.  0.
         14    1    1    2    0    0  0.77366632299E-02  0.54692038696E-02  0.22369019398E-01  0.24292821527E-01  0.00000000000E+00 0.  1.
     999901    1    3    3    0    0  0.11886997939E+00 -0.92622990460E-02  0.87188773974E-02  0.88808326243E+00  0.88000000000E+00 0.  1.
        -11    1    4    4    0    0 -0.63423044716E-01  0.97763345897E-02 -0.19171505991E-01  0.66976615935E-01  0.51100000000E-03 0.  1.
         11    1    4    4    0    0 -0.63183597908E-01 -0.59832394133E-02 -0.11916390805E-01  0.64577300109E-01  0.51100000000E-03 0. -1.
</event>
<event>
 8    1  0.1030163E+005  0.1043930E+01  0.7957747E-01            NaN
         13   -1    0    0    0    0  0.00000000000E+00  0.00000000000E+00  0.74505805969E-08  0.10566000000E+00  0.10566000000E+00 0. -1.
     999900   -1    0    0    0    0 -0.00000000000E+00 -0.00000000000E+00 -0.74505805969E-08  0.93827000000E+00  0.93827000000E+00 0.  1.
     999902    2    1    2    0    0 -0.14329534711E-01  0.10429376426E-01  0.16498526877E-01  0.10197161848E+01  0.10194286580E+01 0.  0.
     999903    2    3    3    0    0  0.14264144863E-01 -0.11064945508E+00 -0.58990902483E-01  0.12776532522E+00  0.19931984714E-01 0.  0.
         14    1    1    2    0    0  0.14329534711E-01 -0.10429376426E-01 -0.16498526877E-01  0.24213815205E-01  0.00000000000E+00 0.  1.
     999901    1    3    3    0    0 -0.28593679574E-01  0.12107883151E+00  0.75489429360E-01  0.89195085957E+00  0.88000000000E+00 0. -1.
        -11    1    4    4    0    0  0.87196283966E-04 -0.55131066450E-01 -0.20920200510E-01  0.58969127528E-01  0.51100000000E-03 0.  1.
         11    1    4    4    0    0  0.14176948579E-01 -0.55518388631E-01 -0.38070701973E-01  0.68796197692E-01  0.51100000000E-03 0. -1.
</event>
<event>
 8    1  0.1030163E+005  0.1043930E+01  0.7957747E-01            NaN
         13   -1    0    0    0    0  0.00000000000E+00  0.00000000000E+00  0.74505805969E-08  0.10566000000E+00  0.10566000000E+00 0.  1.
     999900   -1    0    0    0    0 -0.00000000000E+00 -0.00000000000E+00 -0.74505805969E-08  0.93827000000E+00  0.93827000000E+00 0.  1.
     999902    2    1    2    0    0 -0.17358809433E-01  0.13182006160E-01  0.12355954361E-01  0.10188747978E+01  0.10185666843E+01 0.  0.
     999903    2    3    3    0    0  0.95143441930E-01  0.89457099166E-02 -0.80755769248E-01  0.12682967791E+00  0.20783952070E-01 0.  0.
         14    1    1    2    0    0  0.17358809433E-01 -0.13182006160E-01 -0.12355954361E-01  0.25055202244E-01  0.00000000000E+00 0.  1.
     999901    1    3    3    0    0 -0.11250225136E+00  0.42362962432E-02  0.93111723609E-01  0.89204511985E+00  0.88000000000E+00 0. -1.
        -11    1    4    4    0    0  0.63785662429E-01  0.71244585768E-02 -0.41007309909E-01  0.76165800912E-01  0.51100000000E-03 0.  1.
         11    1    4    4    0    0  0.31357779501E-01  0.18212513399E-02 -0.39748459339E-01  0.50663876998E-01  0.51100000000E-03 0. -1.
</event>
<event>
 8    1  0.1030163E+005  0.1043930E+01  0.7957747E-01            NaN
         13   -1    0    0    0    0  0.00000000000E+00  0.00000000000E+00  0.74505805969E-08  0.10566000000E+00  0.10566000000E+00 0.  1.
     999900   -1    0    0    0    0 -0.00000000000E+00 -0.00000000000E+00 -0.74505805969E-08  0.93827000000E+00  0.93827000000E+00 0.  1.
     999902    2    1    2    0    0 -0.21965852392E-01  0.71381810843E-02 -0.34528687487E-03  0.10208308328E+01  0.10205694576E+01 0.  0.
     999903    2    3    3    0    0  0.17178850193E-01 -0.12599273841E+00 -0.15054017518E-01  0.12983560489E+00  0.21479707393E-01 0.  0.
         14    1    1    2    0    0  0.21965852392E-01 -0.71381810843E-02  0.34528687487E-03  0.23099167161E-01  0.00000000000E+00 0. -1.
     999901    1    3    3    0    0 -0.39144702586E-01  0.13313091949E+00  0.14708730643E-01  0.89099522795E+00  0.88000000000E+00 0.  1.
        -11    1    4    4    0    0 -0.15243876498E-02 -0.68094855777E-01 -0.78810417700E-02  0.68568251263E-01  0.51100000000E-03 0.  1.
         11    1    4    4    0    0  0.18703237843E-01 -0.57897882629E-01 -0.71729757478E-02  0.61267353630E-01  0.51100000000E-03 0. -1.
</event>
<event>
 8    1  0.1030163E+005  0.1043930E+01  0.7957747E-01            NaN
         13   -1    0    0    0    0  0.00000000000E+00  0.00000000000E+00  0.74505805969E-08  0.10566000000E+00  0.10566000000E+00 0.  1.
     999900   -1    0    0    0    0 -0.00000000000E+00 -0.00000000000E+00 -0.74505805969E-08  0.93827000000E+00  0.93827000000E+00 0.  1.
     999902    2    1    2    0    0 -0.82062510650E-02  0.74797802290E-02 -0.21277531961E-01  0.10199295201E+01  0.10196470973E+01 0.  0.
     999903    2    3    3    0    0 -0.24528390005E-01 -0.21885914078E-01  0.12161168020E+00  0.12777141575E+00  0.21342417154E-01 0.  0.
         14    1    1    2    0    0  0.82062510650E-02 -0.74797802290E-02  0.21277531961E-01  0.24000479894E-01  0.00000000000E+00 0.  1.
     999901    1    3    3    0    0  0.16322138940E-01  0.29365694307E-01 -0.14288921216E+00  0.89215810436E+00  0.88000000000E+00 0.  1.
        -11    1    4    4    0    0 -0.16019563840E-01 -0.72573357933E-02  0.91946573775E-01  0.93614789955E-01  0.51100000000E-03 0. -1.
         11    1    4    4    0    0 -0.85088261653E-02 -0.14628578284E-01  0.29665106424E-01  0.34156625792E-01  0.51100000000E-03 0.  1.
</event>
<event>
 8    1  0.1030163E+005  0.1043930E+01  0.7957747E-01            NaN
         13   -1    0    0    0    0  0.00000000000E+00  0.00000000000E+00  0.74505805969E-08  0.10566000000E+00  0.10566000000E+00 0. -1.
     999900   -1    0    0    0    0 -0.00000000000E+00 -0.00000000000E+00 -0.74505805969E-08  0.93827000000E+00  0.93827000000E+00 0.  1.
     999902    2    1    2    0    0  0.16115524780E-01  0.11282714983E-01  0.58531002649E-02  0.10234051716E+01  0.10231993338E+01 0.  0.
     999903    2    3    3    0    0  0.11991291563E+00  0.47685911549E-01 -0.35240485157E-01  0.13560577210E+00  0.22225663912E-01 0.  0.
         14    1    1    2    0    0 -0.16115524780E-01 -0.11282714983E-01 -0.58531002649E-02  0.20524828356E-01  0.00000000000E+00 0. -1.
     999901    1    3    3    0    0 -0.10379739085E+00 -0.36403196566E-01  0.41093585422E-01  0.88779939954E+00  0.88000000000E+00 0. -1.
        -11    1    4    4    0    0  0.20470995326E-01  0.16980467977E-01 -0.10718540470E-01  0.28680065780E-01  0.51100000000E-03 0. -1.
         11    1    4    4    0    0  0.99441920309E-01  0.30705443572E-01 -0.24521944687E-01  0.10692570632E+00  0.51100000000E-03 0.  1.
</event>
<event>
 8    1  0.1030163E+005  0.1043930E+01  0.7957747E-01            NaN
         13   -1    0    0    0    0  0.00000000000E+00  0.00000000000E+00  0.74505805969E-08  0.10566000000E+00  0.10566000000E+00 0.  1.
     999900   -1    0    0    0    0 -0.00000000000E+00 -0.00000000000E+00 -0.74505805969E-08  0.93827000000E+00  0.93827000000E+00 0. -1.
     999902    2    1    2    0    0  0.96280374937E-03  0.13432366362E-01  0.17893465281E-01  0.10215350998E+01  0.10212895909E+01 0.  0.
     999903    2    3    3    0    0 -0.13710722868E-01 -0.19319209355E-01  0.13012371000E+00  0.13368173015E+00  0.19427024957E-01 0.  0.
         14    1    1    2    0    0 -0.96280374937E-03 -0.13432366362E-01 -0.17893465281E-01  0.22394900243E-01  0.00000000000E+00 0. -1.
     999901    1    3    3    0    0  0.14673526618E-01  0.32751575717E-01 -0.11223024472E+00  0.88785336961E+00  0.88000000000E+00 0. -1.
        -11    1    4    4    0    0 -0.12187601771E-01 -0.15793792196E-02  0.65669502452E-01  0.66811501621E-01  0.51100000000E-03 0.  1.
         11    1    4    4    0    0 -0.15231210972E-02 -0.17739830135E-01  0.64454207551E-01  0.66870228526E-01  0.51100000000E-03 0. -1.
</event>
<event>
 8    1  0.1030163E+005  0.1043930E+01  0.7957747E-01            NaN
         13   -1    0    0    0    0  0.00000000000E+00  0.00000000000E+00  0.74505805969E-08  0.10566000000E+00  0.10566000000E+00 0. -1.
     999900   -1    0    0    0    0 -0.00000000000E+00 -0.00000000000E+00 -0.74505805969E-08  0.93827000000E+00  0.93827000000E+00 0. -1.
     999902    2    1    2    0    0  0.99541451388E-02 -0.27664987861E-01  0.11957656525E-01  0.10121900865E+01  0.10116923194E+01 0.  0.
     999903    2    3    3    0    0  0.25282381061E-01 -0.68165144568E-01 -0.98874718933E-01  0.12418162205E+00  0.18952031126E-01 0.  0.
         14    1    1    2    0    0 -0.99541451388E-02  0.27664987861E-01 -0.11957656525E-01  0.31739913490E-01  0.00000000000E+00 0.  1.
     999901    1    3    3    0    0 -0.15328235922E-01  0.40500156707E-01  0.11083237546E+00  0.88800846446E+00  0.88000000000E+00 0.  1.
        -11    1    4    4    0    0  0.27891259930E-02 -0.29802715237E-01 -0.48387102246E-01  0.56899506536E-01  0.51100000000E-03 0.  1.
         11    1    4    4    0    0  0.22493255068E-01 -0.38362429331E-01 -0.50487616687E-01  0.67282115509E-01  0.51100000000E-03 0. -1.
</event>
<event>
 8    1  0.1030163E+005  0.1043930E+01  0.7957747E-01            NaN
         13   -1    0    0    0    0  0.00000000000E+00  0.00000000000E+00  0.74505805969E-08  0.10566000000E+00  0.10566000000E+00 0.  1.
     999900   -1    0    0    0    0 -0.00000000000E+00 -0.00000000000E+00 -0.74505805969E-08  0.93827000000E+00  0.93827000000E+00 0.  1.
     999902    2    1    2    0    0 -0.52117601792E-02 -0.14446331571E-01  0.19034060916E-01  0.10194728044E+01  0.10191793976E+01 0.  0.
     999903    2    3    3    0    0  0.11095025695E+00  0.59237067030E-01  0.15994451344E-01  0.12878088425E+00  0.22576626103E-01 0.  0.
         14    1    1    2    0    0  0.52117601792E-02  0.14446331571E-01 -0.19034060916E-01  0.24457195567E-01  0.00000000000E+00 0. -1.
     999901    1    3    3    0    0 -0.11616201713E+00 -0.73683398601E-01  0.30396095724E-02  0.89069192018E+00  0.88000000000E+00 0. -1.
        -11    1    4    4    0    0  0.64420979102E-01  0.29971382852E-01 -0.15757741388E-02  0.71071024501E-01  0.51100000000E-03 0.  1.
         11    1    4    4    0    0  0.46529277851E-01  0.29265684178E-01  0.17570225482E-01  0.57709859749E-01  0.51100000000E-03 0. -1.
</event>
<event>
 8    1  0.1030163E+005  0.1043930E+01  0.7957747E-01            NaN
         13   -1    0    0    0    0  0.00000000000E+00  0.00000000000E+00  0.74505805969E-08  0.10566000000E+00  0.10566000000E+00 0.  1.
     999900   -1    0    0    0    0 -0.00000000000E+00 -0.00000000000E+00 -0.74505805969E-08  0.93827000000E+00  0.93827000000E+00 0. -1.
     999902    2    1    2    0    0  0.94449923878E-02  0.28717239095E-02 -0.21329160491E-01  0.10204270690E+01  0.10201563681E+01 0.  0.
     999903    2    3    3    0    0 -0.29683807943E-01 -0.10467490557E+00  0.64560249727E-01  0.12886981825E+00  0.24524271688E-01 0.  0.
         14    1    1    2    0    0 -0.94449923878E-02 -0.28717239095E-02  0.21329160491E-01  0.23502931023E-01  0.00000000000E+00 0.  1.
     999901    1    3    3    0    0  0.39128800331E-01  0.10754662948E+00 -0.85889410218E-01  0.89155725072E+00  0.88000000000E+00 0. -1.
        -11    1    4    4    0    0  0.39449445153E-03 -0.61758522808E-02  0.11369883773E-01  0.12955005028E-01  0.51100000000E-03 0. -1.
         11    1    4    4    0    0 -0.30078302395E-01 -0.98499053290E-01  0.53190365954E-01  0.11591481323E+00  0.51100000000E-03 0.  1.
</event>
<event>
 8    1  0.1030163E+005  0.1043930E+01  0.7957747E-01            NaN
         13   -1    0    0    0    0  0.00000000000E+00  0.00000000000E+00  0.74505805969E-08  0.10566000000E+00  0.10566000000E+00 0. -1.
     999900   -1    0    0    0    0 -0.00000000000E+00 -0.00000000000E+00 -0.74505805969E-08  0.93827000000E+00  0.93827000000E+00 0. -1.
     999902    2    1    2    0    0  0.57827216698E-02  0.18292754962E-01 -0.14683285833E-01  0.10197708685E+01  0.10194846544E+01 0.  0.
     999903    2    3    3    0    0  0.10331148031E+00 -0.68347145180E-01 -0.34640986680E-01  0.12993007321E+00  0.18363870750E-01 0.  0.
         14    1    1    2    0    0 -0.57827216698E-02 -0.18292754962E-01  0.14683285833E-01  0.24159131541E-01  0.00000000000E+00 0. -1.
     999901    1    3    3    0    0 -0.97528758641E-01  0.86639900141E-01  0.19957700847E-01  0.88984079524E+00  0.88000000000E+00 0. -1.
        -11    1    4    4    0    0  0.31491379564E-01 -0.11300415108E-01 -0.10803413898E-01  0.35162213260E-01  0.51100000000E-03 0.  1.
         11    1    4    4    0    0  0.71820100747E-01 -0.57046730072E-01 -0.23837572781E-01  0.94767859954E-01  0.51100000000E-03 0. -1.
</event>
<event>
 8    1  0.1030163E+005  0.1043930E+01  0.7957747E-01            NaN
         13   -1    0    0    0    0  0.00000000000E+00  0.00000000000E+00  0.74505805969E-08  0.10566000000E+00  0.10566000000E+00 0.  1.
     999900   -1    0    0    0    0 -0.00000000000E+00 -0.00000000000E+00 -0.74505805969E-08  0.93827000000E+00  0.93827000000E+00 0. -1.
     999902    2    1    2    0    0 -0.70515785958E-02  0.12254813261E-01  0.18515418347E-01  0.10206335212E+01  0.10203676096E+01 0.  0.
     999903    2    3    3    0    0  0.58179416627E-01  0.10199635953E+00 -0.54225061499E-01  0.13068981214E+00  0.18744807940E-01 0.  0.
         14    1    1    2    0    0  0.70515785958E-02 -0.12254813261E-01 -0.18515418347E-01  0.23296478818E-01  0.00000000000E+00 0. -1.
     999901    1    3    3    0    0 -0.65230995223E-01 -0.89741546270E-01  0.72740479846E-01  0.88994370905E+00  0.88000000000E+00 0.  1.
        -11    1    4    4    0    0  0.10321457167E-01  0.17827560231E-01 -0.17834899551E-01  0.27252507129E-01  0.51100000000E-03 0. -1.
         11    1    4    4    0    0  0.47857959460E-01  0.84168799300E-01 -0.36390161948E-01  0.10343730501E+00  0.51100000000E-03 0.  1.
</event>
<event>
 8    1  0.1030163E+005  0.1043930E+01  0.7957747E-01            NaN
         13   -1    0    0    0    0  0.00000000000E+00  0.00000000000E+00  0.74505805969E-08  0.10566000000E+00  0.10566000000E+00 0.  1.
     999900   -1    0    0    0    0 -0.00000000000E+00 -0.00000000000E+00 -0.74505805969E-08  0.93827000000E+00  0.93827000000E+00 0.  1.
     999902    2    1    2    0    0  0.20903329445E-01  0.11426155237E-01  0.49301638326E-02  0.10196027987E+01  0.10193125401E+01 0.  0.
     999903    2    3    3    0    0  0.22948926381E-01  0.75049185802E-01  0.10394013348E+00  0.13176551153E+00  0.19989126295E-01 0.  0.
         14    1    1    2    0    0 -0.20903329445E-01 -0.11426155237E-01 -0.49301638326E-02  0.24327201253E-01  0.00000000000E+00 0. -1.
     999901    1    3    3    0    0 -0.20455969367E-02 -0.63623030565E-01 -0.99009969643E-01  0.88783728722E+00  0.88000000000E+00 0.  1.
        -11    1    4    4    0    0  0.19079850229E-01  0.63316716184E-01  0.73290268324E-01  0.98715610645E-01  0.51100000000E-03 0.  1.
         11    1    4    4    0    0  0.38690761524E-02  0.11732469618E-01  0.30649865152E-01  0.33049900884E-01  0.51100000000E-03 0. -1.
</event>
<event>
 7    1  0.1030163E+005  0.1043930E+01  0.7957747E-01            NaN
         13   -1    0    0    0    0  0.00000000000E+00  0.00000000000E+00  0.74505805969E-08  0.10566000000E+00  0.10566000000E+00 0.  1.
     999900   -1    0    0    0    0 -0.00000000000E+00 -0.00000000000E+00 -0.74505805969E-08  0.93827000000E+00  0.93827000000E+00 0. -1.
     999902    2    1    2    0    0 -0.16047423940E-02 -0.73158075135E-04 -0.22264866059E-01  0.10216072580E+01  0.10213633461E+01 0.  0.
         14    1    1    2    0    0  0.16047423940E-02  0.73158075135E-04  0.22264866059E-01  0.22322742011E-01  0.00000000000E+00 0.  1.
     999901    1    3    3    0    0 -0.12449433491E-01  0.23538793816E-02 -0.13675324994E+00  0.89065255881E+00  0.88000000000E+00 0. -1.
        -11    1    3    3    0    0  0.32061119589E-01  0.84136793025E-02  0.36046100411E-01  0.48972317329E-01  0.51100000000E-03 0.  1.
         11    1    3    3    0    0 -0.21216428492E-01 -0.10840716759E-01  0.78442283466E-01  0.81982381852E-01  0.51100000000E-03 0. -1.
</event>
<event>
 8    1  0.1030163E+005  0.1043930E+01  0.7957747E-01            NaN
         13   -1    0    0    0    0  0.00000000000E+00  0.00000000000E+00  0.74505805969E-08  0.10566000000E+00  0.10566000000E+00 0. -1.
     999900   -1    0    0    0    0 -0.00000000000E+00 -0.00000000000E+00 -0.74505805969E-08  0.93827000000E+00  0.93827000000E+00 0.  1.
     999902    2    1    2    0    0  0.21674714399E-01 -0.10068342510E-01 -0.12326775566E-01  0.10170392179E+01  0.10166836561E+01 0.  0.
     999903    2    3    3    0    0  0.73084485407E-01 -0.15432693539E-01  0.10203760308E+00  0.12813486315E+00  0.20672703621E-01 0.  0.
         14    1    1    2    0    0 -0.21674714399E-01  0.10068342510E-01  0.12326775566E-01  0.26890782083E-01  0.00000000000E+00 0.  1.
     999901    1    3    3    0    0 -0.51409771008E-01  0.53643510297E-02 -0.11436437865E+00  0.88890435477E+00  0.88000000000E+00 0.  1.
        -11    1    4    4    0    0  0.38366012377E-01 -0.17193406088E-01  0.47265085562E-01  0.63259888972E-01  0.51100000000E-03 0. -1.
         11    1    4    4    0    0  0.34718473030E-01  0.17607125487E-02  0.54772517521E-01  0.64874974180E-01  0.51100000000E-03 0.  1.
</event>
<event>
 8    1  0.1030163E+005  0.1043930E+01  0.7957747E-01            NaN
         13   -1    0    0    0    0  0.00000000000E+00  0.00000000000E+00  0.74505805969E-08  0.10566000000E+00  0.10566000000E+00 0.  1.
     999900   -1    0    0    0    0 -0.00000000000E+00 -0.00000000000E+00 -0.74505805969E-08  0.93827000000E+00  0.93827000000E+00 0.  1.
     999902    2    1    2    0    0 -0.38017756045E-02  0.13735806639E-01 -0.17545850714E-01  0.10213250722E+01  0.10210748848E+01 0.  0.
     999903    2    3    3    0    0  0.64705758033E-01 -0.79718249001E-01  0.75018564511E-01  0.12891534927E+00  0.21202544898E-01 0.  0.
         14    1    1    2    0    0  0.38017756045E-02 -0.13735806639E-01  0.17545850714E-01  0.22604927761E-01  0.00000000000E+00 0.  1.
     999901    1    3    3    0    0 -0.68507533637E-01  0.93454055641E-01 -0.92564415226E-01  0.89240972297E+00  0.88000000000E+00 0.  1.
        -11    1    4    4    0    0  0.34439454440E-01 -0.57262157087E-01  0.43018321313E-01  0.79472433875E-01  0.51100000000E-03 0.  1.
         11    1    4    4    0    0  0.30266303592E-01 -0.22456091914E-01  0.32000243198E-01  0.49442915397E-01  0.51100000000E-03 0. -1.
</event>
<event>
 8    1  0.1030163E+005  0.1043930E+01  0.7957747E-01            NaN
         13   -1    0    0    0    0  0.00000000000E+00  0.00000000000E+00  0.74505805969E-08  0.10566000000E+00  0.10566000000E+00 0. -1.
     999900   -1    0    0    0    0 -0.00000000000E+00 -0.00000000000E+00 -0.74505805969E-08  0.93827000000E+00  0.93827000000E+00 0.  1.
     999902    2    1    2    0    0 -0.19420389804E-01 -0.12032148057E-01 -0.67635543441E-02  0.10201041780E+01  0.10198258989E+01 0.  0.
     999903    2    3    3    0    0 -0.76628597803E-02  0.20412532966E-01 -0.12751247264E+00  0.13118843502E+00  0.21807885784E-01 0.  0.
         14    1    1    2    0    0  0.19420389804E-01  0.12032148057E-01  0.67635543441E-02  0.23825822008E-01  0.00000000000E+00 0. -1.
     999901    1    3    3    0    0 -0.11757530023E-01 -0.32444681022E-01  0.12074891829E+00  0.88891574297E+00  0.88000000000E+00 0. -1.
        -11    1    4    4    0    0 -0.12388195072E-01  0.29934189323E-02 -0.55510726414E-01  0.56957262944E-01  0.51100000000E-03 0.  1.
         11    1    4    4    0    0  0.47253352917E-02  0.17419114033E-01 -0.72001746223E-01  0.74231172074E-01  0.51100000000E-03 0. -1.
</event>
<event>
 8    1  0.1030163E+005  0.1043930E+01  0.7957747E-01            NaN
         13   -1    0    0    0    0  0.00000000000E+00  0.00000000000E+00  0.74505805969E-08  0.10566000000E+00  0.10566000000E+00 0. -1.
     999900   -1    0    0    0    0 -0.00000000000E+00 -0.00000000000E+00 -0.74505805969E-08  0.93827000000E+00  0.93827000000E+00 0.  1.
     999902    2    1    2    0    0  0.14346427188E-01 -0.21364061869E-01 -0.46049075022E-02  0.10177871561E+01  0.10174513487E+01 0.  0.
     999903    2    3    3    0    0 -0.87430772320E-01 -0.49842864923E-01  0.76457157122E-01  0.12776429188E+00  0.18696691476E-01 0.  0.
         14    1    1    2    0    0 -0.14346427188E-01  0.21364061869E-01  0.46049075022E-02  0.26142843872E-01  0.00000000000E+00 0.  1.
     999901    1    3    3    0    0  0.10177719951E+00  0.28478803054E-01 -0.81062064624E-01  0.89002286425E+00  0.88000000000E+00 0.  1.
        -11    1    4    4    0    0 -0.67053936984E-01 -0.46557387276E-01  0.63040533031E-01  0.10314160509E+00  0.51100000000E-03 0.  1.
         11    1    4    4    0    0 -0.20376835336E-01 -0.32854776475E-02  0.13416624091E-01  0.24622686789E-01  0.51100000000E-03 0. -1.
</event>
<event>
 8    1  0.1030163E+005  0.1043930E+01  0.7957747E-01            NaN
         13   -1    0    0    0    0  0.00000000000E+00  0.00000000000E+00  0.74505805969E-08  0.10566000000E+00  0.10566000000E+00 0.  1.
     999900   -1    0    0    0    0 -0.00000000000E+00 -0.00000000000E+00 -0.74505805969E-08  0.93827000000E+00  0.93827000000E+00 0. -1.
     999902    2    1    2    0    0 -0.20212168827E-02 -0.28018945465E-02  0.22861399034E-01  0.10208090247E+01  0.10205471501E+01 0.  0.
     999903    2    3    3    0    0  0.60798433684E-01 -0.15724410251E-01  0.11623800998E+00  0.13354779412E+00  0.19494402601E-01 0.  0.
         14    1    1    2    0    0  0.20212168827E-02  0.28018945465E-02 -0.22861399034E-01  0.23120975251E-01  0.00000000000E+00 0. -1.
     999901    1    3    3    0    0 -0.62819650567E-01  0.12922515704E-01 -0.93376610948E-01  0.88726123063E+00  0.88000000000E+00 0. -1.
        -11    1    4    4    0    0  0.43748517407E-01 -0.20096024115E-01  0.85260755017E-01  0.97915475936E-01  0.51100000000E-03 0. -1.
         11    1    4    4    0    0  0.17049916277E-01  0.43716138648E-02  0.30977254965E-01  0.35632318182E-01  0.51100000000E-03 0.  1.
</event>
<event>
 8    1  0.1030163E+005  0.1043930E+01  0.7957747E-01            NaN
         13   -1    0    0    0    0  0.00000000000E+00  0.00000000000E+00  0.74505805969E-08  0.10566000000E+00  0.10566000000E+00 0.  1.
     999900   -1    0    0    0    0 -0.00000000000E+00 -0.00000000000E+00 -0.74505805969E-08  0.93827000000E+00  0.93827000000E+00 0.  1.
     999902    2    1    2    0    0 -0.72865585381E-02 -0.77905765486E-02 -0.21098639911E-01  0.10202880960E+01  0.10200141466E+01 0.  0.
     999903    2    3    3    0    0  0.84036341323E-01  0.51139408300E-01 -0.84708947346E-01  0.13132303125E+00  0.19818855445E-01 0.  0.
         14    1    1    2    0    0  0.72865585381E-02  0.77905765486E-02  0.21098639911E-01  0.23641903992E-01  0.00000000000E+00 0.  1.
     999901    1    3    3    0    0 -0.91322899862E-01 -0.58929984849E-01  0.63610307435E-01  0.88896506476E+00  0.88000000000E+00 0. -1.
        -11    1    4    4    0    0  0.73934618370E-01  0.41335049742E-01 -0.63512299326E-01  0.10587250548E+00  0.51100000000E-03 0.  1.
         11    1    4    4    0    0  0.10101722954E-01  0.98043585578E-02 -0.21196648020E-01  0.25450525763E-01  0.51100000000E-03 0. -1.
</event>
<event>
 8    1  0.1030163E+005  0.1043930E+01  0.7957747E-01            NaN
         13   -1    0    0    0    0  0.00000000000E+00  0.00000000000E+00  0.74505805969E-08  0.10566000000E+00  0.10566000000E+00 0. -1.
     999900   -1    0    0    0    0 -0.00000000000E+00 -0.00000000000E+00 -0.74505805969E-08  0.93827000000E+00  0.93827000000E+00 0. -1.
     999902    2    1    2    0    0  0.68911031888E-02 -0.13888641840E-01  0.18968845927E-01  0.10194310451E+01  0.10191366233E+01 0.  0.
     999903    2    3    3    0    0 -0.43044304407E-01  0.87027480725E-01 -0.79196479847E-01  0.12684265177E+00  0.19758070369E-01 0.  0.
         14    1    1    2    0    0 -0.68911031888E-02  0.13888641840E-01 -0.18968845927E-01  0.24498954898E-01  0.00000000000E+00 0.  1.
     999901    1    3    3    0    0  0.49935407595E-01 -0.10091612256E+00  0.98165325774E-01  0.89258839333E+00  0.88000000000E+00 0.  1.
        -11    1    4    4    0    0 -0.34237126183E-01  0.82149368321E-01 -0.71166942395E-01  0.11395479075E+00  0.51100000000E-03 0.  1.
         11    1    4    4    0    0 -0.88071782234E-02  0.48781124035E-02 -0.80295374526E-02  0.12887861017E-01  0.51100000000E-03 0. -1.
</event>
<event>
 8    1  0.1030163E+005  0.1043930E+01  0.7957747E-01            NaN
         13   -1    0    0    0    0  0.00000000000E+00  0.00000000000E+00  0.74505805969E-08  0.10566000000E+00  0.10566000000E+00 0. -1.
     999900   -1    0    0    0    0 -0.00000000000E+00 -0.00000000000E+00 -0.74505805969E-08  0.93827000000E+00  0.93827000000E+00 0.  1.
     999902    2    1    2    0    0  0.84528593961E-02 -0.19959760450E-01 -0.95280633544E-02  0.10202524397E+01  0.10199776536E+01 0.  0.
     999903    2    3    3    0    0 -0.10672828615E+00  0.12691280346E-01 -0.69666464184E-01  0.13011233053E+00  0.22886822893E-01 0.  0.
         14    1    1    2    0    0 -0.84528593961E-02  0.19959760450E-01  0.95280633544E-02  0.23677560273E-01  0.00000000000E+00 0. -1.
     999901    1    3    3    0    0  0.11518114554E+00 -0.32651040796E-01  0.60138400830E-01  0.89014010920E+00  0.88000000000E+00 0. -1.
        -11    1    4    4    0    0 -0.43104776614E-01  0.16363239091E-01 -0.27321801930E-01  0.53595889228E-01  0.51100000000E-03 0. -1.
         11    1    4    4    0    0 -0.63623509534E-01 -0.36719587451E-02 -0.42344662254E-01  0.76516441298E-01  0.51100000000E-03 0.  1.
</event>
<event>
 8    1  0.1030163E+005  0.1043930E+01  0.7957747E-01            NaN
         13   -1    0    0    0    0  0.00000000000E+00  0.00000000000E+00  0.74505805969E-08  0.10566000000E+00  0.10566000000E+00 0. -1.
     999900   -1    0    0    0    0 -0.00000000000E+00 -0.00000000000E+00 -0.74505805969E-08  0.93827000000E+00  0.93827000000E+00 0.  1.
     999902    2    1    2    0    0  0.14176926745E-01  0.19610581887E-01 -0.45300125879E-02  0.10193112838E+01  0.10190139411E+01 0.  0.
     999903    2    3    3    0    0  0.99597350417E-01  0.25180116459E-01  0.78715707158E-01  0.13124736810E+00  0.21818308922E-01 0.  0.
         14    1    1    2    0    0 -0.14176926745E-01 -0.19610581887E-01  0.45300125879E-02  0.24618716212E-01  0.00000000000E+00 0.  1.
     999901    1    3    3    0    0 -0.85420423673E-01 -0.55695345721E-02 -0.83245719746E-01  0.88806391569E+00  0.88000000000E+00 0.  1.
        -11    1    4    4    0    0  0.83532226844E-01  0.15367947693E-01  0.55974405257E-01  0.10172119692E+00  0.51100000000E-03 0.  1.
         11    1    4    4    0    0  0.16065123573E-01  0.98121687659E-02  0.22741301901E-01  0.29526171179E-01  0.51100000000E-03 0. -1.
</event>
<event>
 8    1  0.1030163E+005  0.1043930E+01  0.7957747E-01            NaN
         13   -1    0    0    0    0  0.00000000000E+00  0.00000000000E+00  0.74505805969E-08  0.10566000000E+00  0.10566000000E+00 0.  1.
     999900   -1    0    0    0    0 -0.00000000000E+00 -0.00000000000E+00 -0.74505805969E-08  0.93827000000E+00  0.93827000000E+00 0. -1.
     999902    2    1    2    0    0 -0.21379254154E-01 -0.10533238974E-01  0.11449462552E-02  0.10200693099E+01  0.10197902061E+01 0.  0.
     999903    2    3    3    0    0  0.60343588014E-01 -0.20009917427E-01 -0.11063252374E+00  0.12919185861E+00  0.20229572698E-01 0.  0.
         14    1    1    2    0    0  0.21379254154E-01  0.10533238974E-01 -0.11449462552E-02  0.23860690128E-01  0.00000000000E+00 0.  1.
     999901    1    3    3    0    0 -0.81722842168E-01  0.94766784527E-02  0.11177747000E+00  0.89087745126E+00  0.88000000000E+00 0.  1.
        -11    1    4    4    0    0  0.29570412727E-01 -0.68378413318E-02 -0.71602397455E-01  0.77771008899E-01  0.51100000000E-03 0. -1.
         11    1    4    4    0    0  0.30773175288E-01 -0.13172076095E-01 -0.39030126288E-01  0.51420849711E-01  0.51100000000E-03 0.  1.
</event>
<event>
 8    1  0.1030163E+005  0.1043930E+01  0.7957747E-01            NaN
         13   -1    0    0    0    0  0.00000000000E+00  0.00000000000E+00  0.74505805969E-08  0.10566000000E+00  0.10566000000E+00 0. -1.
     999900   -1    0    0    0    0 -0.00000000000E+00 -0.00000000000E+00 -0.74505805969E-08  0.93827000000E+00  0.93827000000E+00 0. -1.
     999902    2    1    2    0    0 -0.31563417877E-03 -0.12320364182E-03  0.24418628676E-01  0.10195090207E+01  0.10192164927E+01 0.  0.
     999903    2    3    3    0    0 -0.11143051091E+00 -0.58147356533E-01  0.31959129124E-01  0.13059385190E+00  0.15345826359E-01 0.  0.
         14    1    1    2    0    0  0.31563417877E-03  0.12320364182E-03 -0.24418628676E-01  0.24420979310E-01  0.00000000000E+00 0.  1.
     999901    1    3    3    0    0  0.11111487673E+00  0.58024152891E-01 -0.75405004478E-02  0.88891516879E+00  0.88000000000E+00 0.  1.
        -11    1    4    4    0    0 -0.82999866862E-01 -0.36451099216E-01  0.19564080824E-01  0.92739823769E-01  0.51100000000E-03 0.  1.
         11    1    4    4    0    0 -0.28430644051E-01 -0.21696257316E-01  0.12395048299E-01  0.37854028135E-01  0.51100000000E-03 0. -1.
</event>
<event>
 8    1  0.1030163E+005  0.1043930E+01  0.7957747E-01            NaN
         13   -1    0    0    0    0  0.00000000000E+00  0.00000000000E+00  0.74505805969E-08  0.10566000000E+00  0.10566000000E+00 0. -1.
     999900   -1    0    0    0    0 -0.00000000000E+00 -0.00000000000E+00 -0.74505805969E-08  0.93827000000E+00  0.93827000000E+00 0. -1.
     999902    2    1    2    0    0 -0.18965106140E-01 -0.13546325471E-01  0.29440419452E-02  0.10204386065E+01  0.10201681744E+01 0.  0.
     999903    2    3    3    0    0  0.59690024829E-02 -0.11944715054E-01 -0.12817530276E+00  0.13037312720E+00  0.19746869366E-01 0.  0.
         14    1    1    2    0    0  0.18965106140E-01  0.13546325471E-01 -0.29440419452E-02  0.23491393480E-01  0.00000000000E+00 0. -1.
     999901    1    3    3    0    0 -0.24934108623E-01 -0.16016104167E-02  0.13111934470E+00  0.89006547932E+00  0.88000000000E+00 0.  1.
        -11    1    4    4    0    0 -0.56993364041E-02 -0.69525681684E-02 -0.81654876254E-01  0.82149866565E-01  0.51100000000E-03 0.  1.
         11    1    4    4    0    0  0.11668338887E-01 -0.49921468857E-02 -0.46520426503E-01  0.48223260631E-01  0.51100000000E-03 0. -1.
</event>
<event>
 8    1  0.1030163E+005  0.1043930E+01  0.7957747E-01            NaN
         13   -1    0    0    0    0  0.00000000000E+00  0.00000000000E+00  0.74505805969E-08  0.10566000000E+00  0.10566000000E+00 0.  1.
     999900   -1    0    0    0    0 -0.00000000000E+00 -0.00000000000E+00 -0.74505805969E-08  0.93827000000E+00  0.93827000000E+00 0.  1.
     999902    2    1    2    0    0  0.61748784941E-02 -0.21733511867E-01 -0.83677875001E-02  0.10198365459E+01  0.10195519044E+01 0.  0.
     999903    2    3    3    0    0 -0.75702802337E-02 -0.90856487342E-01  0.92362193872E-01  0.13129085531E+00  0.19857074228E-01 0.  0.
         14    1    1    2    0    0 -0.61748784941E-02  0.21733511867E-01  0.83677875001E-02  0.24093454093E-01  0.00000000000E+00 0. -1.
     999901    1    3    3    0    0  0.13745158728E-01  0.69122975475E-01 -0.10072998137E+00  0.88854569059E+00  0.88000000000E+00 0.  1.
        -11    1    4    4    0    0  0.63718004606E-02 -0.27814989486E-01  0.32369806401E-01  0.43154825555E-01  0.51100000000E-03 0.  1.
         11    1    4    4    0    0 -0.13942080694E-01 -0.63041497856E-01  0.59992387471E-01  0.88136029758E-01  0.51100000000E-03 0. -1.
</event>
<event>
 8    1  0.1030163E+005  0.1043930E+01  0.7957747E-01            NaN
         13   -1    0    0    0    0  0.00000000000E+00  0.00000000000E+00  0.74505805969E-08  0.10566000000E+00  0.10566000000E+00 0.  1.
     999900   -1    0    0    0    0 -0.00000000000E+00 -0.00000000000E+00 -0.74505805969E-08  0.93827000000E+00  0.93827000000E+00 0. -1.
     999902    2    1    2    0    0 -0.14012035219E-01 -0.10450639814E-01 -0.17815465134E-01  0.10189711579E+01  0.10186654391E+01 0.  0.
     999903    2    3    3    0    0  0.88376241425E-01 -0.82596739884E-01 -0.42550137915E-01  0.12975789716E+00  0.19849840073E-01 0.  0.
         14    1    1    2    0    0  0.14012035219E-01  0.10450639814E-01  0.17815465134E-01  0.24958842150E-01  0.00000000000E+00 0.  1.
     999901    1    3    3    0    0 -0.10238827664E+00  0.72146100070E-01  0.24734672780E-01  0.88921326069E+00  0.88000000000E+00 0. -1.
        -11    1    4    4    0    0  0.22631704681E-01 -0.32314696647E-01 -0.91445185594E-02  0.40500827360E-01  0.51100000000E-03 0. -1.
         11    1    4    4    0    0  0.65744536744E-01 -0.50282043237E-01 -0.33405619356E-01  0.89257069800E-01  0.51100000000E-03 0.  1.
</event>
<event>
 8    1  0.1030163E+005  0.1043930E+01  0.7957747E-01            NaN
         13   -1    0    0    0    0  0.00000000000E+00  0.00000000000E+00  0.74505805969E-08  0.10566000000E+00  0.10566000000E+00 0.  1.
     999900   -1    0    0    0    0 -0.00000000000E+00 -0.00000000000E+00 -0.74505805969E-08  0.93827000000E+00  0.93827000000E+00 0. -1.
     999902    2    1    2    0    0  0.57940750383E-02 -0.18893521658E-01  0.14623501855E-01  0.10193457922E+01  0.10190492926E+01 0.  0.
     999903    2    3    3    0    0 -0.39575119094E-01 -0.12220863896E+00  0.17833102290E-02  0.13204807004E+00  0.30534752667E-01 0.  0.
         14    1    1    2    0    0 -0.57940750383E-02  0.18893521658E-01 -0.14623501855E-01  0.24584207790E-01  0.00000000000E+00 0. -1.
     999901    1    3    3    0    0  0.45369194132E-01  0.10331511730E+00  0.12840191625E-01  0.88729772217E+00  0.88000000000E+00 0.  1.
        -11    1    4    4    0    0 -0.35430785920E-01 -0.84648073503E-01 -0.10371166363E-01  0.92349657019E-01  0.51100000000E-03 0. -1.
         11    1    4    4    0    0 -0.41443331737E-02 -0.37560565452E-01  0.12154476592E-01  0.39698413026E-01  0.51100000000E-03 0.  1.
</event>
<event>
 8    1  0.1030163E+005  0.1043930E+01  0.7957747E-01            NaN
         13   -1    0    0    0    0  0.00000000000E+00  0.00000000000E+00  0.74505805969E-08  0.10566000000E+00  0.10566000000E+00 0.  1.
     999900   -1    0    0    0    0 -0.00000000000E+00 -0.00000000000E+00 -0.74505805969E-08  0.93827000000E+00  0.93827000000E+00 0.  1.
     999902    2    1    2    0    0 -0.20147467493E-01 -0.76029619282E-02 -0.10241020996E-01  0.10200845814E+01  0.10198058390E+01 0.  0.
     999903    2    3    3    0    0 -0.41049565590E-01  0.10499347988E+00  0.60892786388E-01  0.12981783770E+00  0.20881616252E-01 0.  0.
         14    1    1    2    0    0  0.20147467493E-01  0.76029619282E-02  0.10241020996E-01  0.23845418586E-01  0.00000000000E+00 0.  1.
     999901    1    3    3    0    0  0.20902098097E-01 -0.11259644181E+00 -0.71133807384E-01  0.89026674372E+00  0.88000000000E+00 0.  1.
        -11    1    4    4    0    0 -0.29173391191E-01  0.66791955632E-01  0.28204718660E-01  0.78153818629E-01  0.51100000000E-03 0.  1.
         11    1    4    4    0    0 -0.11876174400E-01  0.38201524252E-01  0.32688067728E-01  0.51664019069E-01  0.51100000000E-03 0. -1.
</event>
<event>
 8    1  0.1030163E+005  0.1043930E+01  0.7957747E-01            NaN
         13   -1    0    0    0    0  0.00000000000E+00  0.00000000000E+00  0.74505805969E-08  0.10566000000E+00  0.10566000000E+00 0.  1.
     999900   -1    0    0    0    0 -0.00000000000E+00 -0.00000000000E+00 -0.74505805969E-08  0.93827000000E+00  0.93827000000E+00 0. -1.
     999902    2    1    2    0    0 -0.11730733397E-01 -0.81290883532E-02  0.22668169801E-01  0.10171430982E+01  0.10167903148E+01 0.  0.
     999903    2    3    3    0    0  0.11065752635E+00  0.56423101196E-01  0.11306056146E-01  0.12625872363E+00  0.19615909397E-01 0.  0.
         14    1    1    2    0    0  0.11730733397E-01  0.81290883532E-02 -0.22668169801E-01  0.26786901755E-01  0.00000000000E+00 0. -1.
     999901    1    3    3    0    0 -0.12238825975E+00 -0.64552189549E-01  0.11362113656E-01  0.89088437461E+00  0.88000000000E+00 0.  1.
        -11    1    4    4    0    0  0.34199401139E-01  0.20148395758E-01 -0.51999646753E-02  0.40035704609E-01  0.51100000000E-03 0.  1.
         11    1    4    4    0    0  0.76458125211E-01  0.36274705437E-01  0.16506020821E-01  0.86223019025E-01  0.51100000000E-03 0. -1.
</event>
<event>
 8    1  0.1030163E+005  0.1043930E+01  0.7957747E-01            NaN
         13   -1    0    0    0    0  0.00000000000E+00  0.00000000000E+00  0.74505805969E-08  0.10566000000E+00  0.10566000000E+00 0.  1.
     999900   -1    0    0    0    0 -0.00000000000E+00 -0.00000000000E+00 -0.74505805969E-08  0.93827000000E+00  0.93827000000E+00 0.  1.
     999902    2    1    2    0    0  0.23264117025E-01  0.73101564046E-02 -0.11751417181E-02  0.10195161006E+01  0.10192237442E+01 0.  0.
     999903    2    3    3    0    0  0.12461311970E+00  0.39834378264E-01 -0.11535976806E-01  0.13304173982E+00  0.21256022241E-01 0.  0.
         14    1    1    2    0    0 -0.23264117025E-01 -0.73101564046E-02  0.11751417181E-02  0.24413899436E-01  0.00000000000E+00 0.  1.
     999901    1    3    3    0    0 -0.10134900267E+00 -0.32524221859E-01  0.10360835088E-01  0.88647436074E+00  0.88000000000E+00 0. -1.
        -11    1    4    4    0    0  0.97343686708E-01  0.29508877900E-01 -0.10843288678E-03  0.10171941848E+00  0.51100000000E-03 0.  1.
         11    1    4    4    0    0  0.27269432989E-01  0.10325500364E-01 -0.11427543919E-01  0.31322321343E-01  0.51100000000E-03 0. -1.
</event>
<event>
 8    1  0.1030163E+005  0.1043930E+01  0.7957747E-01            NaN
         13   -1    0    0    0    0  0.00000000000E+00  0.00000000000E+00  0.74505805969E-08  0.10566000000E+00  0.10566000000E+00 0.  1.
     999900   -1    0    0    0    0 -0.00000000000E+00 -0.00000000000E+00 -0.74505805969E-08  0.93827000000E+00  0.93827000000E+00 0.  1.
     999902    2    1    2    0    0 -0.11011434553E-01  0.21258634495E-01 -0.22422774319E-02  0.10198840224E+01  0.10196005149E+01 0.  0.
     999903    2    3    3    0    0  0.66455245687E-01  0.34085560990E-01 -0.10505536813E+00  0.13042567698E+00  0.19902303743E-01 0.  0.
         14    1    1    2    0    0  0.11011434553E-01 -0.21258634495E-01  0.22422774319E-02  0.24045977617E-01  0.00000000000E+00 0.  1.
     999901    1    3    3    0    0 -0.77466680240E-01 -0.12826926495E-01  0.10281309070E+00  0.88945834540E+00  0.88000000000E+00 0. -1.
        -11    1    4    4    0    0  0.31665261280E-01  0.18990388597E-01 -0.68121542781E-01  0.77486317133E-01  0.51100000000E-03 0.  1.
         11    1    4    4    0    0  0.34789984408E-01  0.15095172393E-01 -0.36933825351E-01  0.52939359844E-01  0.51100000000E-03 0. -1.
</event>
<event>
 7    1  0.1030163E+005  0.1043930E+01  0.7957747E-01            NaN
         13   -1    0    0    0    0  0.00000000000E+00  0.00000000000E+00  0.74505805969E-08  0.10566000000E+00  0.10566000000E+00 0. -1.
     999900   -1    0    0    0    0 -0.00000000000E+00 -0.00000000000E+00 -0.74505805969E-08  0.93827000000E+00  0.93827000000E+00 0.  1.
     999903    2    1    2    0    0  0.64258265122E-01  0.66993729592E-01 -0.68481927557E-01  0.11715031687E+00  0.20423954056E-01 0.  0.
         14    1    1    2    0    0  0.11304288913E-01  0.10041439499E-01  0.36617018504E-01  0.39615950060E-01  0.00000000000E+00 0. -1.
     999901    1    1    2    0    0 -0.75562554035E-01 -0.77035169091E-01  0.31864909053E-01  0.88716373307E+00  0.88000000000E+00 0. -1.
        -11    1    3    3    0    0  0.27292834151E-01  0.30481656575E-01 -0.42719008309E-01  0.59154078266E-01  0.51100000000E-03 0.  1.
         11    1    3    3    0    0  0.36965430971E-01  0.36512073016E-01 -0.25762919248E-01  0.57996238602E-01  0.51100000000E-03 0. -1.
</event>
<event>
 8    1  0.1030163E+005  0.1043930E+01  0.7957747E-01            NaN
         13   -1    0    0    0    0  0.00000000000E+00  0.00000000000E+00  0.74505805969E-08  0.10566000000E+00  0.10566000000E+00 0.  1.
     999900   -1    0    0    0    0 -0.00000000000E+00 -0.00000000000E+00 -0.74505805969E-08  0.93827000000E+00  0.93827000000E+00 0. -1.
     999902    2    1    2    0    0  0.33239605354E-02 -0.59712087689E-02  0.21652128401E-01  0.10212249628E+01  0.10209725295E+01 0.  0.
     999903    2    3    3    0    0  0.67369435720E-01 -0.10761728949E+00 -0.28875662077E-01  0.13162572374E+00  0.19271881634E-01 0.  0.
         14    1    1    2    0    0 -0.33239605354E-02  0.59712087689E-02 -0.21652128401E-01  0.22705037153E-01  0.00000000000E+00 0. -1.
     999901    1    3    3    0    0 -0.64045475184E-01  0.10164608072E+00  0.50527790479E-01  0.88959923911E+00  0.88000000000E+00 0.  1.
        -11    1    4    4    0    0  0.25020727949E-01 -0.57777649661E-01 -0.16013969771E-01  0.64969238692E-01  0.51100000000E-03 0. -1.
         11    1    4    4    0    0  0.42348707770E-01 -0.49839639831E-01 -0.12861692307E-01  0.66656485043E-01  0.51100000000E-03 0.  1.
</event>
<event>
 7    1  0.1030163E+005  0.1043930E+01  0.7957747E-01            NaN
         13   -1    0    0    0    0  0.00000000000E+00  0.00000000000E+00  0.74505805969E-08  0.10566000000E+00  0.10566000000E+00 0. -1.
     999900   -1    0    0    0    0 -0.00000000000E+00 -0.00000000000E+00 -0.74505805969E-08  0.93827000000E+00  0.93827000000E+00 0.  1.
     999903    2    1    2    0    0  0.53262756700E-01  0.49352497511E-01 -0.38269706730E-03  0.75288325047E-01  0.19889574392E-01 0.  0.
         14    1    1    2    0    0 -0.47649924243E-01  0.28264410389E-01 -0.61829461501E-01  0.83019723467E-01  0.00000000000E+00 0.  1.
     999901    1    1    2    0    0 -0.56128324569E-02 -0.77616907900E-01  0.62212158568E-01  0.88562195149E+00  0.88000000000E+00 0.  1.
        -11    1    3    3    0    0  0.18821379919E-01  0.58240765433E-02 -0.15317005822E-02  0.19767939632E-01  0.51100000000E-03 0.  1.
         11    1    3    3    0    0  0.34441376781E-01  0.43528420968E-01  0.11490035149E-02  0.55520385415E-01  0.51100000000E-03 0. -1.
</event>
<event>
 8    1  0.1030163E+005  0.1043930E+01  0.7957747E-01            NaN
         13   -1    0    0    0    0  0.00000000000E+00  0.00000000000E+00  0.74505805969E-08  0.10566000000E+00  0.10566000000E+00 0.  1.
     999900   -1    0    0    0    0 -0.00000000000E+00 -0.00000000000E+00 -0.74505805969E-08  0.93827000000E+00  0.93827000000E+00 0. -1.
     999902    2    1    2    0    0 -0.16555288245E-01  0.67859995354E-02 -0.25012070863E-01  0.10131772595E+01  0.10127104365E+01 0.  0.
     999903    2    3    3    0    0 -0.50714150178E-01  0.47422049927E-01 -0.10527614706E+00  0.12793128332E+00  0.21507446733E-01 0.  0.
         14    1    1    2    0    0  0.16555288245E-01 -0.67859995354E-02  0.25012070863E-01  0.30752740487E-01  0.00000000000E+00 0.  1.
     999901    1    3    3    0    0  0.34158861933E-01 -0.40636050392E-01  0.80264076194E-01  0.88524597619E+00  0.88000000000E+00 0.  1.
        -11    1    4    4    0    0 -0.23539173636E-01  0.26830790056E-01 -0.71605547454E-01  0.80009996486E-01  0.51100000000E-03 0.  1.
         11    1    4    4    0    0 -0.27174976542E-01  0.20591259871E-01 -0.33670599603E-01  0.47921286833E-01  0.51100000000E-03 0. -1.
</event>
<event>
 8    1  0.1030163E+005  0.1043930E+01  0.7957747E-01            NaN
         13   -1    0    0    0    0  0.00000000000E+00  0.00000000000E+00  0.74505805969E-08  0.10566000000E+00  0.10566000000E+00 0.  1.
     999900   -1    0    0    0    0 -0.00000000000E+00 -0.00000000000E+00 -0.74505805969E-08  0.93827000000E+00  0.93827000000E+00 0. -1.
     999902    2    1    2    0    0  0.12525533938E-01 -0.15716082447E-01 -0.13959616975E-01  0.10194605261E+01  0.10191668210E+01 0.  0.
     999903    2    3    3    0    0 -0.66240051814E-01  0.96814278904E-01  0.44154955479E-01  0.12691114187E+00  0.19900471667E-01 0.  0.
         14    1    1    2    0    0 -0.12525533938E-01  0.15716082447E-01  0.13959616975E-01  0.24469473922E-01  0.00000000000E+00 0. -1.
     999901    1    3    3    0    0  0.78765585752E-01 -0.11253036135E+00 -0.58114572454E-01  0.89254938421E+00  0.88000000000E+00 0. -1.
        -11    1    4    4    0    0 -0.35978222936E-01  0.69112911462E-01  0.30372367590E-01  0.83628756360E-01  0.51100000000E-03 0. -1.
         11    1    4    4    0    0 -0.30261828878E-01  0.27701367442E-01  0.13782587890E-01  0.43282385506E-01  0.51100000000E-03 0.  1.
</event>
<event>
 8    1  0.1030163E+005  0.1043930E+01  0.7957747E-01            NaN
         13   -1    0    0    0    0  0.00000000000E+00  0.00000000000E+00  0.74505805969E-08  0.10566000000E+00  0.10566000000E+00 0. -1.
     999900   -1    0    0    0    0 -0.00000000000E+00 -0.00000000000E+00 -0.74505805969E-08  0.93827000000E+00  0.93827000000E+00 0.  1.
     999902    2    1    2    0    0  0.10675970217E-01  0.12957622497E-01 -0.17689380028E-01  0.10195416731E+01  0.10192499364E+01 0.  0.
     999903    2    3    3    0    0  0.73615931299E-01  0.84395794068E-01 -0.68919014624E-01  0.13292488641E+00  0.19422653111E-01 0.  0.
         14    1    1    2    0    0 -0.10675970217E-01 -0.12957622497E-01  0.17689380028E-01  0.24388326852E-01  0.00000000000E+00 0. -1.
     999901    1    3    3    0    0 -0.62939961082E-01 -0.71438171571E-01  0.51229634596E-01  0.88661678673E+00  0.88000000000E+00 0. -1.
        -11    1    4    4    0    0  0.30919836443E-01  0.29740855963E-01 -0.16421375101E-01  0.45939933394E-01  0.51100000000E-03 0. -1.
         11    1    4    4    0    0  0.42696094856E-01  0.54654938105E-01 -0.52497639523E-01  0.86984953019E-01  0.51100000000E-03 0.  1.
</event>
<event>
 8    1  0.1030163E+005  0.1043930E+01  0.7957747E-01            NaN
         13   -1    0    0    0    0  0.00000000000E+00  0.00000000000E+00  0.74505805969E-08  0.10566000000E+00  0.10566000000E+00 0. -1.
     999900   -1    0    0    0    0 -0.00000000000E+00 -0.00000000000E+00 -0.74505805969E-08  0.93827000000E+00  0.93827000000E+00 0. -1.
     999902    2    1    2    0    0  0.10942980358E-01 -0.12795224945E-01 -0.16341815015E-01  0.10204668050E+01  0.10201970293E+01 0.  0.
     999903    2    3    3    0    0 -0.88563042053E-01  0.71535080966E-01 -0.59540155941E-01  0.12980461000E+00  0.18534464664E-01 0.  0.
         14    1    1    2    0    0 -0.10942980358E-01  0.12795224945E-01  0.16341815015E-01  0.23463194977E-01  0.00000000000E+00 0.  1.
     999901    1    3    3    0    0  0.99506022410E-01 -0.84330305911E-01  0.43198340926E-01  0.89066219503E+00  0.88000000000E+00 0.  1.
        -11    1    4    4    0    0 -0.28141955530E-01  0.12301977114E-01 -0.15023518757E-01  0.34194671205E-01  0.51100000000E-03 0.  1.
         11    1    4    4    0    0 -0.60421086523E-01  0.59233103852E-01 -0.44516637184E-01  0.95609938792E-01  0.51100000000E-03 0. -1.
</event>
<event>
 8    1  0.1030163E+005  0.1043930E+01  0.7957747E-01            NaN
         13   -1    0    0    0    0  0.00000000000E+00  0.00000000000E+00  0.74505805969E-08  0.10566000000E+00  0.10566000000E+00 0. -1.
     999900   -1    0    0    0    0 -0.00000000000E+00 -0.00000000000E+00 -0.74505805969E-08  0.93827000000E+00  0.93827000000E+00 0. -1.
     999902    2    1    2    0    0 -0.15248540350E-01  0.11338222081E-01  0.12244136281E-01  0.10213248648E+01  0.10210746728E+01 0.  0.
     999903    2    3    3    0    0 -0.80762614015E-01  0.27368937144E-01  0.10174952916E+00  0.13421703991E+00  0.19737998291E-01 0.  0.
         14    1    1    2    0    0  0.15248540350E-01 -0.11338222081E-01 -0.12244136281E-01  0.22605135169E-01  0.00000000000E+00 0.  1.
     999901    1    3    3    0    0  0.65514073665E-01 -0.16030715062E-01 -0.89505392877E-01  0.88710782492E+00  0.88000000000E+00 0. -1.
        -11    1    4    4    0    0 -0.30041874651E-01  0.20327660492E-01  0.44254273058E-01  0.57222633796E-01  0.51100000000E-03 0.  1.
         11    1    4    4    0    0 -0.50720739364E-01  0.70412766514E-02  0.57495256100E-01  0.76994406119E-01  0.51100000000E-03 0. -1.
</event>
<event>
 8    1  0.1030163E+005  0.1043930E+01  0.7957747E-01            NaN
         13   -1    0    0    0    0  0.00000000000E+00  0.00000000000E+00  0.74505805969E-08  0.10566000000E+00  0.10566000000E+00 0. -1.
     999900   -1    0    0    0    0 -0.00000000000E+00 -0.00000000000E+00 -0.74505805969E-08  0.93827000000E+00  0.93827000000E+00 0.  1.
     999902    2    1    2    0    0  0.12911451894E-01  0.18400962289E-01 -0.86756615852E-02  0.10198350190E+01  0.10195503411E+01 0.  0.
     999903    2    3    3    0    0 -0.48547232547E-01 -0.52797592068E-01 -0.10563664742E+00  0.12952729876E+00  0.21766954950E-01 0.  0.
         14    1    1    2    0    0 -0.12911451894E-01 -0.18400962289E-01  0.86756615852E-02  0.24094980952E-01  0.00000000000E+00 0. -1.
     999901    1    3    3    0    0  0.61458684441E-01  0.71198554356E-01  0.96960985839E-01  0.89030772029E+00  0.88000000000E+00 0. -1.
        -11    1    4    4    0    0 -0.83869362930E-02 -0.17618140658E-02 -0.55722316836E-02  0.10235017153E-01  0.51100000000E-03 0. -1.
         11    1    4    4    0    0 -0.40160296254E-01 -0.51035778002E-01 -0.10006441574E+00  0.11929228160E+00  0.51100000000E-03 0.  1.
</event>
<event>
 8    1  0.1030163E+005  0.1043930E+01  0.7957747E-01            NaN
         13   -1    0    0    0    0  0.00000000000E+00  0.00000000000E+00  0.74505805969E-08  0.10566000000E+00  0.10566000000E+00 0. -1.
     999900   -1    0    0    0    0 -0.00000000000E+00 -0.00000000000E+00 -0.74505805969E-08  0.93827000000E+00  0.93827000000E+00 0. -1.
     999902    2    1    2    0    0 -0.77256893927E-02 -0.71224522835E-03 -0.22115261817E-01  0.10204933113E+01  0.10202241519E+01 0.  0.
     999903    2    3    3    0    0  0.12628950395E+00 -0.22167789118E-01 -0.37614889924E-02  0.12989953561E+00  0.20476593191E-01 0.  0.
         14    1    1    2    0    0  0.77256893927E-02  0.71224522835E-03  0.22115261817E-01  0.23436688655E-01  0.00000000000E+00 0. -1.
     999901    1    3    3    0    0 -0.13401519334E+00  0.21455543889E-01 -0.18353772825E-01  0.89059377574E+00  0.88000000000E+00 0.  1.
        -11    1    4    4    0    0  0.38971998625E-01  0.16785014781E-03 -0.75038270811E-02  0.39691477579E-01  0.51100000000E-03 0. -1.
         11    1    4    4    0    0  0.87317505324E-01 -0.22335639266E-01  0.37423380887E-02  0.90208058026E-01  0.51100000000E-03 0.  1.
</event>
<event>
 8    1  0.1030163E+005  0.1043930E+01  0.7957747E-01            NaN
         13   -1    0    0    0    0  0.00000000000E+00  0.00000000000E+00  0.74505805969E-08  0.10566000000E+00  0.10566000000E+00 0.  1.
     999900   -1    0    0    0    0 -0.00000000000E+00 -0.00000000000E+00 -0.74505805969E-08  0.93827000000E+00  0.93827000000E+00 0.  1.
     999902    2    1    2    0    0 -0.24231132321E-01 -0.21063448386E-02 -0.80029742304E-03  0.10195943279E+01  0.10193038646E+01 0.  0.
     999903    2    3    3    0    0  0.24019096381E-01 -0.10865927392E+00 -0.63337565641E-01  0.12965471128E+00  0.20370128469E-01 0.  0.
         14    1    1    2    0    0  0.24231132321E-01  0.21063448386E-02  0.80029742304E-03  0.24335672131E-01  0.00000000000E+00 0. -1.
     999901    1    3    3    0    0 -0.48250228701E-01  0.10655292909E+00  0.62537268218E-01  0.88993961659E+00  0.88000000000E+00 0.  1.
        -11    1    4    4    0    0  0.17797061612E-01 -0.61513018009E-01 -0.46750996495E-01  0.79287474300E-01  0.51100000000E-03 0.  1.
         11    1    4    4    0    0  0.62220347683E-02 -0.47146255916E-01 -0.16586569146E-01  0.50367236976E-01  0.51100000000E-03 0. -1.
</event>
<event>
 8    1  0.1030163E+005  0.1043930E+01  0.7957747E-01            NaN
         13   -1    0    0    0    0  0.00000000000E+00  0.00000000000E+00  0.74505805969E-08  0.10566000000E+00  0.10566000000E+00 0. -1.
     999900   -1    0    0    0    0 -0.00000000000E+00 -0.00000000000E+00 -0.74505805969E-08  0.93827000000E+00  0.93827000000E+00 0.  1.
     999902    2    1    2    0    0  0.40637772919E-02 -0.17219177354E-01  0.15251247641E-01  0.10205715987E+01  0.10203042552E+01 0.  0.
     999903    2    3    3    0    0 -0.62029919334E-01 -0.68048415414E-01 -0.90035774647E-01  0.13038209912E+00  0.20365493416E-01 0.  0.
         14    1    1    2    0    0 -0.40637772919E-02  0.17219177354E-01 -0.15251247641E-01  0.23358401256E-01  0.00000000000E+00 0.  1.
     999901    1    3    3    0    0  0.66093696626E-01  0.50829238060E-01  0.10528702229E+00  0.89018949962E+00  0.88000000000E+00 0. -1.
        -11    1    4    4    0    0 -0.34596701798E-01 -0.23111101547E-01 -0.41684482772E-01  0.58897470362E-01  0.51100000000E-03 0.  1.
         11    1    4    4    0    0 -0.27433217536E-01 -0.44937313867E-01 -0.48351291875E-01  0.71484628760E-01  0.51100000000E-03 0. -1.
</event>
<event>
 8    1  0.1030163E+005  0.1043930E+01  0.7957747E-01            NaN
         13   -1    0    0    0    0  0.00000000000E+00  0.00000000000E+00  0.74505805969E-08  0.10566000000E+00  0.10566000000E+00 0.  1.
     999900   -1    0    0    0    0 -0.00000000000E+00 -0.00000000000E+00 -0.74505805969E-08  0.93827000000E+00  0.93827000000E+00 0. -1.
     999902    2    1    2    0    0 -0.62265705164E-02 -0.11058867564E-01  0.18601622176E-01  0.10214113615E+01  0.10211631017E+01 0.  0.
     999903    2    3    3    0    0  0.84145971404E-01 -0.95762051764E-01  0.30605400666E-01  0.13265609910E+00  0.20249321407E-01 0.  0.
         14    1    1    2    0    0  0.62265705164E-02  0.11058867564E-01 -0.18601622176E-01  0.22518638498E-01  0.00000000000E+00 0. -1.
     999901    1    3    3    0    0 -0.90372541921E-01  0.84703184199E-01 -0.12003778490E-01  0.88875526240E+00  0.88000000000E+00 0.  1.
        -11    1    4    4    0    0  0.13896380005E-01 -0.25404524976E-01  0.12536096938E-02  0.28988479173E-01  0.51100000000E-03 0.  1.
         11    1    4    4    0    0  0.70249591399E-01 -0.70357526788E-01  0.29351790972E-01  0.10366761993E+00  0.51100000000E-03 0. -1.
</event>
<event>
 8    1  0.1030163E+005  0.1043930E+01  0.7957747E-01            NaN
         13   -1    0    0    0    0  0.00000000000E+00  0.00000000000E+00  0.74505805969E-08  0.10566000000E+00  0.10566000000E+00 0.  1.
     999900   -1    0    0    0    0 -0.00000000000E+00 -0.00000000000E+00 -0.74505805969E-08  0.93827000000E+00  0.93827000000E+00 0.  1.
     999902    2    1    2    0    0 -0.84236685463E-02 -0.86446438177E-03 -0.20987193295E-01  0.10212988760E+01  0.10210481019E+01 0.  0.
     999903    2    3    3    0    0 -0.28374310076E-01  0.10636141979E+00  0.66312857682E-01  0.13027883290E+00  0.21385184482E-01 0.  0.
         14    1    1    2    0    0  0.84236685463E-02  0.86446438177E-03  0.20987193295E-01  0.22631123985E-01  0.00000000000E+00 0.  1.
     999901    1    3    3    0    0  0.19950641529E-01 -0.10722588417E+00 -0.87300050976E-01  0.89102004312E+00  0.88000000000E+00 0.  1.
        -11    1    4    4    0    0 -0.14141510870E-01  0.27364955752E-01  0.26696256839E-01  0.40764867021E-01  0.51100000000E-03 0. -1.
         11    1    4    4    0    0 -0.14232799206E-01  0.78996464039E-01  0.39616600842E-01  0.89513965878E-01  0.51100000000E-03 0.  1.
</event>
<event>
 8    1  0.1030163E+005  0.1043930E+01  0.7957747E-01            NaN
         13   -1    0    0    0    0  0.00000000000E+00  0.00000000000E+00  0.74505805969E-08  0.10566000000E+00  0.10566000000E+00 0.  1.
     999900   -1    0    0    0    0 -0.00000000000E+00 -0.00000000000E+00 -0.74505805969E-08  0.93827000000E+00  0.93827000000E+00 0.  1.
     999902    2    1    2    0    0  0.53291699637E-02  0.11909134486E-01 -0.21526916311E-01  0.10187578793E+01  0.10184468474E+01 0.  0.
     999903    2    3    3    0    0  0.78280495904E-01 -0.98222381731E-01 -0.21352430907E-01  0.12889784686E+00  0.19576933030E-01 0.  0.
         14    1    1    2    0    0 -0.53291699637E-02 -0.11909134486E-01  0.21526916311E-01  0.25172120741E-01  0.00000000000E+00 0.  1.
     999901    1    3    3    0    0 -0.72951325940E-01  0.11013151622E+00 -0.17448540399E-03  0.88986003240E+00  0.88000000000E+00 0. -1.
        -11    1    4    4    0    0  0.57769875826E-01 -0.64513859539E-01 -0.22297447804E-01  0.89425018452E-01  0.51100000000E-03 0.  1.
         11    1    4    4    0    0  0.20510620078E-01 -0.33708522193E-01  0.94501689685E-03  0.39472828406E-01  0.51100000000E-03 0. -1.
</event>
<event>
 8    1  0.1030163E+005  0.1043930E+01  0.7957747E-01            NaN
         13   -1    0    0    0    0  0.00000000000E+00  0.00000000000E+00  0.74505805969E-08  0.10566000000E+00  0.10566000000E+00 0. -1.
     999900   -1    0    0    0    0 -0.00000000000E+00 -0.00000000000E+00 -0.74505805969E-08  0.93827000000E+00  0.93827000000E+00 0. -1.
     999902    2    1    2    0    0  0.10139073252E-02 -0.33354604549E-02 -0.23159909537E-01  0.10205091820E+01  0.10202403912E+01 0.  0.
     999903    2    3    3    0    0  0.64127333865E-01 -0.10463333571E+00  0.38554985415E-01  0.13031072528E+00  0.20831426579E-01 0.  0.
         14    1    1    2    0    0 -0.10139073252E-02  0.33354604549E-02  0.23159909537E-01  0.23420817968E-01  0.00000000000E+00 0. -1.
     999901    1    3    3    0    0 -0.63113426539E-01  0.10129787525E+00 -0.61714894952E-01  0.89019845675E+00  0.88000000000E+00 0. -1.
        -11    1    4    4    0    0  0.41765404543E-01 -0.72644968046E-01  0.16261821567E-01  0.85360109892E-01  0.51100000000E-03 0.  1.
         11    1    4    4    0    0  0.22361929322E-01 -0.31988367662E-01  0.22293163848E-01  0.44950615391E-01  0.51100000000E-03 0. -1.
</event>
<event>
 8    1  0.1030163E+005  0.1043930E+01  0.7957747E-01            NaN
         13   -1    0    0    0    0  0.00000000000E+00  0.00000000000E+00  0.74505805969E-08  0.10566000000E+00  0.10566000000E+00 0.  1.
     999900   -1    0    0    0    0 -0.00000000000E+00 -0.00000000000E+00 -0.74505805969E-08  0.93827000000E+00  0.93827000000E+00 0. -1.
     999902    2    1    2    0    0 -0.10628932083E-01  0.20700043222E-01  0.54808313891E-02  0.10200238188E+01  0.10197436371E+01 0.  0.
     999903    2    3    3    0    0  0.81439948977E-01  0.83259448371E-01 -0.56782658293E-01  0.13082918309E+00  0.18094303897E-01 0.  0.
         14    1    1    2    0    0  0.10628932083E-01 -0.20700043222E-01 -0.54808313891E-02  0.23906181195E-01  0.00000000000E+00 0.  1.
     999901    1    3    3    0    0 -0.92068881060E-01 -0.62559405149E-01  0.62263489682E-01  0.88919463571E+00  0.88000000000E+00 0.  1.
        -11    1    4    4    0    0  0.30981287601E-01  0.19919344707E-01 -0.16083279393E-01  0.40193948201E-01  0.51100000000E-03 0. -1.
         11    1    4    4    0    0  0.50458661376E-01  0.63340103664E-01 -0.40699378899E-01  0.90635234891E-01  0.51100000000E-03 0.  1.
</event>
<event>
 8    1  0.1030163E+005  0.1043930E+01  0.7957747E-01            NaN
         13   -1    0    0    0    0  0.00000000000E+00  0.00000000000E+00  0.74505805969E-08  0.10566000000E+00  0.10566000000E+00 0. -1.
     999900   -1    0    0    0    0 -0.00000000000E+00 -0.00000000000E+00 -0.74505805969E-08  0.93827000000E+00  0.93827000000E+00 0.  1.
     999902    2    1    2    0    0  0.20837134865E-01  0.89039607615E-02  0.74706577116E-02  0.10200704645E+01  0.10197913881E+01 0.  0.
     999903    2    3    3    0    0  0.83257692217E-01 -0.67940650444E-02 -0.99051613876E-01  0.13131304636E+00  0.21304724813E-01 0.  0.
         14    1    1    2    0    0 -0.20837134865E-01 -0.89039607615E-02 -0.74706577116E-02  0.23859535479E-01  0.00000000000E+00 0.  1.
     999901    1    3    3    0    0 -0.62420557352E-01  0.15698025806E-01  0.10652227159E+00  0.88875741816E+00  0.88000000000E+00 0. -1.
        -11    1    4    4    0    0  0.33018153867E-01 -0.93415331497E-02 -0.28199173030E-01  0.44417532653E-01  0.51100000000E-03 0.  1.
         11    1    4    4    0    0  0.50239538350E-01  0.25474681052E-02 -0.70852440846E-01  0.86895513706E-01  0.51100000000E-03 0. -1.
</event>
<event>
 8    1  0.1030163E+005  0.1043930E+01  0.7957747E-01            NaN
         13   -1    0    0    0    0  0.00000000000E+00  0.00000000000E+00  0.74505805969E-08  0.10566000000E+00  0.10566000000E+00 0.  1.
     999900   -1    0    0    0    0 -0.00000000000E+00 -0.00000000000E+00 -0.74505805969E-08  0.93827000000E+00  0.93827000000E+00 0.  1.
     999902    2    1    2    0    0  0.20560714124E-01  0.53149833618E-02 -0.92030443637E-02  0.10207850645E+01  0.10205226406E+01 0.  0.
     999903    2    3    3    0    0  0.11387617571E-01 -0.62370700362E-01 -0.11396162678E+00  0.13194320114E+00  0.20049285573E-01 0.  0.
         14    1    1    2    0    0 -0.20560714124E-01 -0.53149833618E-02  0.92030443637E-02  0.23144935494E-01  0.00000000000E+00 0.  1.
     999901    1    3    3    0    0  0.91730965538E-02  0.67685683724E-01  0.10475858241E+00  0.88884186337E+00  0.88000000000E+00 0. -1.
        -11    1    4    4    0    0  0.13615487291E-01 -0.34638673952E-01 -0.51301019417E-01  0.63381976472E-01  0.51100000000E-03 0.  1.
         11    1    4    4    0    0 -0.22278697200E-02 -0.27732026410E-01 -0.62660607360E-01  0.68561224669E-01  0.51100000000E-03 0. -1.
</event>
<event>
 8    1  0.1030163E+005  0.1043930E+01  0.7957747E-01            NaN
         13   -1    0    0    0    0  0.00000000000E+00  0.00000000000E+00  0.74505805969E-08  0.10566000000E+00  0.10566000000E+00 0.  1.
     999900   -1    0    0    0    0 -0.00000000000E+00 -0.00000000000E+00 -0.74505805969E-08  0.93827000000E+00  0.93827000000E+00 0.  1.
     999902    2    1    2    0    0 -0.11308830341E-02 -0.94470625088E-02 -0.21571724062E-01  0.10203532071E+01  0.10200807821E+01 0.  0.
     999903    2    3    3    0    0 -0.54686237986E-01  0.51535097090E-01  0.10173861091E+00  0.12805704628E+00  0.20035251298E-01 0.  0.
         14    1    1    2    0    0  0.11308830341E-02  0.94470625088E-02  0.21571724062E-01  0.23576792944E-01  0.00000000000E+00 0.  1.
     999901    1    3    3    0    0  0.53555354951E-01 -0.60982159599E-01 -0.12331033497E+00  0.89229616078E+00  0.88000000000E+00 0.  1.
        -11    1    4    4    0    0 -0.48942008986E-01  0.46524532113E-01  0.99207016765E-01  0.12000893979E+00  0.51100000000E-03 0.  1.
         11    1    4    4    0    0 -0.57442289992E-02  0.50105649776E-02  0.25315941417E-02  0.80481064909E-02  0.51100000000E-03 0. -1.
</event>
<event>
 8    1  0.1030163E+005  0.1043930E+01  0.7957747E-01            NaN
         13   -1    0    0    0    0  0.00000000000E+00  0.00000000000E+00  0.74505805969E-08  0.10566000000E+00  0.10566000000E+00 0.  1.
     999900   -1    0    0    0    0 -0.00000000000E+00 -0.00000000000E+00 -0.74505805969E-08  0.93827000000E+00  0.93827000000E+00 0.  1.
     999902    2    1    2    0    0  0.48601195082E-02  0.36079571392E-01  0.30024589851E-02  0.10074009569E+01  0.10067384550E+01 0.  0.
     999903    2    3    3    0    0  0.25178400156E-01  0.15883974858E-01 -0.11380278025E+00  0.11922070568E+00  0.19397200273E-01 0.  0.
         14    1    1    2    0    0 -0.48601195082E-02 -0.36079571392E-01 -0.30024589851E-02  0.36529043149E-01  0.00000000000E+00 0.  1.
     999901    1    3    3    0    0 -0.20318280648E-01  0.20195596534E-01  0.11680523924E+00  0.88818025117E+00  0.88000000000E+00 0. -1.
        -11    1    4    4    0    0  0.30925894875E-02  0.12389383333E-01 -0.50148740479E-01  0.51751504536E-01  0.51100000000E-03 0. -1.
         11    1    4    4    0    0  0.22085810669E-01  0.34945915249E-02 -0.63654039776E-01  0.67469201149E-01  0.51100000000E-03 0.  1.
</event>
<event>
 8    1  0.1030163E+005  0.1043930E+01  0.7957747E-01            NaN
         13   -1    0    0    0    0  0.00000000000E+00  0.00000000000E+00  0.74505805969E-08  0.10566000000E+00  0.10566000000E+00 0.  1.
     999900   -1    0    0    0    0 -0.00000000000E+00 -0.00000000000E+00 -0.74505805969E-08  0.93827000000E+00  0.93827000000E+00 0. -1.
     999902    2    1    2    0    0  0.18842873619E-01  0.35609636826E-02 -0.13840965710E-01  0.10202803345E+01  0.10200062030E+01 0.  0.
     999903    2    3    3    0    0 -0.34546105411E-01  0.22459257457E-01  0.11995222070E+00  0.12836770122E+00  0.19795954716E-01 0.  0.
         14    1    1    2    0    0 -0.18842873619E-01 -0.35609636826E-02  0.13840965710E-01  0.23649665544E-01  0.00000000000E+00 0.  1.
     999901    1    3    3    0    0  0.53388979031E-01 -0.18898293775E-01 -0.13379318641E+00  0.89191263323E+00  0.88000000000E+00 0. -1.
        -11    1    4    4    0    0 -0.98044077339E-02  0.90282205122E-02  0.67805333751E-01  0.69104700150E-01  0.51100000000E-03 0. -1.
         11    1    4    4    0    0 -0.24741697678E-01  0.13431036945E-01  0.52146886944E-01  0.59263001075E-01  0.51100000000E-03 0.  1.
</event>
<event>
 8    1  0.1030163E+005  0.1043930E+01  0.7957747E-01            NaN
         13   -1    0    0    0    0  0.00000000000E+00  0.00000000000E+00  0.74505805969E-08  0.10566000000E+00  0.10566000000E+00 0.  1.
     999900   -1    0    0    0    0 -0.00000000000E+00 -0.00000000000E+00 -0.74505805969E-08  0.93827000000E+00  0.93827000000E+00 0.  1.
     999902    2    1    2    0    0  0.14899220360E-01  0.18169874423E-01 -0.47947369159E-02  0.10199483277E+01  0.10196663526E+01 0.  0.
     999903    2    3    3    0    0 -0.58472053091E-03  0.94334071520E-01  0.89446748576E-01  0.13151026294E+00  0.19873839062E-01 0.  0.
         14    1    1    2    0    0 -0.14899220360E-01 -0.18169874423E-01  0.47947369159E-02  0.23981672293E-01  0.00000000000E+00 0.  1.
     999901    1    3    3    0    0  0.15483940891E-01 -0.76164197097E-01 -0.94241485492E-01  0.88843806477E+00  0.88000000000E+00 0.  1.
        -11    1    4    4    0    0 -0.37353023846E-02  0.10351824724E-01  0.41692531682E-02  0.11779497103E-01  0.51100000000E-03 0.  1.
         11    1    4    4    0    0  0.31505818537E-02  0.83982246796E-01  0.85277495408E-01  0.11973076583E+00  0.51100000000E-03 0. -1.
</event>
<event>
 8    1  0.1030163E+005  0.1043930E+01  0.7957747E-01            NaN
         13   -1    0    0    0    0  0.00000000000E+00  0.00000000000E+00  0.74505805969E-08  0.10566000000E+00  0.10566000000E+00 0. -1.
     999900   -1    0    0    0    0 -0.00000000000E+00 -0.00000000000E+00 -0.74505805969E-08  0.93827000000E+00  0.93827000000E+00 0. -1.
     999902    2    1    2    0    0 -0.10623867533E-01  0.10164815279E-01 -0.19042066499E-01  0.10198719384E+01  0.10195881425E+01 0.  0.
     999903    2    3    3    0    0  0.76211029534E-01  0.99126312118E-01  0.29179589226E-01  0.12982712192E+00  0.19222028589E-01 0.  0.
         14    1    1    2    0    0  0.10623867533E-01 -0.10164815279E-01  0.19042066499E-01  0.24058061592E-01  0.00000000000E+00 0. -1.
     999901    1    3    3    0    0 -0.86834897067E-01 -0.88961496839E-01 -0.48221655724E-01  0.89004481648E+00  0.88000000000E+00 0. -1.
        -11    1    4    4    0    0  0.24099661517E-01  0.44345762346E-01  0.65059980889E-02  0.50891349514E-01  0.51100000000E-03 0. -1.
         11    1    4    4    0    0  0.52111368017E-01  0.54780549773E-01  0.22673591137E-01  0.78935772410E-01  0.51100000000E-03 0.  1.
</event>
<event>
 8    1  0.1030163E+005  0.1043930E+01  0.7957747E-01            NaN
         13   -1    0    0    0    0  0.00000000000E+00  0.00000000000E+00  0.74505805969E-08  0.10566000000E+00  0.10566000000E+00 0. -1.
     999900   -1    0    0    0    0 -0.00000000000E+00 -0.00000000000E+00 -0.74505805969E-08  0.93827000000E+00  0.93827000000E+00 0.  1.
     999902    2    1    2    0    0  0.22293824026E-01  0.36077941841E-02 -0.80962276641E-02  0.10199387585E+01  0.10196565556E+01 0.  0.
     999903    2    3    3    0    0  0.87127239428E-01 -0.96453810406E-01 -0.91967004494E-02  0.13189770788E+00  0.20443401190E-01 0.  0.
         14    1    1    2    0    0 -0.22293824026E-01 -0.36077941841E-02  0.80962276641E-02  0.23991241547E-01  0.00000000000E+00 0. -1.
     999901    1    3    3    0    0 -0.64833415402E-01  0.10006160459E+00  0.11004727853E-02  0.88804105057E+00  0.88000000000E+00 0.  1.
        -11    1    4    4    0    0  0.14999176571E-01 -0.83999328347E-02  0.28627882565E-02  0.17435333293E-01  0.51100000000E-03 0. -1.
         11    1    4    4    0    0  0.72128062856E-01 -0.88053877571E-01 -0.12059488706E-01  0.11446237458E+00  0.51100000000E-03 0.  1.
</event>
<event>
 8    1  0.1030163E+005  0.1043930E+01  0.7957747E-01            NaN
         13   -1    0    0    0    0  0.00000000000E+00  0.00000000000E+00  0.74505805969E-08  0.10566000000E+00  0.10566000000E+00 0. -1.
     999900   -1    0    0    0    0 -0.00000000000E+00 -0.00000000000E+00 -0.74505805969E-08  0.93827000000E+00  0.93827000000E+00 0. -1.
     999902    2    1    2    0    0 -0.61462907798E-02  0.76331475088E-02  0.20818868344E-01  0.10209198477E+01  0.10206605059E+01 0.  0.
     999903    2    3    3    0    0  0.12059350472E-02  0.94068177467E-01  0.92925542136E-01  0.13371950838E+00  0.19886534352E-01 0.  0.
         14    1    1    2    0    0  0.61462907798E-02 -0.76331475088E-02 -0.20818868344E-01  0.23010152332E-01  0.00000000000E+00 0.  1.
     999901    1    3    3    0    0 -0.73522258270E-02 -0.86435029958E-01 -0.72106673793E-01  0.88720033929E+00  0.88000000000E+00 0. -1.
        -11    1    4    4    0    0 -0.47150280504E-02  0.68448034316E-01  0.76263770666E-01  0.10258551910E+00  0.51100000000E-03 0.  1.
         11    1    4    4    0    0  0.59209630976E-02  0.25620143151E-01  0.16661771470E-01  0.31133989281E-01  0.51100000000E-03 0. -1.
</event>
<event>
 8    1  0.1030163E+005  0.1043930E+01  0.7957747E-01            NaN
         13   -1    0    0    0    0  0.00000000000E+00  0.00000000000E+00  0.74505805969E-08  0.10566000000E+00  0.10566000000E+00 0. -1.
     999900   -1    0    0    0    0 -0.00000000000E+00 -0.00000000000E+00 -0.74505805969E-08  0.93827000000E+00  0.93827000000E+00 0.  1.
     999902    2    1    2    0    0  0.11055805167E-01  0.16635531055E-01  0.12053513208E-01  0.10206006429E+01  0.10203339715E+01 0.  0.
     999903    2    3    3    0    0 -0.47016533806E-01  0.58712603039E-01  0.10726347691E+00  0.13256471249E+00  0.20254019626E-01 0.  0.
         14    1    1    2    0    0 -0.11055805167E-01 -0.16635531055E-01 -0.12053513208E-01  0.23329357086E-01  0.00000000000E+00 0.  1.
     999901    1    3    3    0    0  0.58072338973E-01 -0.42077071983E-01 -0.95209963703E-01  0.88803593043E+00  0.88000000000E+00 0.  1.
        -11    1    4    4    0    0 -0.10821468069E-02  0.11816142882E-01  0.12097231044E-01  0.16952769516E-01  0.51100000000E-03 0. -1.
         11    1    4    4    0    0 -0.45934386999E-01  0.46896460157E-01  0.95166245867E-01  0.11561194297E+00  0.51100000000E-03 0.  1.
</event>
<event>
 8    1  0.1030163E+005  0.1043930E+01  0.7957747E-01            NaN
         13   -1    0    0    0    0  0.00000000000E+00  0.00000000000E+00  0.74505805969E-08  0.10566000000E+00  0.10566000000E+00 0. -1.
     999900   -1    0    0    0    0 -0.00000000000E+00 -0.00000000000E+00 -0.74505805969E-08  0.93827000000E+00  0.93827000000E+00 0. -1.
     999902    2    1    2    0    0 -0.20858185553E-01  0.63567674941E-02 -0.10325825019E-02  0.10221002354E+01  0.10218670914E+01 0.  0.
     999903    2    3    3    0    0 -0.10917491088E+00 -0.44938818042E-01  0.60301655993E-01  0.13407266266E+00  0.20013261230E-01 0.  0.
         14    1    1    2    0    0  0.20858185553E-01 -0.63567674941E-02  0.10325825019E-02  0.21829764639E-01  0.00000000000E+00 0. -1.
     999901    1    3    3    0    0  0.88316725324E-01  0.51295585536E-01 -0.61334238495E-01  0.88802757270E+00  0.88000000000E+00 0. -1.
        -11    1    4    4    0    0 -0.43700894515E-01 -0.17845302331E-01  0.13311556344E-01  0.49047748674E-01  0.51100000000E-03 0.  1.
         11    1    4    4    0    0 -0.65474016362E-01 -0.27093515711E-01  0.46990099649E-01  0.85024913985E-01  0.51100000000E-03 0. -1.
</event>
<event>
 7    1  0.1030163E+005  0.1043930E+01  0.7957747E-01            NaN
         13   -1    0    0    0    0  0.00000000000E+00  0.00000000000E+00  0.74505805969E-08  0.10566000000E+00  0.10566000000E+00 0. -1.
     999900   -1    0    0    0    0 -0.00000000000E+00 -0.00000000000E+00 -0.74505805969E-08  0.93827000000E+00  0.93827000000E+00 0.  1.
     999903    2    1    2    0    0  0.16625970651E-01 -0.59780652468E-01  0.96751229989E-01  0.11527825064E+00  0.88388493277E-02 0.  0.
         14    1    1    2    0    0  0.34636581679E-01 -0.16855668739E-01 -0.84808254204E-02  0.39442752932E-01  0.00000000000E+00 0.  1.
     999901    1    1    2    0    0 -0.51262552330E-01  0.76636321207E-01 -0.88270404568E-01  0.88920899642E+00  0.88000000000E+00 0.  1.
        -11    1    3    3    0    0  0.41686692365E-02 -0.22360179841E-01  0.28715049983E-01  0.36635647425E-01  0.51100000000E-03 0.  1.
         11    1    3    3    0    0  0.12457301415E-01 -0.37420472627E-01  0.68036180006E-01  0.78642603219E-01  0.51100000000E-03 0. -1.
</event>
<event>
 8    1  0.1030163E+005  0.1043930E+01  0.7957747E-01            NaN
         13   -1    0    0    0    0  0.00000000000E+00  0.00000000000E+00  0.74505805969E-08  0.10566000000E+00  0.10566000000E+00 0. -1.
     999900   -1    0    0    0    0 -0.00000000000E+00 -0.00000000000E+00 -0.74505805969E-08  0.93827000000E+00  0.93827000000E+00 0.  1.
     999902    2    1    2    0    0 -0.25165857420E-02 -0.23342776748E-02  0.22214108831E-01  0.10214522624E+01  0.10212049137E+01 0.  0.
     999903    2    3    3    0    0 -0.11910327905E+00 -0.45978432414E-01  0.30813925722E-01  0.13264900738E+00  0.18618641531E-01 0.  0.
         14    1    1    2    0    0  0.25165857420E-02  0.23342776748E-02 -0.22214108831E-01  0.22477737591E-01  0.00000000000E+00 0.  1.
     999901    1    3    3    0    0  0.11658669331E+00  0.43644154740E-01 -0.85998168908E-02  0.88880325503E+00  0.88000000000E+00 0. -1.
        -11    1    4    4    0    0 -0.90472321942E-01 -0.34640063697E-01  0.15016756125E-01  0.98035397363E-01  0.51100000000E-03 0.  1.
         11    1    4    4    0    0 -0.28630957109E-01 -0.11338368717E-01  0.15797169597E-01  0.34613610017E-01  0.51100000000E-03 0. -1.
</event>
<event>
 8    1  0.1030163E+005  0.1043930E+01  0.7957747E-01            NaN
         13   -1    0    0    0    0  0.00000000000E+00  0.00000000000E+00  0.74505805969E-08  0.10566000000E+00  0.10566000000E+00 0. -1.
     999900   -1    0    0    0    0 -0.00000000000E+00 -0.00000000000E+00 -0.74505805969E-08  0.93827000000E+00  0.93827000000E+00 0.  1.
     999902    2    1    2    0    0  0.10070951486E-02  0.20958030089E-01  0.98616389242E-02  0.10207458419E+01  0.10204825175E+01 0.  0.
     999903    2    3    3    0    0 -0.93045695150E-01  0.76685130402E-01 -0.49851559465E-01  0.13197303449E+00  0.19839184498E-01 0.  0.
         14    1    1    2    0    0 -0.10070951486E-02 -0.20958030089E-01 -0.98616389242E-02  0.23184158129E-01  0.00000000000E+00 0.  1.
     999901    1    3    3    0    0  0.94052790298E-01 -0.55727100313E-01  0.59713198390E-01  0.88877280738E+00  0.88000000000E+00 0. -1.
        -11    1    4    4    0    0 -0.73372101818E-01  0.53313667327E-01 -0.44224720458E-01  0.10090539861E+00  0.51100000000E-03 0.  1.
         11    1    4    4    0    0 -0.19673593332E-01  0.23371463075E-01 -0.56268390073E-02  0.31067635879E-01  0.51100000000E-03 0. -1.
</event>
<event>
 8    1  0.1030163E+005  0.1043930E+01  0.7957747E-01            NaN
         13   -1    0    0    0    0  0.00000000000E+00  0.00000000000E+00  0.74505805969E-08  0.10566000000E+00  0.10566000000E+00 0.  1.
     999900   -1    0    0    0    0 -0.00000000000E+00 -0.00000000000E+00 -0.74505805969E-08  0.93827000000E+00  0.93827000000E+00 0.  1.
     999902    2    1    2    0    0  0.20165954029E-02  0.20612085469E-01 -0.10760010475E-01  0.10205911365E+01  0.10203242452E+01 0.  0.
     999903    2    3    3    0    0  0.82847087355E-01  0.99254441565E-01 -0.25305682355E-01  0.13327509067E+00  0.20168990565E-01 0.  0.
         14    1    1    2    0    0 -0.20165954029E-02 -0.20612085469E-01  0.10760010475E-01  0.23338863507E-01  0.00000000000E+00 0.  1.
     999901    1    3    3    0    0 -0.80830491952E-01 -0.78642356096E-01  0.14545671881E-01  0.88731604582E+00  0.88000000000E+00 0.  1.
        -11    1    4    4    0    0  0.19983656361E-01  0.26644963368E-01 -0.15479049189E-01  0.36730949882E-01  0.51100000000E-03 0.  1.
         11    1    4    4    0    0  0.62863430994E-01  0.72609478197E-01 -0.98266331664E-02  0.96544140789E-01  0.51100000000E-03 0. -1.
</event>
<event>
 8    1  0.1030163E+005  0.1043930E+01  0.7957747E-01            NaN
         13   -1    0    0    0    0  0.00000000000E+00  0.00000000000E+00  0.74505805969E-08  0.10566000000E+00  0.10566000000E+00 0. -1.
     999900   -1    0    0    0    0 -0.00000000000E+00 -0.00000000000E+00 -0.74505805969E-08  0.93827000000E+00  0.93827000000E+00 0. -1.
     999902    2    1    2    0    0 -0.14823868446E-01 -0.19419508854E-01 -0.26295878638E-02  0.10193580824E+01  0.10190618829E+01 0.  0.
     999903    2    3    3    0    0 -0.12652420557E+00  0.11254338921E-02 -0.30591319992E-01  0.13161886486E+00  0.19443650174E-01 0.  0.
         14    1    1    2    0    0  0.14823868446E-01  0.19419508854E-01  0.26295878638E-02  0.24571917552E-01  0.00000000000E+00 0. -1.
     999901    1    3    3    0    0  0.11170033712E+00 -0.20544942746E-01  0.27961732128E-01  0.88773921759E+00  0.88000000000E+00 0.  1.
        -11    1    4    4    0    0 -0.13212071533E-01  0.61657759514E-02 -0.34157529100E-02  0.14983461423E-01  0.51100000000E-03 0. -1.
         11    1    4    4    0    0 -0.11331213403E+00 -0.50403420593E-02 -0.27175567082E-01  0.11663540343E+00  0.51100000000E-03 0.  1.
</event>
<event>
 8    1  0.1030163E+005  0.1043930E+01  0.7957747E-01            NaN
         13   -1    0    0    0    0  0.00000000000E+00  0.00000000000E+00  0.74505805969E-08  0.10566000000E+00  0.10566000000E+00 0.  1.
     999900   -1    0    0    0    0 -0.00000000000E+00 -0.00000000000E+00 -0.74505805969E-08  0.93827000000E+00  0.93827000000E+00 0.  1.
     999902    2    1    2    0    0  0.17233444217E-01 -0.60027343829E-02 -0.95091373492E-02  0.10233521451E+01  0.10231452315E+01 0.  0.
     999903    2    3    3    0    0 -0.12112276438E+00 -0.31896078113E-01 -0.35868853258E-01  0.13177615824E+00  0.19755945812E-01 0.  0.
         14    1    1    2    0    0 -0.17233444217E-01  0.60027343829E-02  0.95091373492E-02  0.20577854912E-01  0.00000000000E+00 0.  1.
     999901    1    3    3    0    0  0.13835620860E+00  0.25893343730E-01  0.26359715909E-01  0.89157598685E+00  0.88000000000E+00 0. -1.
        -11    1    4    4    0    0 -0.40607788253E-01 -0.12642014192E-01 -0.27873429081E-02  0.42624445933E-01  0.51100000000E-03 0.  1.
         11    1    4    4    0    0 -0.80514976129E-01 -0.19254063920E-01 -0.33081510350E-01  0.89151712303E-01  0.51100000000E-03 0. -1.
</event>
<event>
 8    1  0.1030163E+005  0.1043930E+01  0.7957747E-01            NaN
         13   -1    0    0    0    0  0.00000000000E+00  0.00000000000E+00  0.74505805969E-08  0.10566000000E+00  0.10566000000E+00 0.  1.
     999900   -1    0    0    0    0 -0.00000000000E+00 -0.00000000000E+00 -0.74505805969E-08  0.93827000000E+00  0.93827000000E+00 0. -1.
     999902    2    1    2    0    0 -0.17963338384E-02 -0.23562263659E-01 -0.68536434033E-03  0.10202894245E+01  0.10200155063E+01 0.  0.
     999903    2    3    3    0    0  0.52807813988E-02  0.94474355915E-01  0.84362970440E-01  0.12831635971E+00  0.19866726221E-01 0.  0.
         14    1    1    2    0    0  0.17963338384E-02  0.23562263659E-01  0.68536434033E-03  0.23640575464E-01  0.00000000000E+00 0.  1.
     999901    1    3    3    0    0 -0.70771152372E-02 -0.11803661957E+00 -0.85048334780E-01  0.89197306482E+00  0.88000000000E+00 0. -1.
        -11    1    4    4    0    0  0.14677816116E-03  0.52817510293E-01  0.34277716419E-01  0.62967721106E-01  0.51100000000E-03 0.  1.
         11    1    4    4    0    0  0.51340032377E-02  0.41656845623E-01  0.50085254021E-01  0.65348638607E-01  0.51100000000E-03 0. -1.
</event>
<event>
 8    1  0.1030163E+005  0.1043930E+01  0.7957747E-01            NaN
         13   -1    0    0    0    0  0.00000000000E+00  0.00000000000E+00  0.74505805969E-08  0.10566000000E+00  0.10566000000E+00 0. -1.
     999900   -1    0    0    0    0 -0.00000000000E+00 -0.00000000000E+00 -0.74505805969E-08  0.93827000000E+00  0.93827000000E+00 0. -1.
     999902    2    1    2    0    0  0.25179855770E-01  0.77909482174E-02 -0.44434042381E-02  0.10172004685E+01  0.10168492147E+01 0.  0.
     999903    2    3    3    0    0  0.44008714009E-01 -0.93358600372E-01 -0.73930005835E-01  0.12848558463E+00  0.19756126224E-01 0.  0.
         14    1    1    2    0    0 -0.25179855770E-01 -0.77909482174E-02  0.44434042381E-02  0.26729531457E-01  0.00000000000E+00 0.  1.
     999901    1    3    3    0    0 -0.18828858239E-01  0.10114954859E+00  0.69486601597E-01  0.88871488391E+00  0.88000000000E+00 0.  1.
        -11    1    4    4    0    0  0.10769306275E-01 -0.78383710000E-02 -0.95986190482E-02  0.16425974133E-01  0.51100000000E-03 0.  1.
         11    1    4    4    0    0  0.33239407734E-01 -0.85520229372E-01 -0.64331386787E-01  0.11205961050E+00  0.51100000000E-03 0. -1.
</event>
<event>
 8    1  0.1030163E+005  0.1043930E+01  0.7957747E-01            NaN
         13   -1    0    0    0    0  0.00000000000E+00  0.00000000000E+00  0.74505805969E-08  0.10566000000E+00  0.10566000000E+00 0.  1.
     999900   -1    0    0    0    0 -0.00000000000E+00 -0.00000000000E+00 -0.74505805969E-08  0.93827000000E+00  0.93827000000E+00 0. -1.
     999902    2    1    2    0    0  0.14274757371E-01 -0.13821276373E-02 -0.17832872591E-01  0.10210457189E+01  0.10207892387E+01 0.  0.
     999903    2    3    3    0    0 -0.56268804658E-01  0.40283055476E-01  0.10652304167E+00  0.12853422039E+00  0.19621021073E-01 0.  0.
         14    1    1    2    0    0 -0.14274757371E-01  0.13821276373E-02  0.17832872591E-01  0.22884281061E-01  0.00000000000E+00 0.  1.
     999901    1    3    3    0    0  0.70543562030E-01 -0.41665183113E-01 -0.12435591427E+00  0.89251149855E+00  0.88000000000E+00 0. -1.
        -11    1    4    4    0    0 -0.10272355613E-01  0.17772110182E-01  0.34758638956E-01  0.40370698449E-01  0.51100000000E-03 0. -1.
         11    1    4    4    0    0 -0.45996449046E-01  0.22510945293E-01  0.71764402717E-01  0.88163521942E-01  0.51100000000E-03 0.  1.
</event>
<event>
 8    1  0.1030163E+005  0.1043930E+01  0.7957747E-01            NaN
         13   -1    0    0    0    0  0.00000000000E+00  0.00000000000E+00  0.74505805969E-08  0.10566000000E+00  0.10566000000E+00 0.  1.
     999900   -1    0    0    0    0 -0.00000000000E+00 -0.00000000000E+00 -0.74505805969E-08  0.93827000000E+00  0.93827000000E+00 0. -1.
     999902    2    1    2    0    0  0.16516850680E-01  0.18088238887E-02 -0.15712177049E-01  0.10210618845E+01  0.10208057706E+01 0.  0.
     999903    2    3    3    0    0 -0.10533170338E+00  0.70310219577E-01 -0.21689919902E-01  0.13000899898E+00  0.19839165228E-01 0.  0.
         14    1    1    2    0    0 -0.16516850680E-01 -0.18088238887E-02  0.15712177049E-01  0.22868115529E-01  0.00000000000E+00 0.  1.
     999901    1    3    3    0    0  0.12184855405E+00 -0.68501395688E-01  0.59777428529E-02  0.89105288549E+00  0.88000000000E+00 0.  1.
        -11    1    4    4    0    0 -0.45264459975E-01  0.22585408616E-01 -0.12142973115E-02  0.50603435241E-01  0.51100000000E-03 0. -1.
         11    1    4    4    0    0 -0.60067243400E-01  0.47724810961E-01 -0.20475622590E-01  0.79405563737E-01  0.51100000000E-03 0.  1.
</event>
<event>
 8    1  0.1030163E+005  0.1043930E+01  0.7957747E-01            NaN
         13   -1    0    0    0    0  0.00000000000E+00  0.00000000000E+00  0.74505805969E-08  0.10566000000E+00  0.10566000000E+00 0.  1.
     999900   -1    0    0    0    0 -0.00000000000E+00 -0.00000000000E+00 -0.74505805969E-08  0.93827000000E+00  0.93827000000E+00 0.  1.
     999902    2    1    2    0    0 -0.21834922164E-01  0.11666509978E-03  0.77497955178E-02  0.10207602618E+01  0.10204972687E+01 0.  0.
     999903    2    3    3    0    0  0.90165777197E-01 -0.10211721167E-02  0.91090286762E-01  0.12975460033E+00  0.20196677802E-01 0.  0.
         14    1    1    2    0    0  0.21834922164E-01 -0.11666509978E-03 -0.77497955178E-02  0.23169738178E-01  0.00000000000E+00 0. -1.
     999901    1    3    3    0    0 -0.11200069936E+00  0.11378372165E-02 -0.83340491244E-01  0.89100566149E+00  0.88000000000E+00 0.  1.
        -11    1    4    4    0    0  0.39669115018E-01  0.94377019540E-02  0.42457081471E-01  0.58869124272E-01  0.51100000000E-03 0. -1.
         11    1    4    4    0    0  0.50496662179E-01 -0.10458874071E-01  0.48633205292E-01  0.70885476058E-01  0.51100000000E-03 0.  1.
</event>
<event>
 8    1  0.1030163E+005  0.1043930E+01  0.7957747E-01            NaN
         13   -1    0    0    0    0  0.00000000000E+00  0.00000000000E+00  0.74505805969E-08  0.10566000000E+00  0.10566000000E+00 0.  1.
     999900   -1    0    0    0    0 -0.00000000000E+00 -0.00000000000E+00 -0.74505805969E-08  0.93827000000E+00  0.93827000000E+00 0. -1.
     999902    2    1    2    0    0 -0.21089731122E-01  0.13846720093E-01  0.22491859959E-02  0.10186008221E+01  0.10182858476E+01 0.  0.
     999903    2    3    3    0    0  0.11316580099E+00  0.54149157154E-01  0.97500873737E-02  0.12747507459E+00  0.20400997566E-01 0.  0.
         14    1    1    2    0    0  0.21089731122E-01 -0.13846720093E-01 -0.22491859959E-02  0.25329177913E-01  0.00000000000E+00 0. -1.
     999901    1    3    3    0    0 -0.13425553212E+00 -0.40302437061E-01 -0.75009013778E-02  0.89112574750E+00  0.88000000000E+00 0.  1.
        -11    1    4    4    0    0  0.80301575007E-01  0.46689114496E-01  0.20985862097E-02  0.92913301233E-01  0.51100000000E-03 0. -1.
         11    1    4    4    0    0  0.32864225987E-01  0.74600426586E-02  0.76515011640E-02  0.34561773353E-01  0.51100000000E-03 0.  1.
</event>
<event>
 7    1  0.1030163E+005  0.1043930E+01  0.7957747E-01            NaN
         13   -1    0    0    0    0  0.00000000000E+00  0.00000000000E+00  0.74505805969E-08  0.10566000000E+00  0.10566000000E+00 0. -1.
     999900   -1    0    0    0    0 -0.00000000000E+00 -0.00000000000E+00 -0.74505805969E-08  0.93827000000E+00  0.93827000000E+00 0.  1.
     999902    2    1    2    0    0  0.61208456045E-02 -0.84129082905E-02  0.20090403298E-01  0.10213055424E+01  0.10210549177E+01 0.  0.
         14    1    1    2    0    0 -0.61208456045E-02  0.84129082905E-02 -0.20090403298E-01  0.22624457596E-01  0.00000000000E+00 0.  1.
     999901    1    3    3    0    0  0.12542177784E+00  0.45059033658E-01  0.96061500082E-02  0.89008607280E+00  0.88000000000E+00 0.  1.
        -11    1    3    3    0    0 -0.30687312518E-01 -0.13184413688E-01  0.43105136308E-02  0.33680581388E-01  0.51100000000E-03 0.  1.
         11    1    3    3    0    0 -0.88613619715E-01 -0.40287528261E-01  0.61737396595E-02  0.97538888218E-01  0.51100000000E-03 0. -1.
</event>
<event>
 8    1  0.1030163E+005  0.1043930E+01  0.7957747E-01            NaN
         13   -1    0    0    0    0  0.00000000000E+00  0.00000000000E+00  0.74505805969E-08  0.10566000000E+00  0.10566000000E+00 0. -1.
     999900   -1    0    0    0    0 -0.00000000000E+00 -0.00000000000E+00 -0.74505805969E-08  0.93827000000E+00  0.93827000000E+00 0. -1.
     999902    2    1    2    0    0 -0.19891349897E-01 -0.12967754277E-01  0.53932796672E-02  0.10195801352E+01  0.10192893290E+01 0.  0.
     999903    2    3    3    0    0  0.11203257788E-01  0.75823579022E-01  0.10227498133E+00  0.12927859096E+00  0.19443614743E-01 0.  0.
         14    1    1    2    0    0  0.19891349897E-01  0.12967754277E-01 -0.53932796672E-02  0.24349864831E-01  0.00000000000E+00 0.  1.
     999901    1    3    3    0    0 -0.31094607685E-01 -0.88791333299E-01 -0.96881701666E-01  0.89030154420E+00  0.88000000000E+00 0. -1.
        -11    1    4    4    0    0 -0.46609718478E-02  0.68781659556E-02  0.10541450204E-01  0.13431943973E-01  0.51100000000E-03 0.  1.
         11    1    4    4    0    0  0.15864229636E-01  0.68945413066E-01  0.91733531129E-01  0.11584664699E+00  0.51100000000E-03 0. -1.
</event>
<event>
 8    1  0.1030163E+005  0.1043930E+01  0.7957747E-01            NaN
         13   -1    0    0    0    0  0.00000000000E+00  0.00000000000E+00  0.74505805969E-08  0.10566000000E+00  0.10566000000E+00 0.  1.
     999900   -1    0    0    0    0 -0.00000000000E+00 -0.00000000000E+00 -0.74505805969E-08  0.93827000000E+00  0.93827000000E+00 0. -1.
     999902    2    1    2    0    0 -0.15087219870E-01 -0.10479992613E-01 -0.13545988162E-01  0.10211057093E+01  0.10208505872E+01 0.  0.
     999903    2    3    3    0    0  0.12720481713E+00  0.76864669450E-02  0.10143486328E-01  0.12917620807E+00  0.18532542794E-01 0.  0.
         14    1    1    2    0    0  0.15087219870E-01  0.10479992613E-01  0.13545988162E-01  0.22824290654E-01  0.00000000000E+00 0.  1.
     999901    1    3    3    0    0 -0.14229203700E+00 -0.18166459558E-01 -0.23689474489E-01  0.89192950128E+00  0.88000000000E+00 0. -1.
        -11    1    4    4    0    0  0.88023530251E-01  0.12891370117E-01  0.10976958647E-01  0.89638630308E-01  0.51100000000E-03 0. -1.
         11    1    4    4    0    0  0.39181286874E-01 -0.52049031720E-02 -0.83347231971E-03  0.39537577762E-01  0.51100000000E-03 0.  1.
</event>
<event>
 8    1  0.1030163E+005  0.1043930E+01  0.7957747E-01            NaN
         13   -1    0    0    0    0  0.00000000000E+00  0.00000000000E+00  0.74505805969E-08  0.10566000000E+00  0.10566000000E+00 0. -1.
     999900   -1    0    0    0    0 -0.00000000000E+00 -0.00000000000E+00 -0.74505805969E-08  0.93827000000E+00  0.93827000000E+00 0. -1.
     999902    2    1    2    0    0 -0.16982044615E-02 -0.23047385339E-01 -0.45831168725E-02  0.10203700588E+01  0.10200980277E+01 0.  0.
     999903    2    3    3    0    0  0.23432347413E-01  0.11830449945E+00 -0.38129840061E-01  0.12810480529E+00  0.20295983322E-01 0.  0.
         14    1    1    2    0    0  0.16982044615E-02  0.23047385339E-01  0.45831168725E-02  0.23559941206E-01  0.00000000000E+00 0. -1.
     999901    1    3    3    0    0 -0.25130551874E-01 -0.14135188479E+00  0.33546723188E-01  0.89226525350E+00  0.88000000000E+00 0. -1.
        -11    1    4    4    0    0  0.16327684135E-01  0.37823121326E-01 -0.17168326293E-01  0.44634004131E-01  0.51100000000E-03 0.  1.
         11    1    4    4    0    0  0.71046632772E-02  0.80481378129E-01 -0.20961513768E-01  0.83470801160E-01  0.51100000000E-03 0. -1.
</event>
<event>
 8    1  0.1030163E+005  0.1043930E+01  0.7957747E-01            NaN
         13   -1    0    0    0    0  0.00000000000E+00  0.00000000000E+00  0.74505805969E-08  0.10566000000E+00  0.10566000000E+00 0. -1.
     999900   -1    0    0    0    0 -0.00000000000E+00 -0.00000000000E+00 -0.74505805969E-08  0.93827000000E+00  0.93827000000E+00 0.  1.
     999902    2    1    2    0    0  0.29684719677E-02 -0.73474937326E-02 -0.23149463176E-01  0.10194617525E+01  0.10191680773E+01 0.  0.
     999903    2    3    3    0    0  0.17276269055E-01  0.12353605193E+00 -0.29205963350E-01  0.12964609925E+00  0.19887110347E-01 0.  0.
         14    1    1    2    0    0 -0.29684719677E-02  0.73474937326E-02  0.23149463176E-01  0.24468247492E-01  0.00000000000E+00 0. -1.
     999901    1    3    3    0    0 -0.14307797088E-01 -0.13088354566E+00  0.60565001733E-02  0.88981565325E+00  0.88000000000E+00 0. -1.
        -11    1    4    4    0    0  0.18376027027E-01  0.73700875665E-01 -0.23273502640E-01  0.79444411315E-01  0.51100000000E-03 0.  1.
         11    1    4    4    0    0 -0.10997579712E-02  0.49835176264E-01 -0.59324607098E-02  0.50201687939E-01  0.51100000000E-03 0. -1.
</event>
<event>
 8    1  0.1042105E+005  0.1043930E+01  0.7957747E-01            NaN
         13   -1    0    0    0    0  0.00000000000E+00  0.00000000000E+00  0.74505805969E-08  0.10566000000E+00  0.10566000000E+00 0. -1.
     999900   -1    0    0    0    0 -0.00000000000E+00 -0.00000000000E+00 -0.74505805969E-08  0.93827000000E+00  0.93827000000E+00 0. -1.
     999902    2    1    2    0    0 -0.77516366844E-02 -0.20100533796E-01  0.10606735274E-01  0.10199170418E+01  0.10196343217E+01 0.  0.
     999903    2    3    3    0    0 -0.12626936595E+00  0.23459132506E-01 -0.14714912642E-01  0.13054362045E+00  0.18188581894E-01 0.  0.
         14    1    1    2    0    0  0.77516366844E-02  0.20100533796E-01 -0.10606735274E-01  0.24012958238E-01  0.00000000000E+00 0.  1.
     999901    1    3    3    0    0  0.11851772927E+00 -0.43559666301E-01  0.25321647916E-01  0.88937342131E+00  0.88000000000E+00 0.  1.
        -11    1    4    4    0    0 -0.67059388506E-01  0.20888719184E-01 -0.43292953486E-02  0.70372608984E-01  0.51100000000E-03 0. -1.
         11    1    4    4    0    0 -0.59209977444E-01  0.25704133215E-02 -0.10385617293E-01  0.60171011469E-01  0.51100000000E-03 0.  1.
</event>
<event>
 8    1  0.1030163E+005  0.1043930E+01  0.7957747E-01            NaN
         13   -1    0    0    0    0  0.00000000000E+00  0.00000000000E+00  0.74505805969E-08  0.10566000000E+00  0.10566000000E+00 0.  1.
     999900   -1    0    0    0    0 -0.00000000000E+00 -0.00000000000E+00 -0.74505805969E-08  0.93827000000E+00  0.93827000000E+00 0.  1.
     999902    2    1    2    0    0  0.15483178704E-01 -0.16932595017E-01 -0.51827301998E-02  0.10204076215E+01  0.10201364672E+01 0.  0.
     999903    2    3    3    0    0 -0.75092775406E-01 -0.64934421397E-01 -0.83074728222E-01  0.13103967621E+00  0.20361293469E-01 0.  0.
         14    1    1    2    0    0 -0.15483178704E-01  0.16932595017E-01  0.51827301998E-02  0.23522378475E-01  0.00000000000E+00 0.  1.
     999901    1    3    3    0    0  0.90575954110E-01  0.48001826381E-01  0.77891998022E-01  0.88936794532E+00  0.88000000000E+00 0. -1.
        -11    1    4    4    0    0 -0.40682703235E-01 -0.45841355067E-01 -0.57934523614E-01  0.84339684161E-01  0.51100000000E-03 0.  1.
         11    1    4    4    0    0 -0.34410072171E-01 -0.19093066330E-01 -0.25140204607E-01  0.46699992049E-01  0.51100000000E-03 0. -1.
</event>
<event>
 8    1  0.1030163E+005  0.1043930E+01  0.7957747E-01            NaN
         13   -1    0    0    0    0  0.00000000000E+00  0.00000000000E+00  0.74505805969E-08  0.10566000000E+00  0.10566000000E+00 0.  1.
     999900   -1    0    0    0    0 -0.00000000000E+00 -0.00000000000E+00 -0.74505805969E-08  0.93827000000E+00  0.93827000000E+00 0. -1.
     999902    2    1    2    0    0 -0.34327962066E-02 -0.98697022830E-02  0.21027563390E-01  0.10204490815E+01  0.10201788933E+01 0.  0.
     999903    2    3    3    0    0 -0.13397430174E-01 -0.91190780309E-01  0.94659585832E-01  0.13358151165E+00  0.19706179670E-01 0.  0.
         14    1    1    2    0    0  0.34327962066E-02  0.98697022830E-02 -0.21027563390E-01  0.23480918531E-01  0.00000000000E+00 0. -1.
     999901    1    3    3    0    0  0.99646339671E-02  0.81321078026E-01 -0.73632022442E-01  0.88686756982E+00  0.88000000000E+00 0.  1.
        -11    1    4    4    0    0 -0.75106281727E-02 -0.82302105445E-01  0.77058467789E-01  0.11299696755E+00  0.51100000000E-03 0.  1.
         11    1    4    4    0    0 -0.58868020010E-02 -0.88886748637E-02  0.17601118043E-01  0.20584544105E-01  0.51100000000E-03 0. -1.
</event>
<event>
 8    1  0.1030163E+005  0.1043930E+01  0.7957747E-01            NaN
         13   -1    0    0    0    0  0.00000000000E+00  0.00000000000E+00  0.74505805969E-08  0.10566000000E+00  0.10566000000E+00 0. -1.
     999900   -1    0    0    0    0 -0.00000000000E+00 -0.00000000000E+00 -0.74505805969E-08  0.93827000000E+00  0.93827000000E+00 0.  1.
     999902    2    1    2    0    0 -0.14688474711E-01  0.69917532207E-02 -0.17169166534E-01  0.10202780195E+01  0.10200038338E+01 0.  0.
     999903    2    3    3    0    0  0.28587804624E-01 -0.10342838559E+00 -0.71880605727E-01  0.13063832558E+00  0.19617775379E-01 0.  0.
         14    1    1    2    0    0  0.14688474711E-01 -0.69917532207E-02  0.17169166534E-01  0.23651980507E-01  0.00000000000E+00 0. -1.
     999901    1    3    3    0    0 -0.43276279335E-01  0.11042013881E+00  0.54711439193E-01  0.88963969391E+00  0.88000000000E+00 0. -1.
        -11    1    4    4    0    0  0.19357738487E-01 -0.48037021003E-01 -0.25129354635E-01  0.57567551724E-01  0.51100000000E-03 0. -1.
         11    1    4    4    0    0  0.92300661374E-02 -0.55391364590E-01 -0.46751251092E-01  0.73070773854E-01  0.51100000000E-03 0.  1.
</event>
<event>
 8    1  0.1030163E+005  0.1043930E+01  0.7957747E-01            NaN
         13   -1    0    0    0    0  0.00000000000E+00  0.00000000000E+00  0.74505805969E-08  0.10566000000E+00  0.10566000000E+00 0.  1.
     999900   -1    0    0    0    0 -0.00000000000E+00 -0.00000000000E+00 -0.74505805969E-08  0.93827000000E+00  0.93827000000E+00 0. -1.
     999902    2    1    2    0    0  0.10458038520E-02 -0.14714829328E-01  0.18543358392E-01  0.10202345142E+01  0.10199593070E+01 0.  0.
     999903    2    3    3    0    0 -0.10249824397E+00  0.73199380329E-01 -0.19277982513E-01  0.12901022595E+00  0.20197982421E-01 0.  0.
         14    1    1    2    0    0 -0.10458038520E-02  0.14714829328E-01 -0.18543358392E-01  0.23695485821E-01  0.00000000000E+00 0. -1.
     999901    1    3    3    0    0  0.10354404782E+00 -0.87914209657E-01  0.37821340905E-01  0.89122428823E+00  0.88000000000E+00 0.  1.
        -11    1    4    4    0    0 -0.68133050057E-01  0.53719872001E-01 -0.46709768671E-02  0.86890829803E-01  0.51100000000E-03 0. -1.
         11    1    4    4    0    0 -0.34365193908E-01  0.19479508327E-01 -0.14607005646E-01  0.42119396149E-01  0.51100000000E-03 0.  1.
</event>
<event>
 8    1  0.1183012E+005  0.1043930E+01  0.7957747E-01            NaN
         13   -1    0    0    0    0  0.00000000000E+00  0.00000000000E+00  0.74505805969E-08  0.10566000000E+00  0.10566000000E+00 0. -1.
     999900   -1    0    0    0    0 -0.00000000000E+00 -0.00000000000E+00 -0.74505805969E-08  0.93827000000E+00  0.93827000000E+00 0.  1.
     999902    2    1    2    0    0  0.15204551752E-02 -0.25036541171E-01 -0.68893692964E-02  0.10179183951E+01  0.10175859942E+01 0.  0.
     999903    2    3    3    0    0 -0.22494724182E-01 -0.63368073696E-02 -0.12570847121E+00  0.12941156464E+00  0.19964107379E-01 0.  0.
         14    1    1    2    0    0 -0.15204551752E-02  0.25036541171E-01  0.68893692964E-02  0.26011604854E-01  0.00000000000E+00 0. -1.
     999901    1    3    3    0    0  0.24015179357E-01 -0.18699733802E-01  0.11881910192E+00  0.88850683051E+00  0.88000000000E+00 0. -1.
        -11    1    4    4    0    0 -0.14035886273E-01  0.57446546785E-02 -0.78393442423E-01  0.79848607357E-01  0.51100000000E-03 0.  1.
         11    1    4    4    0    0 -0.84588379088E-02 -0.12081462048E-01 -0.47315028788E-01  0.49562957279E-01  0.51100000000E-03 0. -1.
</event>
<event>
 8    1  0.1030163E+005  0.1043930E+01  0.7957747E-01            NaN
         13   -1    0    0    0    0  0.00000000000E+00  0.00000000000E+00  0.74505805969E-08  0.10566000000E+00  0.10566000000E+00 0. -1.
     999900   -1    0    0    0    0 -0.00000000000E+00 -0.00000000000E+00 -0.74505805969E-08  0.93827000000E+00  0.93827000000E+00 0.  1.
     999902    2    1    2    0    0  0.28062936596E-02  0.10832554590E-01 -0.20778997482E-01  0.10203294437E+01  0.10200564628E+01 0.  0.
     999903    2    3    3    0    0 -0.56402056816E-01 -0.10245646140E+00  0.48929871001E-01  0.12836567968E+00  0.20127020348E-01 0.  0.
         14    1    1    2    0    0 -0.28062936596E-02 -0.10832554590E-01  0.20778997482E-01  0.23600556337E-01  0.00000000000E+00 0. -1.
     999901    1    3    3    0    0  0.59208350476E-01  0.11328901599E+00 -0.69708868483E-01  0.89196376398E+00  0.88000000000E+00 0. -1.
        -11    1    4    4    0    0 -0.20065775312E-01 -0.46452662996E-01  0.30591587593E-01  0.59131984499E-01  0.51100000000E-03 0.  1.
         11    1    4    4    0    0 -0.36336281505E-01 -0.56003798405E-01  0.18338283408E-01  0.69233695183E-01  0.51100000000E-03 0. -1.
</event>
<event>
 8    1  0.1030163E+005  0.1043930E+01  0.7957747E-01            NaN
         13   -1    0    0    0    0  0.00000000000E+00  0.00000000000E+00  0.74505805969E-08  0.10566000000E+00  0.10566000000E+00 0. -1.
     999900   -1    0    0    0    0 -0.00000000000E+00 -0.00000000000E+00 -0.74505805969E-08  0.93827000000E+00  0.93827000000E+00 0.  1.
     999902    2    1    2    0    0  0.97844351502E-02 -0.20010458461E-01 -0.67392068118E-02  0.10206583321E+01  0.10203929931E+01 0.  0.
     999903    2    3    3    0    0  0.13030416003E+00 -0.92329119864E-02 -0.75790282845E-02  0.13237804699E+00  0.20052054022E-01 0.  0.
         14    1    1    2    0    0 -0.97844351502E-02  0.20010458461E-01  0.67392068118E-02  0.23271667914E-01  0.00000000000E+00 0. -1.
     999901    1    3    3    0    0 -0.12051972488E+00 -0.10777546475E-01  0.83982147272E-03  0.88828028510E+00  0.88000000000E+00 0.  1.
        -11    1    4    4    0    0  0.93081849412E-01  0.98504061176E-03 -0.10426030736E-01  0.93670508875E-01  0.51100000000E-03 0.  1.
         11    1    4    4    0    0  0.37222310615E-01 -0.10217952598E-01  0.28470024512E-02  0.38707538113E-01  0.51100000000E-03 0. -1.
</event>
<event>
 8    1  0.1030163E+005  0.1043930E+01  0.7957747E-01            NaN
         13   -1    0    0    0    0  0.00000000000E+00  0.00000000000E+00  0.74505805969E-08  0.10566000000E+00  0.10566000000E+00 0. -1.
     999900   -1    0    0    0    0 -0.00000000000E+00 -0.00000000000E+00 -0.74505805969E-08  0.93827000000E+00  0.93827000000E+00 0. -1.
     999902    2    1    2    0    0  0.15391944250E-01  0.13048616635E-01 -0.13498076326E-01  0.10196529242E+01  0.10193638749E+01 0.  0.
     999903    2    3    3    0    0  0.15757338805E-01  0.11229614110E+00  0.62242221584E-01  0.13084090959E+00  0.19660428357E-01 0.  0.
         14    1    1    2    0    0 -0.15391944250E-01 -0.13048616635E-01  0.13498076326E-01  0.24277075779E-01  0.00000000000E+00 0. -1.
     999901    1    3    3    0    0 -0.36539455587E-03 -0.99247524462E-01 -0.75740297910E-01  0.88881201463E+00  0.88000000000E+00 0. -1.
        -11    1    4    4    0    0  0.18930861932E-01  0.92444075480E-01  0.56247024996E-01  0.10985569428E+00  0.51100000000E-03 0. -1.
         11    1    4    4    0    0 -0.31735231268E-02  0.19852065617E-01  0.59951965885E-02  0.20985215306E-01  0.51100000000E-03 0.  1.
</event>
<event>
 8    1  0.1030163E+005  0.1043930E+01  0.7957747E-01            NaN
         13   -1    0    0    0    0  0.00000000000E+00  0.00000000000E+00  0.74505805969E-08  0.10566000000E+00  0.10566000000E+00 0.  1.
     999900   -1    0    0    0    0 -0.00000000000E+00 -0.00000000000E+00 -0.74505805969E-08  0.93827000000E+00  0.93827000000E+00 0. -1.
     999902    2    1    2    0    0 -0.14821470701E-01 -0.13170587102E-02  0.17973063655E-01  0.10205967265E+01  0.10203299645E+01 0.  0.
     999903    2    3    3    0    0  0.32622656497E-01  0.45968453004E-01 -0.11343307280E+00  0.12832185988E+00  0.20545104766E-01 0.  0.
         14    1    1    2    0    0  0.14821470701E-01  0.13170587102E-02 -0.17973063655E-01  0.23333273549E-01  0.00000000000E+00 0. -1.
     999901    1    3    3    0    0 -0.47444127198E-01 -0.47285511714E-01  0.13140613645E+00  0.89227486657E+00  0.88000000000E+00 0.  1.
        -11    1    4    4    0    0  0.29197549082E-01  0.36945369029E-01 -0.73938763168E-01  0.87662186744E-01  0.51100000000E-03 0.  1.
         11    1    4    4    0    0  0.34251074157E-02  0.90230839750E-02 -0.39494309628E-01  0.40659673132E-01  0.51100000000E-03 0. -1.
</event>
<event>
 8    1  0.1030163E+005  0.1043930E+01  0.7957747E-01            NaN
         13   -1    0    0    0    0  0.00000000000E+00  0.00000000000E+00  0.74505805969E-08  0.10566000000E+00  0.10566000000E+00 0. -1.
     999900   -1    0    0    0    0 -0.00000000000E+00 -0.00000000000E+00 -0.74505805969E-08  0.93827000000E+00  0.93827000000E+00 0.  1.
     999902    2    1    2    0    0 -0.61375107948E-02  0.47163474397E-02 -0.23576236904E-01  0.10191156510E+01  0.10188135051E+01 0.  0.
     999903    2    3    3    0    0  0.86336728949E-01 -0.88859047679E-01 -0.30725690058E-01  0.12930727031E+00  0.20648026663E-01 0.  0.
         14    1    1    2    0    0  0.61375107948E-02 -0.47163474397E-02  0.23576236904E-01  0.24814349045E-01  0.00000000000E+00 0. -1.
     999901    1    3    3    0    0 -0.92474239744E-01  0.93575395119E-01  0.71494531540E-02  0.88980838065E+00  0.88000000000E+00 0. -1.
        -11    1    4    4    0    0  0.60253271517E-02 -0.15508110961E-01 -0.16949962687E-02  0.16731413754E-01  0.51100000000E-03 0. -1.
         11    1    4    4    0    0  0.80311401798E-01 -0.73350936718E-01 -0.29030693790E-01  0.11257585655E+00  0.51100000000E-03 0.  1.
</event>
<event>
 8    1  0.1030163E+005  0.1043930E+01  0.7957747E-01            NaN
         13   -1    0    0    0    0  0.00000000000E+00  0.00000000000E+00  0.74505805969E-08  0.10566000000E+00  0.10566000000E+00 0. -1.
     999900   -1    0    0    0    0 -0.00000000000E+00 -0.00000000000E+00 -0.74505805969E-08  0.93827000000E+00  0.93827000000E+00 0. -1.
     999902    2    1    2    0    0  0.21719118282E-01  0.91976341643E-02 -0.32340711402E-02  0.10201229466E+01  0.10198451110E+01 0.  0.
     999903    2    3    3    0    0 -0.90146250457E-01 -0.27990522532E-01  0.82891055302E-01  0.12809472001E+00  0.25050237947E-01 0.  0.
         14    1    1    2    0    0 -0.21719118282E-01 -0.91976341643E-02  0.32340711402E-02  0.23807053352E-01  0.00000000000E+00 0.  1.
     999901    1    3    3    0    0  0.11186536874E+00  0.37188156696E-01 -0.86125126442E-01  0.89202822664E+00  0.88000000000E+00 0. -1.
        -11    1    4    4    0    0 -0.12834349525E-01  0.14468412185E-02  0.33996999941E-02  0.13365364128E-01  0.51100000000E-03 0.  1.
         11    1    4    4    0    0 -0.77311900932E-01 -0.29437363750E-01  0.79491355308E-01  0.11472935588E+00  0.51100000000E-03 0. -1.
</event>
<event>
 8    1  0.1030163E+005  0.1043930E+01  0.7957747E-01            NaN
         13   -1    0    0    0    0  0.00000000000E+00  0.00000000000E+00  0.74505805969E-08  0.10566000000E+00  0.10566000000E+00 0.  1.
     999900   -1    0    0    0    0 -0.00000000000E+00 -0.00000000000E+00 -0.74505805969E-08  0.93827000000E+00  0.93827000000E+00 0. -1.
     999902    2    1    2    0    0  0.22325262471E-01  0.35617773869E-02 -0.45529905430E-02  0.10208684882E+01  0.10206079742E+01 0.  0.
     999903    2    3    3    0    0 -0.48052636983E-01 -0.11842739016E+00 -0.99579500096E-02  0.12965380067E+00  0.19412485597E-01 0.  0.
         14    1    1    2    0    0 -0.22325262471E-01 -0.35617773869E-02  0.45529905430E-02  0.23061511777E-01  0.00000000000E+00 0.  1.
     999901    1    3    3    0    0  0.70377899453E-01  0.12198916755E+00  0.54049594666E-02  0.89121468756E+00  0.88000000000E+00 0.  1.
        -11    1    4    4    0    0 -0.38573017961E-01 -0.95344004670E-01 -0.15696619296E-01  0.10404326946E+00  0.51100000000E-03 0. -1.
         11    1    4    4    0    0 -0.94796190217E-02 -0.23083385493E-01  0.57386692865E-02  0.25610531209E-01  0.51100000000E-03 0.  1.
</event>
<event>
 7    1  0.1372069E+005  0.1043930E+01  0.7957747E-01            NaN
         13   -1    0    0    0    0  0.00000000000E+00  0.00000000000E+00  0.74505805969E-08  0.10566000000E+00  0.10566000000E+00 0.  1.
     999900   -1    0    0    0    0 -0.00000000000E+00 -0.00000000000E+00 -0.74505805969E-08  0.93827000000E+00  0.93827000000E+00 0. -1.
     999903    2    1    2    0    0  0.14674970876E-01 -0.63737148201E-01 -0.81232445990E-01  0.10599307715E+00  0.18922031881E-01 0.  0.
         14    1    1    2    0    0 -0.51136541457E-01 -0.14430537744E-02  0.14570543728E-02  0.51177644376E-01  0.00000000000E+00 0.  1.
     999901    1    1    2    0    0  0.36461570581E-01  0.65180201975E-01  0.79775391617E-01  0.88675927848E+00  0.88000000000E+00 0.  1.
        -11    1    3    3    0    0  0.47902036758E-02 -0.53235511238E-01 -0.60475224549E-01  0.80712326278E-01  0.51100000000E-03 0.  1.
         11    1    3    3    0    0  0.98847672007E-02 -0.10501636963E-01 -0.20757221441E-01  0.25280750868E-01  0.51100000000E-03 0. -1.
</event>
<event>
 8    1  0.1030163E+005  0.1043930E+01  0.7957747E-01            NaN
         13   -1    0    0    0    0  0.00000000000E+00  0.00000000000E+00  0.74505805969E-08  0.10566000000E+00  0.10566000000E+00 0. -1.
     999900   -1    0    0    0    0 -0.00000000000E+00 -0.00000000000E+00 -0.74505805969E-08  0.93827000000E+00  0.93827000000E+00 0. -1.
     999902    2    1    2    0    0  0.16364894358E-03 -0.78637073029E-03 -0.27518154667E-01  0.10164001254E+01  0.10160272245E+01 0.  0.
     999903    2    3    3    0    0  0.70641626553E-02 -0.10881850207E+00 -0.64390258951E-01  0.12900049131E+00  0.24569341123E-01 0.  0.
         14    1    1    2    0    0 -0.16364894358E-03  0.78637073029E-03  0.27518154667E-01  0.27529874613E-01  0.00000000000E+00 0. -1.
     999901    1    3    3    0    0 -0.69005137117E-02  0.10803213134E+00  0.36872104284E-01  0.88739963408E+00  0.88000000000E+00 0.  1.
        -11    1    4    4    0    0  0.10181308985E-01 -0.95070766749E-01 -0.63672529078E-01  0.11487628921E+00  0.51100000000E-03 0.  1.
         11    1    4    4    0    0 -0.31171463292E-02 -0.13747735320E-01 -0.71772987296E-03  0.14124202095E-01  0.51100000000E-03 0. -1.
</event>
<event>
 8    1  0.1030163E+005  0.1043930E+01  0.7957747E-01            NaN
         13   -1    0    0    0    0  0.00000000000E+00  0.00000000000E+00  0.74505805969E-08  0.10566000000E+00  0.10566000000E+00 0.  1.
     999900   -1    0    0    0    0 -0.00000000000E+00 -0.00000000000E+00 -0.74505805969E-08  0.93827000000E+00  0.93827000000E+00 0.  1.
     999902    2    1    2    0    0  0.16676050215E-01  0.35137486317E-02 -0.16142092997E-01  0.10204565204E+01  0.10201865053E+01 0.  0.
     999903    2    3    3    0    0 -0.26744037618E-01  0.67165750546E-01  0.10472096510E+00  0.12885977284E+00  0.20294800564E-01 0.  0.
         14    1    1    2    0    0 -0.16676050215E-01 -0.35137486317E-02  0.16142092997E-01  0.23473479643E-01  0.00000000000E+00 0.  1.
     999901    1    3    3    0    0  0.43420087834E-01 -0.63652001915E-01 -0.12086305810E+00  0.89159674752E+00  0.88000000000E+00 0.  1.
        -11    1    4    4    0    0 -0.11519047250E-02  0.23638934668E-01  0.24489598903E-01  0.34060647266E-01  0.51100000000E-03 0.  1.
         11    1    4    4    0    0 -0.25592132893E-01  0.43526815878E-01  0.80231366195E-01  0.94799125571E-01  0.51100000000E-03 0. -1.
</event>
<event>
 8    1  0.1030163E+005  0.1043930E+01  0.7957747E-01            NaN
         13   -1    0    0    0    0  0.00000000000E+00  0.00000000000E+00  0.74505805969E-08  0.10566000000E+00  0.10566000000E+00 0.  1.
     999900   -1    0    0    0    0 -0.00000000000E+00 -0.00000000000E+00 -0.74505805969E-08  0.93827000000E+00  0.93827000000E+00 0.  1.
     999902    2    1    2    0    0 -0.57640532160E-02  0.19434066094E-01 -0.10382011493E-01  0.10211551587E+01  0.10209011532E+01 0.  0.
     999903    2    3    3    0    0 -0.18825063018E-01  0.59508991724E-01  0.11443446981E+00  0.13134858215E+00  0.16170932492E-01 0.  0.
         14    1    1    2    0    0  0.57640532160E-02 -0.19434066094E-01  0.10382011493E-01  0.22774841318E-01  0.00000000000E+00 0. -1.
     999901    1    3    3    0    0  0.13061009802E-01 -0.40074925630E-01 -0.12481648130E+00  0.88980657654E+00  0.88000000000E+00 0.  1.
        -11    1    4    4    0    0 -0.15939222950E-01  0.48172424049E-01  0.77776661077E-01  0.92866093900E-01  0.51100000000E-03 0. -1.
         11    1    4    4    0    0 -0.28858400685E-02  0.11336567675E-01  0.36657808733E-01  0.38482488246E-01  0.51100000000E-03 0.  1.
</event>
<event>
 8    1  0.1030163E+005  0.1043930E+01  0.7957747E-01            NaN
         13   -1    0    0    0    0  0.00000000000E+00  0.00000000000E+00  0.74505805969E-08  0.10566000000E+00  0.10566000000E+00 0.  1.
     999900   -1    0    0    0    0 -0.00000000000E+00 -0.00000000000E+00 -0.74505805969E-08  0.93827000000E+00  0.93827000000E+00 0.  1.
     999902    2    1    2    0    0  0.19830553847E-01  0.10768764976E-01 -0.72548608595E-02  0.10202266211E+01  0.10199512284E+01 0.  0.
     999903    2    3    3    0    0 -0.92792490748E-01  0.87266465374E-01  0.12217294116E-01  0.12954429100E+00  0.20163797688E-01 0.  0.
         14    1    1    2    0    0 -0.19830553847E-01 -0.10768764976E-01  0.72548608595E-02  0.23703378896E-01  0.00000000000E+00 0.  1.
     999901    1    3    3    0    0  0.11262304459E+00 -0.76497700398E-01 -0.19472154976E-01  0.89068233010E+00  0.88000000000E+00 0. -1.
        -11    1    4    4    0    0 -0.71878604092E-01  0.70492547741E-01  0.15604915571E-02  0.10068976745E+00  0.51100000000E-03 0.  1.
         11    1    4    4    0    0 -0.20913886656E-01  0.16773917632E-01  0.10656802559E-01  0.28854523555E-01  0.51100000000E-03 0. -1.
</event>
<event>
 8    1  0.1030163E+005  0.1043930E+01  0.7957747E-01            NaN
         13   -1    0    0    0    0  0.00000000000E+00  0.00000000000E+00  0.74505805969E-08  0.10566000000E+00  0.10566000000E+00 0. -1.
     999900   -1    0    0    0    0 -0.00000000000E+00 -0.00000000000E+00 -0.74505805969E-08  0.93827000000E+00  0.93827000000E+00 0.  1.
     999902    2    1    2    0    0  0.16262245739E-02  0.39912870545E-02  0.22726317111E-01  0.10207986259E+01  0.10205365129E+01 0.  0.
     999903    2    3    3    0    0  0.78581072113E-01 -0.54557772364E-01  0.90023144616E-01  0.13294790426E+00  0.20480313955E-01 0.  0.
         14    1    1    2    0    0 -0.16262245739E-02 -0.39912870545E-02 -0.22726317111E-01  0.23131374108E-01  0.00000000000E+00 0.  1.
     999901    1    3    3    0    0 -0.76954847539E-01  0.58549059418E-01 -0.67296827505E-01  0.88785072164E+00  0.88000000000E+00 0.  1.
        -11    1    4    4    0    0  0.38707032037E-01 -0.15129467224E-01  0.34240064953E-01  0.53849589382E-01  0.51100000000E-03 0.  1.
         11    1    4    4    0    0  0.39874040075E-01 -0.39428305140E-01  0.55783079662E-01  0.79098314873E-01  0.51100000000E-03 0. -1.
</event>
<event>
 8    1  0.1030163E+005  0.1043930E+01  0.7957747E-01            NaN
         13   -1    0    0    0    0  0.00000000000E+00  0.00000000000E+00  0.74505805969E-08  0.10566000000E+00  0.10566000000E+00 0.  1.
     999900   -1    0    0    0    0 -0.00000000000E+00 -0.00000000000E+00 -0.74505805969E-08  0.93827000000E+00  0.93827000000E+00 0.  1.
     999902    2    1    2    0    0 -0.22130654220E-01  0.12057150360E-02 -0.77328274150E-02  0.10204562652E+01  0.10201862443E+01 0.  0.
     999903    2    3    3    0    0  0.18317426021E-01 -0.10573994671E+00  0.69267928615E-01  0.12972480277E+00  0.22671878875E-01 0.  0.
         14    1    1    2    0    0  0.22130654220E-01 -0.12057150360E-02  0.77328274150E-02  0.23473734786E-01  0.00000000000E+00 0.  1.
     999901    1    3    3    0    0 -0.40448080241E-01  0.10694566175E+00 -0.77000756030E-01  0.89073146245E+00  0.88000000000E+00 0. -1.
        -11    1    4    4    0    0  0.19691609329E-01 -0.76424158354E-01  0.59330140799E-01  0.98735698642E-01  0.51100000000E-03 0. -1.
         11    1    4    4    0    0 -0.13741833080E-02 -0.29315788360E-01  0.99377878161E-02  0.30989104127E-01  0.51100000000E-03 0.  1.
</event>
<event>
 8    1  0.1183643E+005  0.1043930E+01  0.7957747E-01            NaN
         13   -1    0    0    0    0  0.00000000000E+00  0.00000000000E+00  0.74505805969E-08  0.10566000000E+00  0.10566000000E+00 0.  1.
     999900   -1    0    0    0    0 -0.00000000000E+00 -0.00000000000E+00 -0.74505805969E-08  0.93827000000E+00  0.93827000000E+00 0.  1.
     999902    2    1    2    0    0  0.15923317300E-01  0.16775679248E-01  0.68795245523E-02  0.10197990384E+01  0.10195134994E+01 0.  0.
     999903    2    3    3    0    0 -0.48834340273E-02 -0.85417061395E-01 -0.92833665780E-01  0.12804851420E+00  0.21410515684E-01 0.  0.
         14    1    1    2    0    0 -0.15923317300E-01 -0.16775679248E-01 -0.68795245523E-02  0.24130961567E-01  0.00000000000E+00 0.  1.
     999901    1    3    3    0    0  0.20806751327E-01  0.10219274064E+00  0.99713190332E-01  0.89175052423E+00  0.88000000000E+00 0. -1.
        -11    1    4    4    0    0  0.79097592408E-02 -0.34937781787E-01 -0.43004354761E-01  0.55971854863E-01  0.51100000000E-03 0.  1.
         11    1    4    4    0    0 -0.12793193268E-01 -0.50479279607E-01 -0.49829311019E-01  0.72076659338E-01  0.51100000000E-03 0. -1.
</event>
<event>
 8    1  0.1030163E+005  0.1043930E+01  0.7957747E-01            NaN
         13   -1    0    0    0    0  0.00000000000E+00  0.00000000000E+00  0.74505805969E-08  0.10566000000E+00  0.10566000000E+00 0.  1.
     999900   -1    0    0    0    0 -0.00000000000E+00 -0.00000000000E+00 -0.74505805969E-08  0.93827000000E+00  0.93827000000E+00 0. -1.
     999902    2    1    2    0    0 -0.82375605252E-02 -0.15545907427E-01 -0.15567221964E-01  0.10204380643E+01  0.10201676196E+01 0.  0.
     999903    2    3    3    0    0 -0.33952737671E-01  0.10804060871E+00 -0.61289813522E-01  0.13025524454E+00  0.19606783573E-01 0.  0.
         14    1    1    2    0    0  0.82375605252E-02  0.15545907427E-01  0.15567221964E-01  0.23491935655E-01  0.00000000000E+00 0.  1.
     999901    1    3    3    0    0  0.25715177146E-01 -0.12358651613E+00  0.45722591558E-01  0.89018281981E+00  0.88000000000E+00 0. -1.
        -11    1    4    4    0    0 -0.99602967381E-02  0.40018950856E-01 -0.32824903986E-01  0.52711093533E-01  0.51100000000E-03 0.  1.
         11    1    4    4    0    0 -0.23992440933E-01  0.68021657851E-01 -0.28464909536E-01  0.77544151002E-01  0.51100000000E-03 0. -1.
</event>
<event>
 8    1  0.1030163E+005  0.1043930E+01  0.7957747E-01            NaN
         13   -1    0    0    0    0  0.00000000000E+00  0.00000000000E+00  0.74505805969E-08  0.10566000000E+00  0.10566000000E+00 0.  1.
     999900   -1    0    0    0    0 -0.00000000000E+00 -0.00000000000E+00 -0.74505805969E-08  0.93827000000E+00  0.93827000000E+00 0. -1.
     999902    2    1    2    0    0 -0.14636609306E-01  0.16171180789E-01 -0.10798853662E-01  0.10195917038E+01  0.10193011772E+01 0.  0.
     999903    2    3    3    0    0  0.91325319638E-01  0.56540044848E-01 -0.71075168679E-01  0.13027128366E+00  0.19540651636E-01 0.  0.
         14    1    1    2    0    0  0.14636609306E-01 -0.16171180789E-01  0.10798853662E-01  0.24338296171E-01  0.00000000000E+00 0. -1.
     999901    1    3    3    0    0 -0.10596192894E+00 -0.40368864060E-01  0.60276315016E-01  0.88932042017E+00  0.88000000000E+00 0.  1.
        -11    1    4    4    0    0  0.45575026413E-01  0.17126215143E-01 -0.34444470298E-01  0.59641201638E-01  0.51100000000E-03 0. -1.
         11    1    4    4    0    0  0.45750293224E-01  0.39413829705E-01 -0.36630698380E-01  0.70630082026E-01  0.51100000000E-03 0.  1.
</event>
<event>
 8    1  0.1166048E+005  0.1043930E+01  0.7957747E-01            NaN
         13   -1    0    0    0    0  0.00000000000E+00  0.00000000000E+00  0.74505805969E-08  0.10566000000E+00  0.10566000000E+00 0.  1.
     999900   -1    0    0    0    0 -0.00000000000E+00 -0.00000000000E+00 -0.74505805969E-08  0.93827000000E+00  0.93827000000E+00 0. -1.
     999902    2    1    2    0    0 -0.19195534771E-01 -0.24649310881E-01  0.28768752920E-02  0.10125559105E+01  0.10120697300E+01 0.  0.
     999903    2    3    3    0    0 -0.55188809586E-01 -0.11046966895E+00 -0.21844970916E-01  0.12730350615E+00  0.21900398659E-01 0.  0.
         14    1    1    2    0    0  0.19195534771E-01  0.24649310881E-01 -0.28768752920E-02  0.31374089524E-01  0.00000000000E+00 0. -1.
     999901    1    3    3    0    0  0.35993274816E-01  0.85820358069E-01  0.24721846208E-01  0.88525240433E+00  0.88000000000E+00 0.  1.
        -11    1    4    4    0    0 -0.10684113745E-01 -0.43784569524E-01 -0.11043753931E-01  0.46405435423E-01  0.51100000000E-03 0. -1.
         11    1    4    4    0    0 -0.44504695842E-01 -0.66685099425E-01 -0.10801216985E-01  0.80898070723E-01  0.51100000000E-03 0.  1.
</event>
<event>
 8    1  0.1030163E+005  0.1043930E+01  0.7957747E-01            NaN
         13   -1    0    0    0    0  0.00000000000E+00  0.00000000000E+00  0.74505805969E-08  0.10566000000E+00  0.10566000000E+00 0.  1.
     999900   -1    0    0    0    0 -0.00000000000E+00 -0.00000000000E+00 -0.74505805969E-08  0.93827000000E+00  0.93827000000E+00 0.  1.
     999902    2    1    2    0    0 -0.15620248085E-01 -0.17300814024E-01  0.14413724182E-02  0.10205764591E+01  0.10203092282E+01 0.  0.
     999903    2    3    3    0    0 -0.67782119149E-01  0.24086522994E-01 -0.10798972332E+00  0.13130207113E+00  0.20096698124E-01 0.  0.
         14    1    1    2    0    0  0.15620248085E-01  0.17300814024E-01 -0.14413724182E-02  0.23353540857E-01  0.00000000000E+00 0.  1.
     999901    1    3    3    0    0  0.52161871064E-01 -0.41387337018E-01  0.10943109573E+00  0.88927438801E+00  0.88000000000E+00 0. -1.
        -11    1    4    4    0    0 -0.44076028097E-01  0.17098676781E-01 -0.86361419307E-01  0.98456167232E-01  0.51100000000E-03 0. -1.
         11    1    4    4    0    0 -0.23706091052E-01  0.69878462136E-02 -0.21628304009E-01  0.32845903900E-01  0.51100000000E-03 0.  1.
</event>
<event>
 8    1  0.1030163E+005  0.1043930E+01  0.7957747E-01            NaN
         13   -1    0    0    0    0  0.00000000000E+00  0.00000000000E+00  0.74505805969E-08  0.10566000000E+00  0.10566000000E+00 0.  1.
     999900   -1    0    0    0    0 -0.00000000000E+00 -0.00000000000E+00 -0.74505805969E-08  0.93827000000E+00  0.93827000000E+00 0.  1.
     999902    2    1    2    0    0 -0.36592258531E-02 -0.20153034757E-01  0.10535901376E-01  0.10208965469E+01  0.10206366736E+01 0.  0.
     999903    2    3    3    0    0 -0.40878963982E-01  0.11946090534E+00 -0.15408183933E-01  0.12873599143E+00  0.19837987704E-01 0.  0.
         14    1    1    2    0    0  0.36592258531E-02  0.20153034757E-01 -0.10535901376E-01  0.23033453097E-01  0.00000000000E+00 0.  1.
     999901    1    3    3    0    0  0.37219738129E-01 -0.13961394010E+00  0.25944085308E-01  0.89216055547E+00  0.88000000000E+00 0. -1.
        -11    1    4    4    0    0 -0.11997970589E-03  0.86235033876E-02  0.31412907440E-02  0.91928251557E-02  0.51100000000E-03 0.  1.
         11    1    4    4    0    0 -0.40758984276E-01  0.11083740196E+00 -0.18549474677E-01  0.11954316628E+00  0.51100000000E-03 0. -1.
</event>
<event>
 8    1  0.1030163E+005  0.1043930E+01  0.7957747E-01            NaN
         13   -1    0    0    0    0  0.00000000000E+00  0.00000000000E+00  0.74505805969E-08  0.10566000000E+00  0.10566000000E+00 0. -1.
     999900   -1    0    0    0    0 -0.00000000000E+00 -0.00000000000E+00 -0.74505805969E-08  0.93827000000E+00  0.93827000000E+00 0. -1.
     999902    2    1    2    0    0 -0.20665449886E-01  0.10024008789E-01 -0.43431980873E-02  0.10205546938E+01  0.10202869587E+01 0.  0.
     999903    2    3    3    0    0 -0.53612160487E-01  0.57216355079E-01  0.10423965243E+00  0.13201497114E+00  0.20348769607E-01 0.  0.
         14    1    1    2    0    0  0.20665449886E-01 -0.10024008789E-01  0.43431980873E-02  0.23375306218E-01  0.00000000000E+00 0.  1.
     999901    1    3    3    0    0  0.32946710602E-01 -0.47192346290E-01 -0.10858285052E+00  0.88853972264E+00  0.88000000000E+00 0. -1.
        -11    1    4    4    0    0 -0.50239495132E-01  0.44103724299E-01  0.92217688859E-01  0.11390131091E+00  0.51100000000E-03 0. -1.
         11    1    4    4    0    0 -0.33726653551E-02  0.13112630780E-01  0.12021963575E-01  0.18113660226E-01  0.51100000000E-03 0.  1.
</event>
<event>
 8    1  0.1030163E+005  0.1043930E+01  0.7957747E-01            NaN
         13   -1    0    0    0    0  0.00000000000E+00  0.00000000000E+00  0.74505805969E-08  0.10566000000E+00  0.10566000000E+00 0. -1.
     999900   -1    0    0    0    0 -0.00000000000E+00 -0.00000000000E+00 -0.74505805969E-08  0.93827000000E+00  0.93827000000E+00 0.  1.
     999902    2    1    2    0    0 -0.33205761583E-02 -0.15443505968E-01 -0.19862543352E-01  0.10185518848E+01  0.10182356767E+01 0.  0.
     999903    2    3    3    0    0  0.65877921978E-01 -0.29961657879E-01  0.10287973199E+00  0.12722429349E+00  0.19083502072E-01 0.  0.
         14    1    1    2    0    0  0.33205761583E-02  0.15443505968E-01  0.19862543352E-01  0.25378115198E-01  0.00000000000E+00 0. -1.
     999901    1    3    3    0    0 -0.69198498136E-01  0.14518151911E-01 -0.12274227535E+00  0.89132759131E+00  0.88000000000E+00 0.  1.
        -11    1    4    4    0    0  0.51425631075E-01 -0.28818600175E-01  0.91226356225E-01  0.10861683313E+00  0.51100000000E-03 0. -1.
         11    1    4    4    0    0  0.14452290903E-01 -0.11430577035E-02  0.11653375770E-01  0.18607460361E-01  0.51100000000E-03 0.  1.
</event>
<event>
 8    1  0.1030163E+005  0.1043930E+01  0.7957747E-01            NaN
         13   -1    0    0    0    0  0.00000000000E+00  0.00000000000E+00  0.74505805969E-08  0.10566000000E+00  0.10566000000E+00 0.  1.
     999900   -1    0    0    0    0 -0.00000000000E+00 -0.00000000000E+00 -0.74505805969E-08  0.93827000000E+00  0.93827000000E+00 0. -1.
     999902    2    1    2    0    0 -0.68923366855E-02  0.65777518229E-02 -0.21751902375E-01  0.10201830764E+01  0.10199066589E+01 0.  0.
     999903    2    3    3    0    0 -0.10018083279E+00  0.22370471849E-01 -0.82010400076E-01  0.13306231795E+00  0.21053205625E-01 0.  0.
         14    1    1    2    0    0  0.68923366855E-02 -0.65777518229E-02  0.21751902375E-01  0.23746923611E-01  0.00000000000E+00 0.  1.
     999901    1    3    3    0    0  0.93288496108E-01 -0.15792720026E-01  0.60258497701E-01  0.88712075844E+00  0.88000000000E+00 0.  1.
        -11    1    4    4    0    0 -0.50594773775E-01  0.41105264774E-02 -0.50142745459E-01  0.71353231212E-01  0.51100000000E-03 0.  1.
         11    1    4    4    0    0 -0.49586059018E-01  0.18259945372E-01 -0.31867654617E-01  0.61709086736E-01  0.51100000000E-03 0. -1.
</event>
<event>
 8    1  0.1030163E+005  0.1043930E+01  0.7957747E-01            NaN
         13   -1    0    0    0    0  0.00000000000E+00  0.00000000000E+00  0.74505805969E-08  0.10566000000E+00  0.10566000000E+00 0. -1.
     999900   -1    0    0    0    0 -0.00000000000E+00 -0.00000000000E+00 -0.74505805969E-08  0.93827000000E+00  0.93827000000E+00 0. -1.
     999902    2    1    2    0    0 -0.19494204161E-01  0.13600074565E-01 -0.79415249786E-03  0.10201473025E+01  0.10198700417E+01 0.  0.
     999903    2    3    3    0    0 -0.81082536738E-01  0.66360630627E-01 -0.79504185558E-01  0.13292012282E+00  0.19202407891E-01 0.  0.
         14    1    1    2    0    0  0.19494204161E-01 -0.13600074565E-01  0.79415249786E-03  0.23782697539E-01  0.00000000000E+00 0. -1.
     999901    1    3    3    0    0  0.61588332577E-01 -0.52760556062E-01  0.78710033060E-01  0.88722717964E+00  0.88000000000E+00 0. -1.
        -11    1    4    4    0    0 -0.49926012925E-01  0.47906986119E-01 -0.61036783849E-01  0.92268283766E-01  0.51100000000E-03 0. -1.
         11    1    4    4    0    0 -0.31156523813E-01  0.18453644508E-01 -0.18467401709E-01  0.40651839056E-01  0.51100000000E-03 0.  1.
</event>
<event>
 8    1  0.1030163E+005  0.1043930E+01  0.7957747E-01            NaN
         13   -1    0    0    0    0  0.00000000000E+00  0.00000000000E+00  0.74505805969E-08  0.10566000000E+00  0.10566000000E+00 0. -1.
     999900   -1    0    0    0    0 -0.00000000000E+00 -0.00000000000E+00 -0.74505805969E-08  0.93827000000E+00  0.93827000000E+00 0.  1.
     999902    2    1    2    0    0 -0.20456797236E-01  0.53408891339E-02  0.63485386884E-02  0.10218549101E+01  0.10216164387E+01 0.  0.
     999903    2    3    3    0    0  0.93343950330E-01  0.47133974025E-01 -0.74231331963E-01  0.12989617360E+00  0.20688661160E-01 0.  0.
         14    1    1    2    0    0  0.20456797236E-01 -0.53408891339E-02 -0.63485386884E-02  0.22075089884E-01  0.00000000000E+00 0.  1.
     999901    1    3    3    0    0 -0.11380074757E+00 -0.41793084892E-01  0.80579870651E-01  0.89195873652E+00  0.88000000000E+00 0. -1.
        -11    1    4    4    0    0  0.72582431746E-01  0.37675472059E-01 -0.46837915434E-01  0.94242782409E-01  0.51100000000E-03 0. -1.
         11    1    4    4    0    0  0.20761518584E-01  0.94585019667E-02 -0.27393416529E-01  0.35653391192E-01  0.51100000000E-03 0.  1.
</event>
<event>
 8    1  0.1030163E+005  0.1043930E+01  0.7957747E-01            NaN
         13   -1    0    0    0    0  0.00000000000E+00  0.00000000000E+00  0.74505805969E-08  0.10566000000E+00  0.10566000000E+00 0.  1.
     999900   -1    0    0    0    0 -0.00000000000E+00 -0.00000000000E+00 -0.74505805969E-08  0.93827000000E+00  0.93827000000E+00 0.  1.
     999902    2    1    2    0    0  0.14941998367E-01  0.10219423748E-01  0.15171359921E-01  0.10203107261E+01  0.10200373070E+01 0.  0.
     999903    2    3    3    0    0  0.31964619699E-01 -0.12407642196E+00  0.66714427786E-02  0.12991901883E+00  0.20438882208E-01 0.  0.
         14    1    1    2    0    0 -0.14941998367E-01 -0.10219423748E-01 -0.15171359921E-01  0.23619273884E-01  0.00000000000E+00 0. -1.
     999901    1    3    3    0    0 -0.17022621331E-01  0.13429584571E+00  0.84999171428E-02  0.89039170729E+00  0.88000000000E+00 0. -1.
        -11    1    4    4    0    0  0.11298998681E-01 -0.27174009421E-01 -0.59692910021E-02  0.30033110316E-01  0.51100000000E-03 0. -1.
         11    1    4    4    0    0  0.20665621018E-01 -0.96902412540E-01  0.12640733781E-01  0.99885908514E-01  0.51100000000E-03 0.  1.
</event>
<event>
 8    1  0.1030163E+005  0.1043930E+01  0.7957747E-01            NaN
         13   -1    0    0    0    0  0.00000000000E+00  0.00000000000E+00  0.74505805969E-08  0.10566000000E+00  0.10566000000E+00 0. -1.
     999900   -1    0    0    0    0 -0.00000000000E+00 -0.00000000000E+00 -0.74505805969E-08  0.93827000000E+00  0.93827000000E+00 0.  1.
     999902    2    1    2    0    0  0.11603701901E-01 -0.17409506445E-01  0.12205335740E-01  0.10197079639E+01  0.10194202395E+01 0.  0.
     999903    2    3    3    0    0 -0.13251791247E-01  0.62930680770E-01 -0.10820180204E+00  0.12753633240E+00  0.20542774006E-01 0.  0.
         14    1    1    2    0    0 -0.11603701901E-01  0.17409506445E-01 -0.12205335740E-01  0.24222036103E-01  0.00000000000E+00 0.  1.
     999901    1    3    3    0    0  0.24855493148E-01 -0.80340187215E-01  0.12040713778E+00  0.89217163150E+00  0.88000000000E+00 0. -1.
        -11    1    4    4    0    0  0.47252926827E-02  0.82537264592E-02 -0.20896853334E-01  0.22965016692E-01  0.51100000000E-03 0.  1.
         11    1    4    4    0    0 -0.17977083929E-01  0.54676954311E-01 -0.87304948706E-01  0.10457131571E+00  0.51100000000E-03 0. -1.
</event>
<event>
 8    1  0.1030163E+005  0.1043930E+01  0.7957747E-01            NaN
         13   -1    0    0    0    0  0.00000000000E+00  0.00000000000E+00  0.74505805969E-08  0.10566000000E+00  0.10566000000E+00 0.  1.
     999900   -1    0    0    0    0 -0.00000000000E+00 -0.00000000000E+00 -0.74505805969E-08  0.93827000000E+00  0.93827000000E+00 0.  1.
     999902    2    1    2    0    0  0.90648365776E-02  0.16617608086E-01 -0.13758831086E-01  0.10205286839E+01  0.10202603458E+01 0.  0.
     999903    2    3    3    0    0  0.97695951442E-01  0.65285404887E-01  0.56227455297E-01  0.13197811742E+00  0.21213527053E-01 0.  0.
         14    1    1    2    0    0 -0.90648365776E-02 -0.16617608086E-01  0.13758831086E-01  0.23401316064E-01  0.00000000000E+00 0.  1.
     999901    1    3    3    0    0 -0.88631114864E-01 -0.48667796800E-01 -0.69986286384E-01  0.88855056651E+00  0.88000000000E+00 0. -1.
        -11    1    4    4    0    0  0.81464880780E-01  0.55485982910E-01  0.37897795397E-01  0.10560172876E+00  0.51100000000E-03 0. -1.
         11    1    4    4    0    0  0.16231070662E-01  0.97994219772E-02  0.18329659900E-01  0.26376388664E-01  0.51100000000E-03 0.  1.
</event>
<event>
 8    1  0.1030163E+005  0.1043930E+01  0.7957747E-01            NaN
         13   -1    0    0    0    0  0.00000000000E+00  0.00000000000E+00  0.74505805969E-08  0.10566000000E+00  0.10566000000E+00 0. -1.
     999900   -1    0    0    0    0 -0.00000000000E+00 -0.00000000000E+00 -0.74505805969E-08  0.93827000000E+00  0.93827000000E+00 0. -1.
     999902    2    1    2    0    0  0.10782788142E-01  0.13917260451E-03  0.21371901385E-01  0.10199916196E+01  0.10197106736E+01 0.  0.
     999903    2    3    3    0    0  0.22436844965E-01 -0.12456379034E+00  0.27289143631E-01  0.13110374150E+00  0.20589895580E-01 0.  0.
         14    1    1    2    0    0 -0.10782788142E-01 -0.13917260451E-03 -0.21371901385E-01  0.23938380437E-01  0.00000000000E+00 0.  1.
     999901    1    3    3    0    0 -0.11654056823E-01  0.12470296294E+00 -0.59172422460E-02  0.88888787806E+00  0.88000000000E+00 0. -1.
        -11    1    4    4    0    0  0.11007828761E-01 -0.21535264196E-01  0.12584880842E-02  0.24223641577E-01  0.51100000000E-03 0.  1.
         11    1    4    4    0    0  0.11429016205E-01 -0.10302852614E+00  0.26030655547E-01  0.10688009993E+00  0.51100000000E-03 0. -1.
</event>
<event>
 8    1  0.1030163E+005  0.1043930E+01  0.7957747E-01            NaN
         13   -1    0    0    0    0  0.00000000000E+00  0.00000000000E+00  0.74505805969E-08  0.10566000000E+00  0.10566000000E+00 0. -1.
     999900   -1    0    0    0    0 -0.00000000000E+00 -0.00000000000E+00 -0.74505805969E-08  0.93827000000E+00  0.93827000000E+00 0.  1.
     999902    2    1    2    0    0  0.38814204494E-02 -0.23220609330E-01 -0.31185479376E-02  0.10201815798E+01  0.10199051271E+01 0.  0.
     999903    2    3    3    0    0  0.58556744091E-01  0.53550157024E-01  0.99686527639E-01  0.12919783965E+00  0.21404821472E-01 0.  0.
         14    1    1    2    0    0 -0.38814204494E-02  0.23220609330E-01  0.31185479376E-02  0.23748420234E-01  0.00000000000E+00 0.  1.
     999901    1    3    3    0    0 -0.54675323641E-01 -0.76770766355E-01 -0.10280507558E+00  0.89098374011E+00  0.88000000000E+00 0.  1.
        -11    1    4    4    0    0  0.43078848115E-01  0.35573847576E-01  0.53918240789E-01  0.77644855574E-01  0.51100000000E-03 0.  1.
         11    1    4    4    0    0  0.15477895976E-01  0.17976309448E-01  0.45768286850E-01  0.51552984079E-01  0.51100000000E-03 0. -1.
</event>
<event>
 8    1  0.1030163E+005  0.1043930E+01  0.7957747E-01            NaN
         13   -1    0    0    0    0  0.00000000000E+00  0.00000000000E+00  0.74505805969E-08  0.10566000000E+00  0.10566000000E+00 0. -1.
     999900   -1    0    0    0    0 -0.00000000000E+00 -0.00000000000E+00 -0.74505805969E-08  0.93827000000E+00  0.93827000000E+00 0. -1.
     999902    2    1    2    0    0 -0.30370449864E-02 -0.98722395628E-02 -0.20982178181E-01  0.10205433252E+01  0.10202753266E+01 0.  0.
     999903    2    3    3    0    0  0.93607633225E-02  0.12634918761E+00  0.12512801590E-01  0.12934643533E+00  0.22851455749E-01 0.  0.
         14    1    1    2    0    0  0.30370449864E-02  0.98722395628E-02  0.20982178181E-01  0.23386674784E-01  0.00000000000E+00 0. -1.
     999901    1    3    3    0    0 -0.12397808309E-01 -0.13622142717E+00 -0.33494979771E-01  0.89119688989E+00  0.88000000000E+00 0. -1.
        -11    1    4    4    0    0  0.17012705521E-01  0.86453404202E-01  0.87602494267E-02  0.88547311299E-01  0.51100000000E-03 0.  1.
         11    1    4    4    0    0 -0.76519421986E-02  0.39895783407E-01  0.37525521634E-02  0.40799124032E-01  0.51100000000E-03 0. -1.
</event>
<event>
 8    1  0.1030163E+005  0.1043930E+01  0.7957747E-01            NaN
         13   -1    0    0    0    0  0.00000000000E+00  0.00000000000E+00  0.74505805969E-08  0.10566000000E+00  0.10566000000E+00 0.  1.
     999900   -1    0    0    0    0 -0.00000000000E+00 -0.00000000000E+00 -0.74505805969E-08  0.93827000000E+00  0.93827000000E+00 0. -1.
     999902    2    1    2    0    0  0.23117880111E-02 -0.13209409585E-01  0.19026862730E-01  0.10206522344E+01  0.10203867547E+01 0.  0.
     999903    2    3    3    0    0  0.89547149432E-01  0.33904666815E-01 -0.84185873172E-01  0.12909033901E+00  0.20219692912E-01 0.  0.
         14    1    1    2    0    0 -0.23117880111E-02  0.13209409585E-01 -0.19026862730E-01  0.23277765587E-01  0.00000000000E+00 0. -1.
     999901    1    3    3    0    0 -0.87235361421E-01 -0.47114076399E-01  0.10321273590E+00  0.89156189540E+00  0.88000000000E+00 0.  1.
        -11    1    4    4    0    0  0.63089653432E-01  0.31203400435E-01 -0.53050355824E-01  0.88139423318E-01  0.51100000000E-03 0. -1.
         11    1    4    4    0    0  0.26457496000E-01  0.27012663794E-02 -0.31135517349E-01  0.40950915694E-01  0.51100000000E-03 0.  1.
</event>
<event>
 8    1  0.1030163E+005  0.1043930E+01  0.7957747E-01            NaN
         13   -1    0    0    0    0  0.00000000000E+00  0.00000000000E+00  0.74505805969E-08  0.10566000000E+00  0.10566000000E+00 0.  1.
     999900   -1    0    0    0    0 -0.00000000000E+00 -0.00000000000E+00 -0.74505805969E-08  0.93827000000E+00  0.93827000000E+00 0. -1.
     999902    2    1    2    0    0 -0.11285911854E-01  0.41366839273E-02  0.28526542901E-01  0.10129744252E+01  0.10125013277E+01 0.  0.
     999903    2    3    3    0    0 -0.94800684646E-01  0.12649752958E-01  0.81795999198E-01  0.12737585668E+00  0.19668180423E-01 0.  0.
         14    1    1    2    0    0  0.11285911854E-01 -0.41366839273E-02 -0.28526542901E-01  0.30955574783E-01  0.00000000000E+00 0. -1.
     999901    1    3    3    0    0  0.83514772791E-01 -0.85130690308E-02 -0.53269456297E-01  0.88559856854E+00  0.88000000000E+00 0. -1.
        -11    1    4    4    0    0 -0.64050426002E-01  0.17629593100E-01  0.57621817626E-01  0.87941995721E-01  0.51100000000E-03 0. -1.
         11    1    4    4    0    0 -0.30750258644E-01 -0.49798401420E-02  0.24174181572E-01  0.39433860960E-01  0.51100000000E-03 0.  1.
</event>
<event>
 8    1  0.1030163E+005  0.1043930E+01  0.7957747E-01            NaN
         13   -1    0    0    0    0  0.00000000000E+00  0.00000000000E+00  0.74505805969E-08  0.10566000000E+00  0.10566000000E+00 0. -1.
     999900   -1    0    0    0    0 -0.00000000000E+00 -0.00000000000E+00 -0.74505805969E-08  0.93827000000E+00  0.93827000000E+00 0. -1.
     999902    2    1    2    0    0  0.21807145567E-01  0.93982165983E-02 -0.57879242349E-03  0.10201768302E+01  0.10199002657E+01 0.  0.
     999903    2    3    3    0    0  0.12637774333E+00 -0.34718980014E-01 -0.91659283939E-02  0.13284652204E+00  0.19683561478E-01 0.  0.
         14    1    1    2    0    0 -0.21807145567E-01 -0.93982165983E-02  0.57879242349E-03  0.23753169760E-01  0.00000000000E+00 0.  1.
     999901    1    3    3    0    0 -0.10457059776E+00  0.44117196613E-01  0.85871359704E-02  0.88733030820E+00  0.88000000000E+00 0.  1.
        -11    1    4    4    0    0  0.32565384756E-01 -0.24746098454E-02  0.34593133730E-02  0.32845942645E-01  0.51100000000E-03 0. -1.
         11    1    4    4    0    0  0.93812358569E-01 -0.32244370169E-01 -0.12625241767E-01  0.10000057939E+00  0.51100000000E-03 0.  1.
</event>
<event>
 8    1  0.1030163E+005  0.1043930E+01  0.7957747E-01            NaN
         13   -1    0    0    0    0  0.00000000000E+00  0.00000000000E+00  0.74505805969E-08  0.10566000000E+00  0.10566000000E+00 0. -1.
     999900   -1    0    0    0    0 -0.00000000000E+00 -0.00000000000E+00 -0.74505805969E-08  0.93827000000E+00  0.93827000000E+00 0. -1.
     999902    2    1    2    0    0  0.18089729194E-01  0.17785170810E-01  0.56788588114E-03  0.10185553454E+01  0.10182392246E+01 0.  0.
     999903    2    3    3    0    0 -0.11027775708E+00  0.50520649584E-01 -0.35716764377E-01  0.12790030612E+00  0.19216693417E-01 0.  0.
         14    1    1    2    0    0 -0.18089729194E-01 -0.17785170810E-01 -0.56788588114E-03  0.25374654627E-01  0.00000000000E+00 0.  1.
     999901    1    3    3    0    0  0.12836748628E+00 -0.32735478774E-01  0.36284650259E-01  0.89065503925E+00  0.88000000000E+00 0. -1.
        -11    1    4    4    0    0 -0.75774738954E-02  0.51110099090E-02  0.21344081984E-02  0.93998591629E-02  0.51100000000E-03 0.  1.
         11    1    4    4    0    0 -0.10270028319E+00  0.45409639675E-01 -0.37851172576E-01  0.11850044696E+00  0.51100000000E-03 0. -1.
</event>
<event>
 8    1  0.1030163E+005  0.1043930E+01  0.7957747E-01            NaN
         13   -1    0    0    0    0  0.00000000000E+00  0.00000000000E+00  0.74505805969E-08  0.10566000000E+00  0.10566000000E+00 0. -1.
     999900   -1    0    0    0    0 -0.00000000000E+00 -0.00000000000E+00 -0.74505805969E-08  0.93827000000E+00  0.93827000000E+00 0. -1.
     999902    2    1    2    0    0 -0.15374500812E-01 -0.28099419680E-02  0.97934894385E-02  0.10254859363E+01  0.10253200584E+01 0.  0.
     999903    2    3    3    0    0 -0.81738814105E-01 -0.19593738593E-02  0.10874063048E+00  0.13745694905E+00  0.19616708326E-01 0.  0.
         14    1    1    2    0    0  0.15374500812E-01  0.28099419680E-02 -0.97934894385E-02  0.18444063665E-01  0.00000000000E+00 0.  1.
     999901    1    3    3    0    0  0.66364313293E-01 -0.85056810870E-03 -0.98947141046E-01  0.88802898729E+00  0.88000000000E+00 0. -1.
        -11    1    4    4    0    0 -0.53526598116E-01  0.64542105368E-02  0.61464362925E-01  0.81761131171E-01  0.51100000000E-03 0. -1.
         11    1    4    4    0    0 -0.28212215989E-01 -0.84135843962E-02  0.47276267560E-01  0.55695817875E-01  0.51100000000E-03 0.  1.
</event>
<event>
 8    1  0.1030163E+005  0.1043930E+01  0.7957747E-01            NaN
         13   -1    0    0    0    0  0.00000000000E+00  0.00000000000E+00  0.74505805969E-08  0.10566000000E+00  0.10566000000E+00 0.  1.
     999900   -1    0    0    0    0 -0.00000000000E+00 -0.00000000000E+00 -0.74505805969E-08  0.93827000000E+00  0.93827000000E+00 0. -1.
     999902    2    1    2    0    0  0.11565366574E-02 -0.15603665614E-01 -0.17575388660E-01  0.10203990365E+01  0.10201276819E+01 0.  0.
     999903    2    3    3    0    0  0.10374760400E-01  0.81610068351E-01 -0.10011012663E+00  0.13115921017E+00  0.20319007099E-01 0.  0.
         14    1    1    2    0    0 -0.11565366574E-02  0.15603665614E-01  0.17575388660E-01  0.23530963521E-01  0.00000000000E+00 0.  1.
     999901    1    3    3    0    0 -0.92182237426E-02 -0.97213733966E-01  0.82534737968E-01  0.88923982631E+00  0.88000000000E+00 0.  1.
        -11    1    4    4    0    0  0.16408108195E-01  0.63692289840E-01 -0.79632358918E-01  0.10328362652E+00  0.51100000000E-03 0.  1.
         11    1    4    4    0    0 -0.60333477954E-02  0.17917778512E-01 -0.20477767711E-01  0.27875583650E-01  0.51100000000E-03 0. -1.
</event>
<event>
 8    1  0.1030163E+005  0.1043930E+01  0.7957747E-01            NaN
         13   -1    0    0    0    0  0.00000000000E+00  0.00000000000E+00  0.74505805969E-08  0.10566000000E+00  0.10566000000E+00 0. -1.
     999900   -1    0    0    0    0 -0.00000000000E+00 -0.00000000000E+00 -0.74505805969E-08  0.93827000000E+00  0.93827000000E+00 0.  1.
     999902    2    1    2    0    0  0.12501892302E-01  0.17156085453E-01 -0.98187779244E-02  0.10205411783E+01  0.10202731299E+01 0.  0.
     999903    2    3    3    0    0 -0.90510898122E-01 -0.80644297145E-01 -0.38564563175E-01  0.12868756366E+00  0.19430341418E-01 0.  0.
         14    1    1    2    0    0 -0.12501892302E-01 -0.17156085453E-01  0.98187779244E-02  0.23388821670E-01  0.00000000000E+00 0.  1.
     999901    1    3    3    0    0  0.10301279042E+00  0.97800382597E-01  0.28745785250E-01  0.89185361467E+00  0.88000000000E+00 0.  1.
        -11    1    4    4    0    0 -0.80249895934E-01 -0.74260515723E-01 -0.28602890849E-01  0.11301794760E+00  0.51100000000E-03 0. -1.
         11    1    4    4    0    0 -0.10261002188E-01 -0.63837814222E-02 -0.99616723255E-02  0.15669616066E-01  0.51100000000E-03 0.  1.
</event>
<event>
 8    1  0.1030163E+005  0.1043930E+01  0.7957747E-01            NaN
         13   -1    0    0    0    0  0.00000000000E+00  0.00000000000E+00  0.74505805969E-08  0.10566000000E+00  0.10566000000E+00 0.  1.
     999900   -1    0    0    0    0 -0.00000000000E+00 -0.00000000000E+00 -0.74505805969E-08  0.93827000000E+00  0.93827000000E+00 0.  1.
     999902    2    1    2    0    0  0.40454178568E-02  0.13277474234E-01  0.20842132798E-01  0.10188890091E+01  0.10185812494E+01 0.  0.
     999903    2    3    3    0    0  0.80797233444E-01 -0.52204170667E-01  0.86258604426E-01  0.13071222386E+00  0.19790660950E-01 0.  0.
         14    1    1    2    0    0 -0.40454178568E-02 -0.13277474234E-01 -0.20842132798E-01  0.25040990939E-01  0.00000000000E+00 0. -1.
     999901    1    3    3    0    0 -0.76751815587E-01  0.65481644901E-01 -0.65416471628E-01  0.88817678520E+00  0.88000000000E+00 0.  1.
        -11    1    4    4    0    0  0.58022218134E-01 -0.31388987713E-01  0.68531517620E-01  0.95124530880E-01  0.51100000000E-03 0.  1.
         11    1    4    4    0    0  0.22775015310E-01 -0.20815182954E-01  0.17727086806E-01  0.35587692977E-01  0.51100000000E-03 0. -1.
</event>
<event>
 8    1  0.1030163E+005  0.1043930E+01  0.7957747E-01            NaN
         13   -1    0    0    0    0  0.00000000000E+00  0.00000000000E+00  0.74505805969E-08  0.10566000000E+00  0.10566000000E+00 0.  1.
     999900   -1    0    0    0    0 -0.00000000000E+00 -0.00000000000E+00 -0.74505805969E-08  0.93827000000E+00  0.93827000000E+00 0.  1.
     999902    2    1    2    0    0 -0.25101738482E-01  0.39223347945E-02 -0.22889415090E-02  0.10184207617E+01  0.10181012359E+01 0.  0.
     999903    2    3    3    0    0  0.10962958572E+00  0.52079038968E-01  0.29144561694E-01  0.12631109188E+00  0.19344613988E-01 0.  0.
         14    1    1    2    0    0  0.25101738482E-01 -0.39223347945E-02  0.22889415090E-02  0.25509238293E-01  0.00000000000E+00 0.  1.
     999901    1    3    3    0    0 -0.13473132420E+00 -0.48156704173E-01 -0.31433503203E-01  0.89210966983E+00  0.88000000000E+00 0.  1.
        -11    1    4    4    0    0  0.66074767001E-01  0.24308885095E-01  0.94986623409E-02  0.71044228731E-01  0.51100000000E-03 0. -1.
         11    1    4    4    0    0  0.43554818719E-01  0.27770153873E-01  0.19645899353E-01  0.55266863147E-01  0.51100000000E-03 0.  1.
</event>
<event>
 8    1  0.1030163E+005  0.1043930E+01  0.7957747E-01            NaN
         13   -1    0    0    0    0  0.00000000000E+00  0.00000000000E+00  0.74505805969E-08  0.10566000000E+00  0.10566000000E+00 0.  1.
     999900   -1    0    0    0    0 -0.00000000000E+00 -0.00000000000E+00 -0.74505805969E-08  0.93827000000E+00  0.93827000000E+00 0. -1.
     999902    2    1    2    0    0  0.19907292605E-01  0.11940976441E-01 -0.65940723055E-03  0.10207066920E+01  0.10204424673E+01 0.  0.
     999903    2    3    3    0    0  0.73500178020E-01  0.10773745360E+00 -0.21278856013E-01  0.13364732302E+00  0.19979543555E-01 0.  0.
         14    1    1    2    0    0 -0.19907292605E-01 -0.11940976441E-01  0.65940723055E-03  0.23223308015E-01  0.00000000000E+00 0. -1.
     999901    1    3    3    0    0 -0.53592885415E-01 -0.95796477155E-01  0.20619448782E-01  0.88705936897E+00  0.88000000000E+00 0.  1.
        -11    1    4    4    0    0  0.66787622836E-01  0.86117817908E-01 -0.14085574863E-01  0.10988871491E+00  0.51100000000E-03 0. -1.
         11    1    4    4    0    0  0.67125551843E-02  0.21619635688E-01 -0.71932811501E-02  0.23758608105E-01  0.51100000000E-03 0.  1.
</event>
<event>
 8    1  0.1030163E+005  0.1043930E+01  0.7957747E-01            NaN
         13   -1    0    0    0    0  0.00000000000E+00  0.00000000000E+00  0.74505805969E-08  0.10566000000E+00  0.10566000000E+00 0.  1.
     999900   -1    0    0    0    0 -0.00000000000E+00 -0.00000000000E+00 -0.74505805969E-08  0.93827000000E+00  0.93827000000E+00 0.  1.
     999902    2    1    2    0    0  0.19069465537E-02  0.35631704014E-02  0.23300236114E-01  0.10202818789E+01  0.10200077837E+01 0.  0.
     999903    2    3    3    0    0 -0.30185687613E-02 -0.12807642264E+00  0.99134977543E-02  0.13037601426E+00  0.22066849868E-01 0.  0.
         14    1    1    2    0    0 -0.19069465537E-02 -0.35631704014E-02 -0.23300236114E-01  0.23648121098E-01  0.00000000000E+00 0. -1.
     999901    1    3    3    0    0  0.49255153149E-02  0.13163959304E+00  0.13386738360E-01  0.88990586464E+00  0.88000000000E+00 0. -1.
        -11    1    4    4    0    0  0.55007132160E-02 -0.86144010351E-01 -0.55192934881E-03  0.86322732303E-01  0.51100000000E-03 0.  1.
         11    1    4    4    0    0 -0.85192819773E-02 -0.41932412290E-01  0.10465427103E-01  0.44053281959E-01  0.51100000000E-03 0. -1.
</event>
<event>
 8    1  0.1030163E+005  0.1043930E+01  0.7957747E-01            NaN
         13   -1    0    0    0    0  0.00000000000E+00  0.00000000000E+00  0.74505805969E-08  0.10566000000E+00  0.10566000000E+00 0.  1.
     999900   -1    0    0    0    0 -0.00000000000E+00 -0.00000000000E+00 -0.74505805969E-08  0.93827000000E+00  0.93827000000E+00 0. -1.
     999902    2    1    2    0    0  0.18036077989E-01 -0.15140054967E-01  0.34433327425E-02  0.10201313044E+01  0.10198536661E+01 0.  0.
     999903    2    3    3    0    0 -0.65401102065E-01  0.61166302814E-01  0.90381466858E-01  0.12864789879E+00  0.19048662946E-01 0.  0.
         14    1    1    2    0    0 -0.18036077989E-01  0.15140054967E-01 -0.34433327425E-02  0.23798695636E-01  0.00000000000E+00 0. -1.
     999901    1    3    3    0    0  0.83437180054E-01 -0.76306357780E-01 -0.86938134115E-01  0.89148340558E+00  0.88000000000E+00 0. -1.
        -11    1    4    4    0    0 -0.11299943064E-01  0.58409546345E-02  0.57405800321E-02  0.13964986373E-01  0.51100000000E-03 0.  1.
         11    1    4    4    0    0 -0.54101159001E-01  0.55325348179E-01  0.84640886826E-01  0.11468291242E+00  0.51100000000E-03 0. -1.
</event>
<event>
 8    1  0.1030163E+005  0.1043930E+01  0.7957747E-01            NaN
         13   -1    0    0    0    0  0.00000000000E+00  0.00000000000E+00  0.74505805969E-08  0.10566000000E+00  0.10566000000E+00 0.  1.
     999900   -1    0    0    0    0 -0.00000000000E+00 -0.00000000000E+00 -0.74505805969E-08  0.93827000000E+00  0.93827000000E+00 0. -1.
     999902    2    1    2    0    0 -0.55193270269E-02 -0.25341877089E-02  0.23229808695E-01  0.10199193963E+01  0.10196367323E+01 0.  0.
     999903    2    3    3    0    0 -0.14497659101E-01  0.81082849186E-01 -0.96058412496E-01  0.12789804060E+00  0.18603215480E-01 0.  0.
         14    1    1    2    0    0  0.55193270269E-02  0.25341877089E-02 -0.23229808695E-01  0.24010603703E-01  0.00000000000E+00 0. -1.
     999901    1    3    3    0    0  0.89783320737E-02 -0.83617036895E-01  0.11928822119E+00  0.89202135570E+00  0.88000000000E+00 0.  1.
        -11    1    4    4    0    0 -0.17319886916E-01  0.53477861353E-01 -0.70502404595E-01  0.90170451437E-01  0.51100000000E-03 0. -1.
         11    1    4    4    0    0  0.28222278158E-02  0.27604987833E-01 -0.25556007902E-01  0.37727589162E-01  0.51100000000E-03 0.  1.
</event>
<event>
 8    1  0.1030163E+005  0.1043930E+01  0.7957747E-01            NaN
         13   -1    0    0    0    0  0.00000000000E+00  0.00000000000E+00  0.74505805969E-08  0.10566000000E+00  0.10566000000E+00 0.  1.
     999900   -1    0    0    0    0 -0.00000000000E+00 -0.00000000000E+00 -0.74505805969E-08  0.93827000000E+00  0.93827000000E+00 0.  1.
     999902    2    1    2    0    0 -0.97215004985E-02 -0.98226359533E-02  0.19076837404E-01  0.10203733136E+01  0.10201013585E+01 0.  0.
     999903    2    3    3    0    0  0.71449089956E-01  0.46328719378E-01  0.97856320623E-01  0.13135821449E+00  0.20683286338E-01 0.  0.
         14    1    1    2    0    0  0.97215004985E-02  0.98226359533E-02 -0.19076837404E-01  0.23556686404E-01  0.00000000000E+00 0. -1.
     999901    1    3    3    0    0 -0.81170590454E-01 -0.56151355331E-01 -0.78779483219E-01  0.88901509910E+00  0.88000000000E+00 0.  1.
        -11    1    4    4    0    0  0.15735018804E-01  0.20382813999E-01  0.23260103578E-01  0.34703652009E-01  0.51100000000E-03 0.  1.
         11    1    4    4    0    0  0.55714071152E-01  0.25945905378E-01  0.74596217045E-01  0.96654562482E-01  0.51100000000E-03 0. -1.
</event>
<event>
 8    1  0.1030163E+005  0.1043930E+01  0.7957747E-01            NaN
         13   -1    0    0    0    0  0.00000000000E+00  0.00000000000E+00  0.74505805969E-08  0.10566000000E+00  0.10566000000E+00 0. -1.
     999900   -1    0    0    0    0 -0.00000000000E+00 -0.00000000000E+00 -0.74505805969E-08  0.93827000000E+00  0.93827000000E+00 0. -1.
     999902    2    1    2    0    0  0.11484818301E-01 -0.18248328756E-02  0.19341634378E-01  0.10213616619E+01  0.10211122928E+01 0.  0.
     999903    2    3    3    0    0  0.16528950231E-01  0.14926517751E-01 -0.12580961999E+00  0.12929947923E+00  0.19856679493E-01 0.  0.
         14    1    1    2    0    0 -0.11484818301E-01  0.18248328756E-02 -0.19341634378E-01  0.22568338150E-01  0.00000000000E+00 0.  1.
     999901    1    3    3    0    0 -0.50441319301E-02 -0.16751350626E-01  0.14515125436E+00  0.89206218262E+00  0.88000000000E+00 0.  1.
        -11    1    4    4    0    0  0.44309654642E-02  0.10132867440E-01 -0.21529205874E-01  0.24209012455E-01  0.51100000000E-03 0.  1.
         11    1    4    4    0    0  0.12097984767E-01  0.47936503104E-02 -0.10428041411E+00  0.10509046678E+00  0.51100000000E-03 0. -1.
</event>
<event>
 8    1  0.1030163E+005  0.1043930E+01  0.7957747E-01            NaN
         13   -1    0    0    0    0  0.00000000000E+00  0.00000000000E+00  0.74505805969E-08  0.10566000000E+00  0.10566000000E+00 0. -1.
     999900   -1    0    0    0    0 -0.00000000000E+00 -0.00000000000E+00 -0.74505805969E-08  0.93827000000E+00  0.93827000000E+00 0. -1.
     999902    2    1    2    0    0 -0.11392611264E-01 -0.64822031565E-02  0.19941618686E-01  0.10200662470E+01  0.10197870707E+01 0.  0.
     999903    2    3    3    0    0 -0.94488030319E-01  0.85993961648E-01 -0.17667343919E-01  0.13053202972E+00  0.20087967260E-01 0.  0.
         14    1    1    2    0    0  0.11392611264E-01  0.64822031565E-02 -0.19941618686E-01  0.23863752952E-01  0.00000000000E+00 0.  1.
     999901    1    3    3    0    0  0.83095419055E-01 -0.92476164805E-01  0.37608962605E-01  0.88953421733E+00  0.88000000000E+00 0. -1.
        -11    1    4    4    0    0 -0.10303045981E-01  0.19381619063E-01 -0.20894916018E-02  0.22055090346E-01  0.51100000000E-03 0. -1.
         11    1    4    4    0    0 -0.84184984338E-01  0.66612342585E-01 -0.15577852317E-01  0.10847693938E+00  0.51100000000E-03 0.  1.
</event>
<event>
 8    1  0.1030163E+005  0.1043930E+01  0.7957747E-01            NaN
         13   -1    0    0    0    0  0.00000000000E+00  0.00000000000E+00  0.74505805969E-08  0.10566000000E+00  0.10566000000E+00 0. -1.
     999900   -1    0    0    0    0 -0.00000000000E+00 -0.00000000000E+00 -0.74505805969E-08  0.93827000000E+00  0.93827000000E+00 0.  1.
     999902    2    1    2    0    0 -0.19079447205E-01 -0.14099523107E-01  0.12497225433E-02  0.10201732396E+01  0.10198965904E+01 0.  0.
     999903    2    3    3    0    0 -0.71123248429E-01 -0.62957595237E-01 -0.90265154985E-01  0.13255246402E+00  0.20004555696E-01 0.  0.
         14    1    1    2    0    0  0.19079447205E-01  0.14099523107E-01 -0.12497225433E-02  0.23756760384E-01  0.00000000000E+00 0.  1.
     999901    1    3    3    0    0  0.52043801224E-01  0.48858072130E-01  0.91514877528E-01  0.88762077559E+00  0.88000000000E+00 0.  1.
        -11    1    4    4    0    0 -0.57932016884E-01 -0.51097043109E-01 -0.82973730852E-01  0.11336634213E+00  0.51100000000E-03 0. -1.
         11    1    4    4    0    0 -0.13191231545E-01 -0.11860552128E-01 -0.72914241325E-02  0.19186121895E-01  0.51100000000E-03 0.  1.
</event>
<event>
 8    1  0.1030163E+005  0.1043930E+01  0.7957747E-01            NaN
         13   -1    0    0    0    0  0.00000000000E+00  0.00000000000E+00  0.74505805969E-08  0.10566000000E+00  0.10566000000E+00 0. -1.
     999900   -1    0    0    0    0 -0.00000000000E+00 -0.00000000000E+00 -0.74505805969E-08  0.93827000000E+00  0.93827000000E+00 0. -1.
     999902    2    1    2    0    0  0.13983363483E-01 -0.14353141243E-01  0.33909484653E-02  0.10236064755E+01  0.10234046956E+01 0.  0.
     999903    2    3    3    0    0  0.17127439488E-01 -0.19188598719E-01  0.13044306190E+00  0.13446334504E+00  0.20085996538E-01 0.  0.
         14    1    1    2    0    0 -0.13983363483E-01  0.14353141243E-01 -0.33909484653E-02  0.20323524531E-01  0.00000000000E+00 0.  1.
     999901    1    3    3    0    0 -0.31440760049E-02  0.48354574761E-02 -0.12705211343E+00  0.88914313043E+00  0.88000000000E+00 0. -1.
        -11    1    4    4    0    0  0.18693124800E-01 -0.20211951642E-01  0.93523042807E-01  0.97492443609E-01  0.51100000000E-03 0.  1.
         11    1    4    4    0    0 -0.15656853118E-02  0.10233529231E-02  0.36920019093E-01  0.36970901430E-01  0.51100000000E-03 0. -1.
</event>
<event>
 8    1  0.1030163E+005  0.1043930E+01  0.7957747E-01            NaN
         13   -1    0    0    0    0  0.00000000000E+00  0.00000000000E+00  0.74505805969E-08  0.10566000000E+00  0.10566000000E+00 0. -1.
     999900   -1    0    0    0    0 -0.00000000000E+00 -0.00000000000E+00 -0.74505805969E-08  0.93827000000E+00  0.93827000000E+00 0.  1.
     999902    2    1    2    0    0 -0.10104828658E-01  0.16900478823E-01 -0.12629818628E-01  0.10205367090E+01  0.10202685569E+01 0.  0.
     999903    2    3    3    0    0 -0.64669412356E-01 -0.96909510619E-01  0.51935273188E-01  0.12919016661E+00  0.20475360929E-01 0.  0.
         14    1    1    2    0    0  0.10104828658E-01 -0.16900478823E-01  0.12629818628E-01  0.23393291030E-01  0.00000000000E+00 0. -1.
     999901    1    3    3    0    0  0.54564583698E-01  0.11380998944E+00 -0.64565091816E-01  0.89134654236E+00  0.88000000000E+00 0.  1.
        -11    1    4    4    0    0 -0.13669027071E-01 -0.25490260287E-01  0.40367242016E-02  0.29208764675E-01  0.51100000000E-03 0. -1.
         11    1    4    4    0    0 -0.51000385286E-01 -0.71419250332E-01  0.47898548987E-01  0.99981401937E-01  0.51100000000E-03 0.  1.
</event>
<event>
 8    1  0.1030163E+005  0.1043930E+01  0.7957747E-01            NaN
         13   -1    0    0    0    0  0.00000000000E+00  0.00000000000E+00  0.74505805969E-08  0.10566000000E+00  0.10566000000E+00 0.  1.
     999900   -1    0    0    0    0 -0.00000000000E+00 -0.00000000000E+00 -0.74505805969E-08  0.93827000000E+00  0.93827000000E+00 0. -1.
     999902    2    1    2    0    0 -0.35399025103E-02  0.10311074517E-02  0.22153456193E-01  0.10214718230E+01  0.10212249094E+01 0.  0.
     999903    2    3    3    0    0  0.22751831626E-01 -0.10997081196E+00 -0.62418095521E-01  0.13008805114E+00  0.20387669706E-01 0.  0.
         14    1    1    2    0    0  0.35399025103E-02 -0.10311074517E-02 -0.22153456193E-01  0.22458176989E-01  0.00000000000E+00 0. -1.
     999901    1    3    3    0    0 -0.26291734136E-01  0.11100191941E+00  0.84571551715E-01  0.89138377187E+00  0.88000000000E+00 0.  1.
        -11    1    4    4    0    0  0.47118931554E-02 -0.16452167707E-01 -0.18497326856E-01  0.25204919781E-01  0.51100000000E-03 0. -1.
         11    1    4    4    0    0  0.18039938470E-01 -0.93518644250E-01 -0.43920768665E-01  0.10488313136E+00  0.51100000000E-03 0.  1.
</event>
<event>
 8    1  0.1030163E+005  0.1043930E+01  0.7957747E-01            NaN
         13   -1    0    0    0    0  0.00000000000E+00  0.00000000000E+00  0.74505805969E-08  0.10566000000E+00  0.10566000000E+00 0. -1.
     999900   -1    0    0    0    0 -0.00000000000E+00 -0.00000000000E+00 -0.74505805969E-08  0.93827000000E+00  0.93827000000E+00 0. -1.
     999902    2    1    2    0    0 -0.22018626969E-01  0.72707320417E-02  0.60099735781E-02  0.10199758091E+01  0.10196944876E+01 0.  0.
     999903    2    3    3    0    0 -0.50593325462E-01  0.87998373205E-01  0.82707763524E-01  0.13249847622E+00  0.20294673811E-01 0.  0.
         14    1    1    2    0    0  0.22018626969E-01 -0.72707320417E-02 -0.60099735781E-02  0.23954190874E-01  0.00000000000E+00 0.  1.
     999901    1    3    3    0    0  0.28574698492E-01 -0.80727641163E-01 -0.76697789946E-01  0.88747733291E+00  0.88000000000E+00 0.  1.
        -11    1    4    4    0    0 -0.30554738410E-01  0.60022404984E-01  0.42808036483E-01  0.79806454926E-01  0.51100000000E-03 0.  1.
         11    1    4    4    0    0 -0.20038587051E-01  0.27975968221E-01  0.39899727041E-01  0.52692021292E-01  0.51100000000E-03 0. -1.
</event>
<event>
 8    1  0.1030163E+005  0.1043930E+01  0.7957747E-01            NaN
         13   -1    0    0    0    0  0.00000000000E+00  0.00000000000E+00  0.74505805969E-08  0.10566000000E+00  0.10566000000E+00 0. -1.
     999900   -1    0    0    0    0 -0.00000000000E+00 -0.00000000000E+00 -0.74505805969E-08  0.93827000000E+00  0.93827000000E+00 0.  1.
     999902    2    1    2    0    0 -0.10215556988E-01  0.18897820598E-01 -0.10525223157E-01  0.10200079275E+01  0.10197273688E+01 0.  0.
     999903    2    3    3    0    0 -0.97725262367E-01  0.26300924159E-01 -0.83302390748E-01  0.13264708178E+00  0.20346854402E-01 0.  0.
         14    1    1    2    0    0  0.10215556988E-01 -0.18897820598E-01  0.10525223157E-01  0.23922072453E-01  0.00000000000E+00 0.  1.
     999901    1    3    3    0    0  0.87509705379E-01 -0.74031035609E-02  0.72777167591E-01  0.88736084577E+00  0.88000000000E+00 0. -1.
        -11    1    4    4    0    0 -0.33599956344E-01  0.19951347193E-02 -0.19093107838E-01  0.38700717264E-01  0.51100000000E-03 0.  1.
         11    1    4    4    0    0 -0.64125306023E-01  0.24305789440E-01 -0.64209282910E-01  0.93946364516E-01  0.51100000000E-03 0. -1.
</event>
<event>
 8    1  0.1030163E+005  0.1043930E+01  0.7957747E-01            NaN
         13   -1    0    0    0    0  0.00000000000E+00  0.00000000000E+00  0.74505805969E-08  0.10566000000E+00  0.10566000000E+00 0. -1.
     999900   -1    0    0    0    0 -0.00000000000E+00 -0.00000000000E+00 -0.74505805969E-08  0.93827000000E+00  0.93827000000E+00 0.  1.
     999902    2    1    2    0    0  0.18801569911E-01  0.11804072815E-01 -0.22479720199E-02  0.10216165838E+01  0.10213728779E+01 0.  0.
     999903    2    3    3    0    0  0.94497478935E-02 -0.39369627722E-02  0.12874690181E+00  0.13173181945E+00  0.25936655900E-01 0.  0.
         14    1    1    2    0    0 -0.18801569911E-01 -0.11804072815E-01  0.22479720199E-02  0.22313416241E-01  0.00000000000E+00 0. -1.
     999901    1    3    3    0    0  0.93518220177E-02  0.15741035587E-01 -0.13099487383E+00  0.88988476431E+00  0.88000000000E+00 0.  1.
        -11    1    4    4    0    0  0.14047252117E-01 -0.11180447995E-01  0.10388764622E+00  0.10542880000E+00  0.51100000000E-03 0. -1.
         11    1    4    4    0    0 -0.45975042238E-02  0.72434852226E-02  0.24859255585E-01  0.26303019456E-01  0.51100000000E-03 0.  1.
</event>
<event>
 8    1  0.1030163E+005  0.1043930E+01  0.7957747E-01            NaN
         13   -1    0    0    0    0  0.00000000000E+00  0.00000000000E+00  0.74505805969E-08  0.10566000000E+00  0.10566000000E+00 0. -1.
     999900   -1    0    0    0    0 -0.00000000000E+00 -0.00000000000E+00 -0.74505805969E-08  0.93827000000E+00  0.93827000000E+00 0. -1.
     999902    2    1    2    0    0  0.43063951735E-02  0.15425170830E-01  0.11672353330E-01  0.10241127155E+01  0.10239209585E+01 0.  0.
     999903    2    3    3    0    0  0.11817016630E+00 -0.50132334336E-01 -0.16794461607E-01  0.13390313091E+00  0.34213380085E-01 0.  0.
         14    1    1    2    0    0 -0.43063951735E-02 -0.15425170830E-01 -0.11672353330E-01  0.19817284546E-01  0.00000000000E+00 0.  1.
     999901    1    3    3    0    0 -0.11386377113E+00  0.65557505165E-01  0.28466814937E-01  0.89020958454E+00  0.88000000000E+00 0. -1.
        -11    1    4    4    0    0  0.49499619921E-01 -0.18560880186E-01  0.98203680954E-02  0.53771920145E-01  0.51100000000E-03 0.  1.
         11    1    4    4    0    0  0.68670546384E-01 -0.31571454150E-01 -0.26614829703E-01  0.80131210766E-01  0.51100000000E-03 0. -1.
</event>
<event>
 8    1  0.1030163E+005  0.1043930E+01  0.7957747E-01            NaN
         13   -1    0    0    0    0  0.00000000000E+00  0.00000000000E+00  0.74505805969E-08  0.10566000000E+00  0.10566000000E+00 0.  1.
     999900   -1    0    0    0    0 -0.00000000000E+00 -0.00000000000E+00 -0.74505805969E-08  0.93827000000E+00  0.93827000000E+00 0. -1.
     999902    2    1    2    0    0 -0.37747934101E-02 -0.27029941392E-02  0.23010721845E-01  0.10204555764E+01  0.10201855394E+01 0.  0.
     999903    2    3    3    0    0 -0.81687926733E-01  0.69551290572E-01  0.75140442046E-01  0.13253179268E+00  0.20206203154E-01 0.  0.
         14    1    1    2    0    0  0.37747934101E-02  0.27029941392E-02 -0.23010721845E-01  0.23474423580E-01  0.00000000000E+00 0. -1.
     999901    1    3    3    0    0  0.77913133323E-01 -0.72254284711E-01 -0.52129720201E-01  0.88792378374E+00  0.88000000000E+00 0. -1.
        -11    1    4    4    0    0 -0.37965948137E-01  0.30394128172E-01  0.46232370138E-01  0.67103721319E-01  0.51100000000E-03 0. -1.
         11    1    4    4    0    0 -0.43721978596E-01  0.39157162400E-01  0.28908071908E-01  0.65428071361E-01  0.51100000000E-03 0.  1.
</event>
<event>
 8    1  0.1030163E+005  0.1043930E+01  0.7957747E-01            NaN
         13   -1    0    0    0    0  0.00000000000E+00  0.00000000000E+00  0.74505805969E-08  0.10566000000E+00  0.10566000000E+00 0. -1.
     999900   -1    0    0    0    0 -0.00000000000E+00 -0.00000000000E+00 -0.74505805969E-08  0.93827000000E+00  0.93827000000E+00 0. -1.
     999902    2    1    2    0    0 -0.18292095573E-01  0.14019767942E-01  0.24929510609E-02  0.10207487693E+01  0.10204855121E+01 0.  0.
     999903    2    3    3    0    0 -0.29372782874E-01 -0.12236512695E+00  0.26489207166E-01  0.12985065977E+00  0.17986969701E-01 0.  0.
         14    1    1    2    0    0  0.18292095573E-01 -0.14019767942E-01 -0.24929510609E-02  0.23181230739E-01  0.00000000000E+00 0. -1.
     999901    1    3    3    0    0  0.11080687300E-01  0.13638489489E+00 -0.23996256105E-01  0.89089810949E+00  0.88000000000E+00 0.  1.
        -11    1    4    4    0    0 -0.25250804641E-01 -0.84996359467E-01  0.25401615693E-01  0.92236042080E-01  0.51100000000E-03 0. -1.
         11    1    4    4    0    0 -0.41219782324E-02 -0.37368767484E-01  0.10875914735E-02  0.37614617691E-01  0.51100000000E-03 0.  1.
</event>
<event>
 8    1  0.1030163E+005  0.1043930E+01  0.7957747E-01            NaN
         13   -1    0    0    0    0  0.00000000000E+00  0.00000000000E+00  0.74505805969E-08  0.10566000000E+00  0.10566000000E+00 0. -1.
     999900   -1    0    0    0    0 -0.00000000000E+00 -0.00000000000E+00 -0.74505805969E-08  0.93827000000E+00  0.93827000000E+00 0. -1.
     999902    2    1    2    0    0 -0.16923871540E-01  0.50343482253E-02 -0.15755988180E-01  0.10202654008E+01  0.10199909190E+01 0.  0.
     999903    2    3    3    0    0 -0.90610732012E-01 -0.61733011508E-01 -0.72478429458E-01  0.13285057728E+00  0.19361913144E-01 0.  0.
         14    1    1    2    0    0  0.16923871540E-01 -0.50343482253E-02  0.15755988180E-01  0.23664599162E-01  0.00000000000E+00 0. -1.
     999901    1    3    3    0    0  0.73686860471E-01  0.66767359733E-01  0.56722441277E-01  0.88741482356E+00  0.88000000000E+00 0.  1.
        -11    1    4    4    0    0 -0.13151782890E-01 -0.15378797072E-01 -0.73396802845E-02  0.21531577282E-01  0.51100000000E-03 0. -1.
         11    1    4    4    0    0 -0.77458949121E-01 -0.46354214436E-01 -0.65138749173E-01  0.11131899999E+00  0.51100000000E-03 0.  1.
</event>
<event>
 8    1  0.1030163E+005  0.1043930E+01  0.7957747E-01            NaN
         13   -1    0    0    0    0  0.00000000000E+00  0.00000000000E+00  0.74505805969E-08  0.10566000000E+00  0.10566000000E+00 0. -1.
     999900   -1    0    0    0    0 -0.00000000000E+00 -0.00000000000E+00 -0.74505805969E-08  0.93827000000E+00  0.93827000000E+00 0.  1.
     999902    2    1    2    0    0  0.13282903603E-01  0.78914586740E-02 -0.17281178236E-01  0.10207491939E+01  0.10204859466E+01 0.  0.
     999903    2    3    3    0    0 -0.59729491734E-01 -0.35084078026E-01 -0.11047176734E+00  0.13178226963E+00  0.19080107364E-01 0.  0.
         14    1    1    2    0    0 -0.13282903603E-01 -0.78914586740E-02  0.17281178236E-01  0.23180806055E-01  0.00000000000E+00 0. -1.
     999901    1    3    3    0    0  0.73012395336E-01  0.42975536700E-01  0.93190589101E-01  0.88896692431E+00  0.88000000000E+00 0. -1.
        -11    1    4    4    0    0 -0.42588794495E-01 -0.34257512851E-01 -0.82614862507E-01  0.99059877001E-01  0.51100000000E-03 0.  1.
         11    1    4    4    0    0 -0.17140697238E-01 -0.82656517493E-03 -0.27856904829E-01  0.32722392631E-01  0.51100000000E-03 0. -1.
</event>
<event>
 8    1  0.1030163E+005  0.1043930E+01  0.7957747E-01            NaN
         13   -1    0    0    0    0  0.00000000000E+00  0.00000000000E+00  0.74505805969E-08  0.10566000000E+00  0.10566000000E+00 0. -1.
     999900   -1    0    0    0    0 -0.00000000000E+00 -0.00000000000E+00 -0.74505805969E-08  0.93827000000E+00  0.93827000000E+00 0.  1.
     999902    2    1    2    0    0  0.23878499488E-01  0.13277559652E-02 -0.77484670688E-02  0.10187906998E+01  0.10184804885E+01 0.  0.
     999903    2    3    3    0    0 -0.87132701591E-01 -0.83946988568E-01 -0.34289165404E-01  0.12733140318E+00  0.19958326480E-01 0.  0.
         14    1    1    2    0    0 -0.23878499488E-01 -0.13277559652E-02  0.77484670688E-02  0.25139300222E-01  0.00000000000E+00 0. -1.
     999901    1    3    3    0    0  0.11101120108E+00  0.85274744533E-01  0.26540698335E-01  0.89145929660E+00  0.88000000000E+00 0.  1.
        -11    1    4    4    0    0 -0.46931250148E-01 -0.43913103089E-01 -0.28467132017E-01  0.70296099391E-01  0.51100000000E-03 0.  1.
         11    1    4    4    0    0 -0.40201451444E-01 -0.40033885479E-01 -0.58220333868E-02  0.57035303790E-01  0.51100000000E-03 0. -1.
</event>
<event>
 8    1  0.1030163E+005  0.1043930E+01  0.7957747E-01            NaN
         13   -1    0    0    0    0  0.00000000000E+00  0.00000000000E+00  0.74505805969E-08  0.10566000000E+00  0.10566000000E+00 0.  1.
     999900   -1    0    0    0    0 -0.00000000000E+00 -0.00000000000E+00 -0.74505805969E-08  0.93827000000E+00  0.93827000000E+00 0.  1.
     999902    2    1    2    0    0  0.21601852136E-01 -0.30523761989E-02 -0.66582753949E-02  0.10211201414E+01  0.10208653455E+01 0.  0.
     999903    2    3    3    0    0 -0.52865702127E-01 -0.71881258242E-01 -0.93883400542E-01  0.13101281415E+00  0.19712098486E-01 0.  0.
         14    1    1    2    0    0 -0.21601852136E-01  0.30523761989E-02  0.66582753949E-02  0.22809858557E-01  0.00000000000E+00 0.  1.
     999901    1    3    3    0    0  0.74467554262E-01  0.68828882043E-01  0.87225125147E-01  0.89010732729E+00  0.88000000000E+00 0. -1.
        -11    1    4    4    0    0 -0.67594928781E-02 -0.10800562741E-01 -0.49365429619E-02  0.13673824516E-01  0.51100000000E-03 0. -1.
         11    1    4    4    0    0 -0.46106209249E-01 -0.61080695501E-01 -0.88946857580E-01  0.11733898964E+00  0.51100000000E-03 0.  1.
</event>
<event>
 8    1  0.1030163E+005  0.1043930E+01  0.7957747E-01            NaN
         13   -1    0    0    0    0  0.00000000000E+00  0.00000000000E+00  0.74505805969E-08  0.10566000000E+00  0.10566000000E+00 0.  1.
     999900   -1    0    0    0    0 -0.00000000000E+00 -0.00000000000E+00 -0.74505805969E-08  0.93827000000E+00  0.93827000000E+00 0.  1.
     999902    2    1    2    0    0  0.15069332619E-01  0.16658232989E-01  0.36861847746E-02  0.10211666639E+01  0.10209129179E+01 0.  0.
     999903    2    3    3    0    0  0.43501171055E-01 -0.11663696822E+00 -0.31416569494E-01  0.12998307819E+00  0.20299397481E-01 0.  0.
         14    1    1    2    0    0 -0.15069332619E-01 -0.16658232989E-01 -0.36861847746E-02  0.22763336093E-01  0.00000000000E+00 0. -1.
     999901    1    3    3    0    0 -0.28431838436E-01  0.13329520121E+00  0.35102754269E-01  0.89118358572E+00  0.88000000000E+00 0. -1.
        -11    1    4    4    0    0  0.44173227485E-01 -0.10920973616E+00 -0.25710759647E-01  0.12057920543E+00  0.51100000000E-03 0.  1.
         11    1    4    4    0    0 -0.67205643060E-03 -0.74272320536E-02 -0.57058098471E-02  0.94038727573E-02  0.51100000000E-03 0. -1.
</event>
<event>
 8    1  0.1030163E+005  0.1043930E+01  0.7957747E-01            NaN
         13   -1    0    0    0    0  0.00000000000E+00  0.00000000000E+00  0.74505805969E-08  0.10566000000E+00  0.10566000000E+00 0. -1.
     999900   -1    0    0    0    0 -0.00000000000E+00 -0.00000000000E+00 -0.74505805969E-08  0.93827000000E+00  0.93827000000E+00 0. -1.
     999902    2    1    2    0    0 -0.12772585195E-01  0.26309830922E-02  0.27023432314E-01  0.10139245522E+01  0.10134804737E+01 0.  0.
     999903    2    3    3    0    0 -0.97039313658E-01  0.91002594604E-03 -0.74416131417E-01  0.12409657538E+00  0.21088927496E-01 0.  0.
         14    1    1    2    0    0  0.12772585195E-01 -0.26309830922E-02 -0.27023432314E-01  0.30005447816E-01  0.00000000000E+00 0.  1.
     999901    1    3    3    0    0  0.84266728462E-01  0.17209571462E-02  0.10143956373E+00  0.88982797681E+00  0.88000000000E+00 0.  1.
        -11    1    4    4    0    0 -0.64831089788E-01  0.80158427096E-02 -0.57487874875E-01  0.87019772558E-01  0.51100000000E-03 0. -1.
         11    1    4    4    0    0 -0.32208223870E-01 -0.71058167636E-02 -0.16928256541E-01  0.37076802818E-01  0.51100000000E-03 0.  1.
</event>
<event>
 8    1  0.1030163E+005  0.1043930E+01  0.7957747E-01            NaN
         13   -1    0    0    0    0  0.00000000000E+00  0.00000000000E+00  0.74505805969E-08  0.10566000000E+00  0.10566000000E+00 0.  1.
     999900   -1    0    0    0    0 -0.00000000000E+00 -0.00000000000E+00 -0.74505805969E-08  0.93827000000E+00  0.93827000000E+00 0.  1.
     999902    2    1    2    0    0  0.21616119487E-01 -0.21449741650E-02 -0.49110470344E-02  0.10216594832E+01  0.10214167238E+01 0.  0.
     999903    2    3    3    0    0 -0.11618772470E+00 -0.43986459330E-01  0.30129426798E-01  0.12926470275E+00  0.19162073057E-01 0.  0.
         14    1    1    2    0    0 -0.21616119487E-01  0.21449741650E-02  0.49110470344E-02  0.22270516806E-01  0.00000000000E+00 0. -1.
     999901    1    3    3    0    0  0.13780384418E+00  0.41841485165E-01 -0.35040473833E-01  0.89239478044E+00  0.88000000000E+00 0. -1.
        -11    1    4    4    0    0 -0.53913956151E-01 -0.11169977013E-01  0.91883895648E-02  0.55822671721E-01  0.51100000000E-03 0.  1.
         11    1    4    4    0    0 -0.62273768547E-01 -0.32816482316E-01  0.20941037234E-01  0.73442031031E-01  0.51100000000E-03 0. -1.
</event>
<event>
 8    1  0.1030163E+005  0.1043930E+01  0.7957747E-01            NaN
         13   -1    0    0    0    0  0.00000000000E+00  0.00000000000E+00  0.74505805969E-08  0.10566000000E+00  0.10566000000E+00 0. -1.
     999900   -1    0    0    0    0 -0.00000000000E+00 -0.00000000000E+00 -0.74505805969E-08  0.93827000000E+00  0.93827000000E+00 0.  1.
     999902    2    1    2    0    0 -0.12978358845E-01 -0.85751665187E-02 -0.17727825089E-01  0.10203451095E+01  0.10200724951E+01 0.  0.
     999903    2    3    3    0    0 -0.66438150112E-01 -0.60334393832E-01  0.92267351379E-01  0.13038111820E+00  0.20777511504E-01 0.  0.
         14    1    1    2    0    0  0.12978358845E-01  0.85751665187E-02  0.17727825089E-01  0.23584890534E-01  0.00000000000E+00 0. -1.
     999901    1    3    3    0    0  0.53459791268E-01  0.51759227314E-01 -0.10999517647E+00  0.88996399126E+00  0.88000000000E+00 0.  1.
        -11    1    4    4    0    0 -0.35416503321E-01 -0.31165535223E-01  0.63006303352E-01  0.78712608115E-01  0.51100000000E-03 0. -1.
         11    1    4    4    0    0 -0.31021646792E-01 -0.29168858609E-01  0.29261048027E-01  0.51668510090E-01  0.51100000000E-03 0.  1.
</event>
<event>
 8    1  0.1030163E+005  0.1043930E+01  0.7957747E-01            NaN
         13   -1    0    0    0    0  0.00000000000E+00  0.00000000000E+00  0.74505805969E-08  0.10566000000E+00  0.10566000000E+00 0.  1.
     999900   -1    0    0    0    0 -0.00000000000E+00 -0.00000000000E+00 -0.74505805969E-08  0.93827000000E+00  0.93827000000E+00 0. -1.
     999902    2    1    2    0    0 -0.87846384968E-02 -0.15324046227E-02  0.22437916485E-01  0.10197850578E+01  0.10194991839E+01 0.  0.
     999903    2    3    3    0    0 -0.31537192263E-01 -0.46073578007E-01  0.11911678452E+00  0.13307856840E+00  0.20092982022E-01 0.  0.
         14    1    1    2    0    0  0.87846384968E-02  0.15324046227E-02 -0.22437916485E-01  0.24144942195E-01  0.00000000000E+00 0. -1.
     999901    1    3    3    0    0  0.22752553766E-01  0.44541173385E-01 -0.96678868035E-01  0.88670648941E+00  0.88000000000E+00 0. -1.
        -11    1    4    4    0    0 -0.20450432733E-01 -0.13797411157E-01  0.41368634008E-01  0.48168597179E-01  0.51100000000E-03 0.  1.
         11    1    4    4    0    0 -0.11086759531E-01 -0.32276166850E-01  0.77748150512E-01  0.84909971220E-01  0.51100000000E-03 0. -1.
</event>
<event>
 8    1  0.1030163E+005  0.1043930E+01  0.7957747E-01            NaN
         13   -1    0    0    0    0  0.00000000000E+00  0.00000000000E+00  0.74505805969E-08  0.10566000000E+00  0.10566000000E+00 0.  1.
     999900   -1    0    0    0    0 -0.00000000000E+00 -0.00000000000E+00 -0.74505805969E-08  0.93827000000E+00  0.93827000000E+00 0.  1.
     999902    2    1    2    0    0 -0.18071771063E-01 -0.11459780048E-01 -0.94825370416E-02  0.10205241465E+01  0.10202557031E+01 0.  0.
     999903    2    3    3    0    0  0.12094484080E+00 -0.66640678865E-02 -0.39404607247E-01  0.12909610820E+00  0.21000422946E-01 0.  0.
         14    1    1    2    0    0  0.18071771063E-01  0.11459780048E-01  0.94825370416E-02  0.23405853474E-01  0.00000000000E+00 0. -1.
     999901    1    3    3    0    0 -0.13901661186E+00 -0.47957121616E-02  0.29922070206E-01  0.89142803833E+00  0.88000000000E+00 0. -1.
        -11    1    4    4    0    0  0.84335376847E-01  0.71487192646E-03 -0.35628043566E-01  0.91556460390E-01  0.51100000000E-03 0.  1.
         11    1    4    4    0    0  0.36609463949E-01 -0.73789398130E-02 -0.37765636811E-02  0.37539647810E-01  0.51100000000E-03 0. -1.
</event>
<event>
 8    1  0.1030163E+005  0.1043930E+01  0.7957747E-01            NaN
         13   -1    0    0    0    0  0.00000000000E+00  0.00000000000E+00  0.74505805969E-08  0.10566000000E+00  0.10566000000E+00 0.  1.
     999900   -1    0    0    0    0 -0.00000000000E+00 -0.00000000000E+00 -0.74505805969E-08  0.93827000000E+00  0.93827000000E+00 0.  1.
     999902    2    1    2    0    0 -0.87341628911E-02  0.76617330306E-02  0.20672644868E-01  0.10202161644E+01  0.10199405257E+01 0.  0.
     999903    2    3    3    0    0  0.16141930811E-01  0.15246961769E-01 -0.12406664270E+00  0.12801337515E+00  0.22402245679E-01 0.  0.
         14    1    1    2    0    0  0.87341628911E-02 -0.76617330306E-02 -0.20672644868E-01  0.23713835630E-01  0.00000000000E+00 0. -1.
     999901    1    3    3    0    0 -0.24876093702E-01 -0.75852287388E-02  0.14473928757E+00  0.89220278922E+00  0.88000000000E+00 0. -1.
        -11    1    4    4    0    0  0.26766342785E-02 -0.57431661605E-02 -0.19367441295E-01  0.20383994504E-01  0.51100000000E-03 0.  1.
         11    1    4    4    0    0  0.13465296532E-01  0.20990127930E-01 -0.10469920141E+00  0.10762938064E+00  0.51100000000E-03 0. -1.
</event>
<event>
 8    1  0.1030163E+005  0.1043930E+01  0.7957747E-01            NaN
         13   -1    0    0    0    0  0.00000000000E+00  0.00000000000E+00  0.74505805969E-08  0.10566000000E+00  0.10566000000E+00 0. -1.
     999900   -1    0    0    0    0 -0.00000000000E+00 -0.00000000000E+00 -0.74505805969E-08  0.93827000000E+00  0.93827000000E+00 0. -1.
     999902    2    1    2    0    0  0.15959065070E-01 -0.15035455799E-01 -0.22291495180E-02  0.10218908123E+01  0.10216531243E+01 0.  0.
     999903    2    3    3    0    0 -0.83648113669E-01  0.20395744989E-01 -0.96189935556E-01  0.13059647851E+00  0.19746978590E-01 0.  0.
         14    1    1    2    0    0 -0.15959065070E-01  0.15035455799E-01  0.22291495180E-02  0.22039187748E-01  0.00000000000E+00 0. -1.
     999901    1    3    3    0    0  0.99607178739E-01 -0.35431200788E-01  0.93960786038E-01  0.89129433374E+00  0.88000000000E+00 0.  1.
        -11    1    4    4    0    0 -0.54128311437E-01  0.14400838837E-01 -0.75667224717E-01  0.94143763870E-01  0.51100000000E-03 0. -1.
         11    1    4    4    0    0 -0.29519802232E-01  0.59949061518E-02 -0.20522710839E-01  0.36452714642E-01  0.51100000000E-03 0.  1.
</event>
<event>
 8    1  0.1030163E+005  0.1043930E+01  0.7957747E-01            NaN
         13   -1    0    0    0    0  0.00000000000E+00  0.00000000000E+00  0.74505805969E-08  0.10566000000E+00  0.10566000000E+00 0. -1.
     999900   -1    0    0    0    0 -0.00000000000E+00 -0.00000000000E+00 -0.74505805969E-08  0.93827000000E+00  0.93827000000E+00 0. -1.
     999902    2    1    2    0    0 -0.12855735260E-02 -0.11123800605E-01  0.21371898502E-01  0.10198022217E+01  0.10195167589E+01 0.  0.
     999903    2    3    3    0    0  0.34072906394E-01  0.71924146422E-01 -0.97109717420E-01  0.12728607233E+00  0.20914138838E-01 0.  0.
         14    1    1    2    0    0  0.12855735260E-02  0.11123800605E-01 -0.21371898502E-01  0.24127778281E-01  0.00000000000E+00 0.  1.
     999901    1    3    3    0    0 -0.35358479920E-01 -0.83047947027E-01  0.11848161592E+00  0.89251614939E+00  0.88000000000E+00 0.  1.
        -11    1    4    4    0    0  0.21345965471E-01  0.22709178994E-01 -0.42098198768E-01  0.52382024713E-01  0.51100000000E-03 0. -1.
         11    1    4    4    0    0  0.12726940923E-01  0.49214967428E-01 -0.55011518652E-01  0.74904047618E-01  0.51100000000E-03 0.  1.
</event>
<event>
 8    1  0.1030163E+005  0.1043930E+01  0.7957747E-01            NaN
         13   -1    0    0    0    0  0.00000000000E+00  0.00000000000E+00  0.74505805969E-08  0.10566000000E+00  0.10566000000E+00 0.  1.
     999900   -1    0    0    0    0 -0.00000000000E+00 -0.00000000000E+00 -0.74505805969E-08  0.93827000000E+00  0.93827000000E+00 0.  1.
     999902    2    1    2    0    0  0.11936729246E-01  0.16438958088E-01 -0.12047720388E-01  0.10203106771E+01  0.10200372569E+01 0.  0.
     999903    2    3    3    0    0  0.12387083941E-01 -0.11388015030E+00  0.54108636470E-01  0.12825690271E+00  0.19999001747E-01 0.  0.
         14    1    1    2    0    0 -0.11936729246E-01 -0.16438958088E-01  0.12047720388E-01  0.23619322908E-01  0.00000000000E+00 0. -1.
     999901    1    3    3    0    0 -0.45035469476E-03  0.13031910839E+00 -0.66156356858E-01  0.89205377438E+00  0.88000000000E+00 0. -1.
        -11    1    4    4    0    0  0.10755690890E-01 -0.96226580284E-01  0.37124488818E-01  0.10370018530E+00  0.51100000000E-03 0.  1.
         11    1    4    4    0    0  0.16313930515E-02 -0.17653570021E-01  0.16984147652E-01  0.24556717416E-01  0.51100000000E-03 0. -1.
</event>
<event>
 8    1  0.1030163E+005  0.1043930E+01  0.7957747E-01            NaN
         13   -1    0    0    0    0  0.00000000000E+00  0.00000000000E+00  0.74505805969E-08  0.10566000000E+00  0.10566000000E+00 0. -1.
     999900   -1    0    0    0    0 -0.00000000000E+00 -0.00000000000E+00 -0.74505805969E-08  0.93827000000E+00  0.93827000000E+00 0.  1.
     999902    2    1    2    0    0 -0.16587690347E-01 -0.23084598979E-03  0.16726032697E-01  0.10203723063E+01  0.10201003277E+01 0.  0.
     999903    2    3    3    0    0  0.32369212491E-01  0.93913933014E-01  0.84692046696E-01  0.13139570552E+00  0.14983188018E-01 0.  0.
         14    1    1    2    0    0  0.16587690347E-01  0.23084598979E-03 -0.16726032697E-01  0.23557693662E-01  0.00000000000E+00 0.  1.
     999901    1    3    3    0    0 -0.48956902837E-01 -0.94144779004E-01 -0.67966013999E-01  0.88897660082E+00  0.88000000000E+00 0.  1.
        -11    1    4    4    0    0  0.23559227844E-01  0.46017906566E-01  0.45813730667E-01  0.69078534871E-01  0.51100000000E-03 0. -1.
         11    1    4    4    0    0  0.88099846470E-02  0.47896026449E-01  0.38878316028E-01  0.62317170645E-01  0.51100000000E-03 0.  1.
</event>
<event>
 8    1  0.1030163E+005  0.1043930E+01  0.7957747E-01            NaN
         13   -1    0    0    0    0  0.00000000000E+00  0.00000000000E+00  0.74505805969E-08  0.10566000000E+00  0.10566000000E+00 0. -1.
     999900   -1    0    0    0    0 -0.00000000000E+00 -0.00000000000E+00 -0.74505805969E-08  0.93827000000E+00  0.93827000000E+00 0.  1.
     999902    2    1    2    0    0  0.45935785935E-02  0.24448280363E-01 -0.24047689751E-02  0.10189379554E+01  0.10186314126E+01 0.  0.
     999903    2    3    3    0    0  0.97194289583E-02  0.57768657350E-01 -0.11568427402E+00  0.13103662753E+00  0.18869590019E-01 0.  0.
         14    1    1    2    0    0 -0.45935785935E-02 -0.24448280363E-01  0.24047689751E-02  0.24992044550E-01  0.00000000000E+00 0. -1.
     999901    1    3    3    0    0 -0.51258503648E-02 -0.33320376988E-01  0.11327950504E+00  0.88790132792E+00  0.88000000000E+00 0. -1.
        -11    1    4    4    0    0  0.77307686838E-03  0.44130615774E-01 -0.72599602439E-01  0.84965123973E-01  0.51100000000E-03 0. -1.
         11    1    4    4    0    0  0.89463520899E-02  0.13638041576E-01 -0.43084671578E-01  0.46071503554E-01  0.51100000000E-03 0.  1.
</event>
<event>
 8    1  0.1030163E+005  0.1043930E+01  0.7957747E-01            NaN
         13   -1    0    0    0    0  0.00000000000E+00  0.00000000000E+00  0.74505805969E-08  0.10566000000E+00  0.10566000000E+00 0. -1.
     999900   -1    0    0    0    0 -0.00000000000E+00 -0.00000000000E+00 -0.74505805969E-08  0.93827000000E+00  0.93827000000E+00 0. -1.
     999902    2    1    2    0    0 -0.14748048640E-01 -0.35347140638E-02  0.18563316345E-01  0.10199592709E+01  0.10196775561E+01 0.  0.
     999903    2    3    3    0    0  0.89587892453E-01 -0.42516194950E-01  0.82758759472E-01  0.13061872900E+00  0.19458231930E-01 0.  0.
         14    1    1    2    0    0  0.14748048640E-01  0.35347140638E-02 -0.18563316345E-01  0.23970729149E-01  0.00000000000E+00 0. -1.
     999901    1    3    3    0    0 -0.10433594109E+00  0.38981480886E-01 -0.64195443127E-01  0.88934054185E+00  0.88000000000E+00 0. -1.
        -11    1    4    4    0    0  0.36207475268E-01 -0.19976522093E-01  0.46653364126E-01  0.62344528272E-01  0.51100000000E-03 0.  1.
         11    1    4    4    0    0  0.53380417185E-01 -0.22539672857E-01  0.36105395347E-01  0.68274200732E-01  0.51100000000E-03 0. -1.
</event>
<event>
 8    1  0.1030163E+005  0.1043930E+01  0.7957747E-01            NaN
         13   -1    0    0    0    0  0.00000000000E+00  0.00000000000E+00  0.74505805969E-08  0.10566000000E+00  0.10566000000E+00 0.  1.
     999900   -1    0    0    0    0 -0.00000000000E+00 -0.00000000000E+00 -0.74505805969E-08  0.93827000000E+00  0.93827000000E+00 0.  1.
     999902    2    1    2    0    0 -0.18901910713E-01 -0.54058144971E-02  0.10034818967E-01  0.10218573325E+01  0.10216189139E+01 0.  0.
     999903    2    3    3    0    0  0.10456458669E+00 -0.46861958427E-01  0.59925331604E-01  0.13087380229E+00  0.20176987408E-01 0.  0.
         14    1    1    2    0    0  0.18901910713E-01  0.54058144971E-02 -0.10034818967E-01  0.22072667502E-01  0.00000000000E+00 0. -1.
     999901    1    3    3    0    0 -0.12346649740E+00  0.41456143930E-01 -0.49890512638E-01  0.89098353021E+00  0.88000000000E+00 0.  1.
        -11    1    4    4    0    0  0.66681973878E-01 -0.19650045750E-01  0.32242306509E-01  0.76631830125E-01  0.51100000000E-03 0.  1.
         11    1    4    4    0    0  0.37882612811E-01 -0.27211912678E-01  0.27683025095E-01  0.54241972165E-01  0.51100000000E-03 0. -1.
</event>
<event>
 8    1  0.1030163E+005  0.1043930E+01  0.7957747E-01            NaN
         13   -1    0    0    0    0  0.00000000000E+00  0.00000000000E+00  0.74505805969E-08  0.10566000000E+00  0.10566000000E+00 0.  1.
     999900   -1    0    0    0    0 -0.00000000000E+00 -0.00000000000E+00 -0.74505805969E-08  0.93827000000E+00  0.93827000000E+00 0. -1.
     999902    2    1    2    0    0  0.23036275012E-01  0.54424031260E-02 -0.10791938586E-01  0.10179154722E+01  0.10175829956E+01 0.  0.
     999903    2    3    3    0    0  0.21744741070E-01 -0.11628750216E+00 -0.47252064028E-01  0.12878714701E+00  0.18914406096E-01 0.  0.
         14    1    1    2    0    0 -0.23036275012E-01 -0.54424031260E-02  0.10791938586E-01  0.26014527800E-01  0.00000000000E+00 0.  1.
     999901    1    3    3    0    0  0.12915339419E-02  0.12172990529E+00  0.36460125442E-01  0.88912832519E+00  0.88000000000E+00 0.  1.
        -11    1    4    4    0    0  0.11069485395E-01 -0.62937686257E-01 -0.35567666005E-01  0.73136897968E-01  0.51100000000E-03 0. -1.
         11    1    4    4    0    0  0.10675255675E-01 -0.53349815904E-01 -0.11684398023E-01  0.55650249046E-01  0.51100000000E-03 0.  1.
</event>
<event>
 8    1  0.1030163E+005  0.1043930E+01  0.7957747E-01            NaN
         13   -1    0    0    0    0  0.00000000000E+00  0.00000000000E+00  0.74505805969E-08  0.10566000000E+00  0.10566000000E+00 0. -1.
     999900   -1    0    0    0    0 -0.00000000000E+00 -0.00000000000E+00 -0.74505805969E-08  0.93827000000E+00  0.93827000000E+00 0. -1.
     999902    2    1    2    0    0  0.10243626907E-01  0.20891884334E-01 -0.75754200730E-03  0.10206496093E+01  0.10203840690E+01 0.  0.
     999903    2    3    3    0    0 -0.53632249331E-01 -0.95433093655E-01 -0.64455758824E-01  0.12842256926E+00  0.18812706292E-01 0.  0.
         14    1    1    2    0    0 -0.10243626907E-01 -0.20891884334E-01  0.75754200730E-03  0.23280390743E-01  0.00000000000E+00 0.  1.
     999901    1    3    3    0    0  0.63875876239E-01  0.11632497799E+00  0.63698216817E-01  0.89222703999E+00  0.88000000000E+00 0.  1.
        -11    1    4    4    0    0 -0.34688826510E-01 -0.46840865856E-01 -0.27179829314E-01  0.64314738912E-01  0.51100000000E-03 0.  1.
         11    1    4    4    0    0 -0.18943422821E-01 -0.48592227799E-01 -0.37275929510E-01  0.64107830352E-01  0.51100000000E-03 0. -1.
</event>
<event>
 8    1  0.1030163E+005  0.1043930E+01  0.7957747E-01            NaN
         13   -1    0    0    0    0  0.00000000000E+00  0.00000000000E+00  0.74505805969E-08  0.10566000000E+00  0.10566000000E+00 0. -1.
     999900   -1    0    0    0    0 -0.00000000000E+00 -0.00000000000E+00 -0.74505805969E-08  0.93827000000E+00  0.93827000000E+00 0.  1.
     999902    2    1    2    0    0 -0.19761666389E-02 -0.22303259967E-02  0.23880072981E-01  0.10198647247E+01  0.10195807566E+01 0.  0.
     999903    2    3    3    0    0 -0.47211981302E-01 -0.27209395229E-01  0.11985112422E+00  0.13314003492E+00  0.19815512966E-01 0.  0.
         14    1    1    2    0    0  0.19761666389E-02  0.22303259967E-02 -0.23880072981E-01  0.24065275278E-01  0.00000000000E+00 0.  1.
     999901    1    3    3    0    0  0.45235814663E-01  0.24979069232E-01 -0.95971051240E-01  0.88672468980E+00  0.88000000000E+00 0.  1.
        -11    1    4    4    0    0 -0.14532480086E-01 -0.18962661226E-01  0.57334214997E-01  0.62114803618E-01  0.51100000000E-03 0.  1.
         11    1    4    4    0    0 -0.32679501217E-01 -0.82467340034E-02  0.62516909225E-01  0.71025231302E-01  0.51100000000E-03 0. -1.
</event>
<event>
 8    1  0.1030163E+005  0.1043930E+01  0.7957747E-01            NaN
         13   -1    0    0    0    0  0.00000000000E+00  0.00000000000E+00  0.74505805969E-08  0.10566000000E+00  0.10566000000E+00 0.  1.
     999900   -1    0    0    0    0 -0.00000000000E+00 -0.00000000000E+00 -0.74505805969E-08  0.93827000000E+00  0.93827000000E+00 0. -1.
     999902    2    1    2    0    0  0.89877568698E-02 -0.13290964672E-01 -0.17137332859E-01  0.10204541040E+01  0.10201840328E+01 0.  0.
     999903    2    3    3    0    0  0.12303530526E+00  0.41139575813E-01  0.22527388070E-02  0.13121538357E+00  0.19551240765E-01 0.  0.
         14    1    1    2    0    0 -0.89877568698E-02  0.13290964672E-01  0.17137332859E-01  0.23475895999E-01  0.00000000000E+00 0.  1.
     999901    1    3    3    0    0 -0.11404754839E+00 -0.54430540485E-01 -0.19390071666E-01  0.88923872043E+00  0.88000000000E+00 0.  1.
        -11    1    4    4    0    0  0.70864596845E-01  0.13525042421E-01  0.10059774876E-03  0.72145610396E-01  0.51100000000E-03 0.  1.
         11    1    4    4    0    0  0.52170708414E-01  0.27614533392E-01  0.21521410583E-02  0.59069773176E-01  0.51100000000E-03 0. -1.
</event>
<event>
 8    1  0.1030163E+005  0.1043930E+01  0.7957747E-01            NaN
         13   -1    0    0    0    0  0.00000000000E+00  0.00000000000E+00  0.74505805969E-08  0.10566000000E+00  0.10566000000E+00 0. -1.
     999900   -1    0    0    0    0 -0.00000000000E+00 -0.00000000000E+00 -0.74505805969E-08  0.93827000000E+00  0.93827000000E+00 0.  1.
     999902    2    1    2    0    0 -0.20133042665E-01  0.51483178591E-02 -0.10955525160E-01  0.10204381266E+01  0.10201676833E+01 0.  0.
     999903    2    3    3    0    0  0.28983681218E-01  0.11304486803E+00  0.53984245215E-01  0.13011723397E+00  0.19924855820E-01 0.  0.
         14    1    1    2    0    0  0.20133042665E-01 -0.51483178591E-02  0.10955525160E-01  0.23491873388E-01  0.00000000000E+00 0.  1.
     999901    1    3    3    0    0 -0.49116723883E-01 -0.10789655017E+00 -0.64939770375E-01  0.89032089264E+00  0.88000000000E+00 0.  1.
        -11    1    4    4    0    0  0.19464328393E-01  0.74881761714E-01  0.25191201728E-01  0.81369503394E-01  0.51100000000E-03 0.  1.
         11    1    4    4    0    0  0.95193528252E-02  0.38163106315E-01  0.28793043487E-01  0.48747730573E-01  0.51100000000E-03 0. -1.
</event>
<event>
 8    1  0.1030163E+005  0.1043930E+01  0.7957747E-01            NaN
         13   -1    0    0    0    0  0.00000000000E+00  0.00000000000E+00  0.74505805969E-08  0.10566000000E+00  0.10566000000E+00 0.  1.
     999900   -1    0    0    0    0 -0.00000000000E+00 -0.00000000000E+00 -0.74505805969E-08  0.93827000000E+00  0.93827000000E+00 0. -1.
     999902    2    1    2    0    0  0.11110501752E-02 -0.13846617185E-01  0.20170093843E-01  0.10194392686E+01  0.10191450468E+01 0.  0.
     999903    2    3    3    0    0  0.10964365340E-01  0.61409772469E-01 -0.10872051269E+00  0.12681762395E+00  0.19266094623E-01 0.  0.
         14    1    1    2    0    0 -0.11110501752E-02  0.13846617185E-01 -0.20170093843E-01  0.24490731423E-01  0.00000000000E+00 0. -1.
     999901    1    3    3    0    0 -0.98533151652E-02 -0.75256389654E-01  0.12889060654E+00  0.89262164463E+00  0.88000000000E+00 0.  1.
        -11    1    4    4    0    0  0.13143722291E-01  0.25204874560E-01 -0.56285809954E-01  0.63058676329E-01  0.51100000000E-03 0.  1.
         11    1    4    4    0    0 -0.21793569503E-02  0.36204897909E-01 -0.52434702740E-01  0.63758947621E-01  0.51100000000E-03 0. -1.
</event>
<event>
 8    1  0.1030163E+005  0.1043930E+01  0.7957747E-01            NaN
         13   -1    0    0    0    0  0.00000000000E+00  0.00000000000E+00  0.74505805969E-08  0.10566000000E+00  0.10566000000E+00 0.  1.
     999900   -1    0    0    0    0 -0.00000000000E+00 -0.00000000000E+00 -0.74505805969E-08  0.93827000000E+00  0.93827000000E+00 0. -1.
     999902    2    1    2    0    0  0.22411137325E-02  0.27635449765E-01  0.36027834687E-02  0.10159707310E+01  0.10155859420E+01 0.  0.
     999903    2    3    3    0    0 -0.17240016538E-01  0.12535493509E+00 -0.21709957025E-01  0.12998577228E+00  0.20344553042E-01 0.  0.
         14    1    1    2    0    0 -0.22411137325E-02 -0.27635449765E-01 -0.36027834687E-02  0.27959269004E-01  0.00000000000E+00 0. -1.
     999901    1    3    3    0    0  0.19481130271E-01 -0.97719485324E-01  0.25312740493E-01  0.88598495872E+00  0.88000000000E+00 0. -1.
        -11    1    4    4    0    0 -0.13429802970E-01  0.31901519443E-01 -0.51212201735E-02  0.34993636102E-01  0.51100000000E-03 0.  1.
         11    1    4    4    0    0 -0.38102135685E-02  0.93453415647E-01 -0.16588736851E-01  0.94992136174E-01  0.51100000000E-03 0. -1.
</event>
<event>
 8    1  0.1030163E+005  0.1043930E+01  0.7957747E-01            NaN
         13   -1    0    0    0    0  0.00000000000E+00  0.00000000000E+00  0.74505805969E-08  0.10566000000E+00  0.10566000000E+00 0. -1.
     999900   -1    0    0    0    0 -0.00000000000E+00 -0.00000000000E+00 -0.74505805969E-08  0.93827000000E+00  0.93827000000E+00 0.  1.
     999902    2    1    2    0    0 -0.43798125230E-02  0.23001990820E-01 -0.68203148357E-03  0.10205048104E+01  0.10202359181E+01 0.  0.
     999903    2    3    3    0    0  0.11117059082E-01  0.10024878824E+00 -0.84351885877E-01  0.13303206985E+00  0.20220841022E-01 0.  0.
         14    1    1    2    0    0  0.43798125230E-02 -0.23001990820E-01  0.68203148357E-03  0.23425189570E-01  0.00000000000E+00 0.  1.
     999901    1    3    3    0    0 -0.15496871605E-01 -0.77246797417E-01  0.83669854393E-01  0.88747274058E+00  0.88000000000E+00 0. -1.
        -11    1    4    4    0    0  0.23958621291E-02  0.24933822934E-01 -0.33108498106E-01  0.41519506852E-01  0.51100000000E-03 0. -1.
         11    1    4    4    0    0  0.87211969526E-02  0.75314965303E-01 -0.51243387771E-01  0.91512562996E-01  0.51100000000E-03 0.  1.
</event>
<event>
 8    1  0.1030163E+005  0.1043930E+01  0.7957747E-01            NaN
         13   -1    0    0    0    0  0.00000000000E+00  0.00000000000E+00  0.74505805969E-08  0.10566000000E+00  0.10566000000E+00 0.  1.
     999900   -1    0    0    0    0 -0.00000000000E+00 -0.00000000000E+00 -0.74505805969E-08  0.93827000000E+00  0.93827000000E+00 0. -1.
     999902    2    1    2    0    0 -0.20027165525E-01 -0.12054248042E-01 -0.71295799653E-02  0.10194918502E+01  0.10191989057E+01 0.  0.
     999903    2    3    3    0    0  0.95177416071E-01  0.54137052374E-02  0.81952749155E-01  0.12735235082E+00  0.20354838003E-01 0.  0.
         14    1    1    2    0    0  0.20027165525E-01  0.12054248042E-01  0.71295799653E-02  0.24438149793E-01  0.00000000000E+00 0. -1.
     999901    1    3    3    0    0 -0.11520458160E+00 -0.17467953279E-01 -0.89082329120E-01  0.89213949939E+00  0.88000000000E+00 0. -1.
        -11    1    4    4    0    0  0.52343971488E-01  0.12814464199E-01  0.48450700421E-01  0.72469533848E-01  0.51100000000E-03 0. -1.
         11    1    4    4    0    0  0.42833444583E-01 -0.74007589616E-02  0.33502048734E-01  0.54882816969E-01  0.51100000000E-03 0.  1.
</event>
<event>
 8    1  0.1030163E+005  0.1043930E+01  0.7957747E-01            NaN
         13   -1    0    0    0    0  0.00000000000E+00  0.00000000000E+00  0.74505805969E-08  0.10566000000E+00  0.10566000000E+00 0.  1.
     999900   -1    0    0    0    0 -0.00000000000E+00 -0.00000000000E+00 -0.74505805969E-08  0.93827000000E+00  0.93827000000E+00 0. -1.
     999902    2    1    2    0    0  0.22620593759E-01  0.53565254272E-02  0.37103772773E-02  0.10203895980E+01  0.10201180232E+01 0.  0.
     999903    2    3    3    0    0  0.24516363862E-01 -0.12517079824E+00 -0.18749086836E-01  0.13047645410E+00  0.20094675566E-01 0.  0.
         14    1    1    2    0    0 -0.22620593759E-01 -0.53565254272E-02 -0.37103772773E-02  0.23540401998E-01  0.00000000000E+00 0. -1.
     999901    1    3    3    0    0 -0.18957701031E-02  0.13052732367E+00  0.22459464113E-01  0.88991314391E+00  0.88000000000E+00 0.  1.
        -11    1    4    4    0    0  0.17421604635E-01 -0.99401780384E-01 -0.66612326133E-02  0.10113782375E+00  0.51100000000E-03 0.  1.
         11    1    4    4    0    0  0.70947592268E-02 -0.25769017861E-01 -0.12087854223E-01  0.29338630348E-01  0.51100000000E-03 0. -1.
</event>
<event>
 8    1  0.1030163E+005  0.1043930E+01  0.7957747E-01            NaN
         13   -1    0    0    0    0  0.00000000000E+00  0.00000000000E+00  0.74505805969E-08  0.10566000000E+00  0.10566000000E+00 0.  1.
     999900   -1    0    0    0    0 -0.00000000000E+00 -0.00000000000E+00 -0.74505805969E-08  0.93827000000E+00  0.93827000000E+00 0.  1.
     999902    2    1    2    0    0 -0.22480713245E-01 -0.75247648545E-04  0.82473574146E-02  0.10199840810E+01  0.10197029560E+01 0.  0.
     999903    2    3    3    0    0 -0.38673537974E-01  0.10196556423E+00 -0.69129923356E-01  0.13056754284E+00  0.19398920362E-01 0.  0.
         14    1    1    2    0    0  0.22480713245E-01  0.75247648545E-04 -0.82473574146E-02  0.23945918953E-01  0.00000000000E+00 0. -1.
     999901    1    3    3    0    0  0.16192824729E-01 -0.10204081188E+00  0.77377280771E-01  0.88941653821E+00  0.88000000000E+00 0. -1.
        -11    1    4    4    0    0 -0.38678926863E-01  0.86626356603E-01 -0.63768144344E-01  0.11431020250E+00  0.51100000000E-03 0.  1.
         11    1    4    4    0    0  0.53888887934E-05  0.15339207626E-01 -0.53617790119E-02  0.16257340337E-01  0.51100000000E-03 0. -1.
</event>
<event>
 8    1  0.1030163E+005  0.1043930E+01  0.7957747E-01            NaN
         13   -1    0    0    0    0  0.00000000000E+00  0.00000000000E+00  0.74505805969E-08  0.10566000000E+00  0.10566000000E+00 0. -1.
     999900   -1    0    0    0    0 -0.00000000000E+00 -0.00000000000E+00 -0.74505805969E-08  0.93827000000E+00  0.93827000000E+00 0.  1.
     999902    2    1    2    0    0  0.34327480371E-02 -0.29605626983E-01  0.74469049414E-02  0.10132097575E+01  0.10127439357E+01 0.  0.
     999903    2    3    3    0    0 -0.96378404901E-01  0.50520864109E-01 -0.51444207010E-01  0.12200232713E+00  0.19922518609E-01 0.  0.
         14    1    1    2    0    0 -0.34327480371E-02  0.29605626983E-01 -0.74469049414E-02  0.30720242534E-01  0.00000000000E+00 0. -1.
     999901    1    3    3    0    0  0.99811152938E-01 -0.80126491093E-01  0.58891111951E-01  0.89120743034E+00  0.88000000000E+00 0. -1.
        -11    1    4    4    0    0 -0.43237632397E-01  0.11721460422E-01 -0.22111728017E-01  0.49960735849E-01  0.51100000000E-03 0. -1.
         11    1    4    4    0    0 -0.53140772504E-01  0.38799403688E-01 -0.29332478993E-01  0.72041591277E-01  0.51100000000E-03 0.  1.
</event>
<event>
 8    1  0.1030163E+005  0.1043930E+01  0.7957747E-01            NaN
         13   -1    0    0    0    0  0.00000000000E+00  0.00000000000E+00  0.74505805969E-08  0.10566000000E+00  0.10566000000E+00 0. -1.
     999900   -1    0    0    0    0 -0.00000000000E+00 -0.00000000000E+00 -0.74505805969E-08  0.93827000000E+00  0.93827000000E+00 0.  1.
     999902    2    1    2    0    0  0.15949257578E-02 -0.69853169728E-02 -0.22485453590E-01  0.10203305495E+01  0.10200575945E+01 0.  0.
     999903    2    3    3    0    0 -0.88433537112E-01 -0.88930485874E-01 -0.35697146859E-01  0.13185169005E+00  0.19531002796E-01 0.  0.
         14    1    1    2    0    0 -0.15949257578E-02  0.69853169728E-02  0.22485453590E-01  0.23599450514E-01  0.00000000000E+00 0. -1.
     999901    1    3    3    0    0  0.90028462870E-01  0.81945168901E-01  0.13211693269E-01  0.88847885944E+00  0.88000000000E+00 0. -1.
        -11    1    4    4    0    0 -0.83736467162E-01 -0.79386363115E-01 -0.28070077249E-01  0.11875260393E+00  0.51100000000E-03 0.  1.
         11    1    4    4    0    0 -0.46970699502E-02 -0.95441227594E-02 -0.76270696100E-02  0.13099086121E-01  0.51100000000E-03 0. -1.
</event>
<event>
 8    1  0.1030163E+005  0.1043930E+01  0.7957747E-01            NaN
         13   -1    0    0    0    0  0.00000000000E+00  0.00000000000E+00  0.74505805969E-08  0.10566000000E+00  0.10566000000E+00 0.  1.
     999900   -1    0    0    0    0 -0.00000000000E+00 -0.00000000000E+00 -0.74505805969E-08  0.93827000000E+00  0.93827000000E+00 0. -1.
     999902    2    1    2    0    0 -0.70884613515E-02  0.19151621672E-01 -0.10746546586E-01  0.10208536233E+01  0.10205927695E+01 0.  0.
     999903    2    3    3    0    0  0.84715837762E-01 -0.71949759892E-01  0.61206935034E-01  0.12849450583E+00  0.20273332625E-01 0.  0.
         14    1    1    2    0    0  0.70884613515E-02 -0.19151621672E-01  0.10746546586E-01  0.23076376677E-01  0.00000000000E+00 0.  1.
     999901    1    3    3    0    0 -0.91804299113E-01  0.91101381564E-01 -0.71953481619E-01  0.89235911749E+00  0.88000000000E+00 0. -1.
        -11    1    4    4    0    0  0.29539389468E-01 -0.17281223276E-01  0.10770784970E-01  0.35881571006E-01  0.51100000000E-03 0.  1.
         11    1    4    4    0    0  0.55176448294E-01 -0.54668536616E-01  0.50436150064E-01  0.92612934822E-01  0.51100000000E-03 0. -1.
</event>
<event>
 8    1  0.1030163E+005  0.1043930E+01  0.7957747E-01            NaN
         13   -1    0    0    0    0  0.00000000000E+00  0.00000000000E+00  0.74505805969E-08  0.10566000000E+00  0.10566000000E+00 0. -1.
     999900   -1    0    0    0    0 -0.00000000000E+00 -0.00000000000E+00 -0.74505805969E-08  0.93827000000E+00  0.93827000000E+00 0.  1.
     999902    2    1    2    0    0  0.22796316569E-01  0.31227833736E-02  0.55836727175E-02  0.10202529811E+01  0.10199782077E+01 0.  0.
     999903    2    3    3    0    0  0.13205878240E-01  0.12699348811E+00  0.24146681391E-01  0.13133199846E+00  0.19060177230E-01 0.  0.
         14    1    1    2    0    0 -0.22796316569E-01 -0.31227833736E-02 -0.55836727175E-02  0.23677018945E-01  0.00000000000E+00 0.  1.
     999901    1    3    3    0    0  0.95904383292E-02 -0.12387070474E+00 -0.18563008673E-01  0.88892098259E+00  0.88000000000E+00 0. -1.
        -11    1    4    4    0    0 -0.10145473775E-02  0.79576198848E-01  0.14494262387E-01  0.80893420577E-01  0.51100000000E-03 0.  1.
         11    1    4    4    0    0  0.14220425617E-01  0.47417289261E-01  0.96524190037E-02  0.50438577887E-01  0.51100000000E-03 0. -1.
</event>
<event>
 8    1  0.1030163E+005  0.1043930E+01  0.7957747E-01            NaN
         13   -1    0    0    0    0  0.00000000000E+00  0.00000000000E+00  0.74505805969E-08  0.10566000000E+00  0.10566000000E+00 0.  1.
     999900   -1    0    0    0    0 -0.00000000000E+00 -0.00000000000E+00 -0.74505805969E-08  0.93827000000E+00  0.93827000000E+00 0. -1.
     999902    2    1    2    0    0 -0.11959483300E-01  0.47294968194E-02 -0.20668241649E-01  0.10195871655E+01  0.10192965292E+01 0.  0.
     999903    2    3    3    0    0  0.20322557279E-01 -0.13775368883E-01 -0.12843765765E+00  0.13223221549E+00  0.19656036957E-01 0.  0.
         14    1    1    2    0    0  0.11959483300E-01 -0.47294968194E-02  0.20668241649E-01  0.24342834548E-01  0.00000000000E+00 0.  1.
     999901    1    3    3    0    0 -0.32282040579E-01  0.18504865703E-01  0.10776941600E+00  0.88735494996E+00  0.88000000000E+00 0.  1.
        -11    1    4    4    0    0  0.15894163350E-01 -0.46335775924E-03 -0.88012768554E-01  0.89439072438E-01  0.51100000000E-03 0. -1.
         11    1    4    4    0    0  0.44283939294E-02 -0.13312011124E-01 -0.40424889093E-01  0.42793143051E-01  0.51100000000E-03 0.  1.
</event>
<event>
 8    1  0.1030163E+005  0.1043930E+01  0.7957747E-01            NaN
         13   -1    0    0    0    0  0.00000000000E+00  0.00000000000E+00  0.74505805969E-08  0.10566000000E+00  0.10566000000E+00 0. -1.
     999900   -1    0    0    0    0 -0.00000000000E+00 -0.00000000000E+00 -0.74505805969E-08  0.93827000000E+00  0.93827000000E+00 0.  1.
     999902    2    1    2    0    0  0.31966625301E-03 -0.91408722783E-02  0.21790837944E-01  0.10202974303E+01  0.10200236997E+01 0.  0.
     999903    2    3    3    0    0 -0.60813232649E-01  0.97280901754E-01  0.58726446005E-01  0.13101285016E+00  0.23531857908E-01 0.  0.
         14    1    1    2    0    0 -0.31966625301E-03  0.91408722783E-02 -0.21790837944E-01  0.23632569704E-01  0.00000000000E+00 0.  1.
     999901    1    3    3    0    0  0.61132898902E-01 -0.10642177403E+00 -0.36935608061E-01  0.88928458013E+00  0.88000000000E+00 0. -1.
        -11    1    4    4    0    0 -0.10448859654E-01  0.37419336775E-01  0.18158697065E-01  0.42888050001E-01  0.51100000000E-03 0.  1.
         11    1    4    4    0    0 -0.50364372995E-01  0.59861564978E-01  0.40567748940E-01  0.88124800164E-01  0.51100000000E-03 0. -1.
</event>
<event>
 8    1  0.1030163E+005  0.1043930E+01  0.7957747E-01            NaN
         13   -1    0    0    0    0  0.00000000000E+00  0.00000000000E+00  0.74505805969E-08  0.10566000000E+00  0.10566000000E+00 0. -1.
     999900   -1    0    0    0    0 -0.00000000000E+00 -0.00000000000E+00 -0.74505805969E-08  0.93827000000E+00  0.93827000000E+00 0.  1.
     999902    2    1    2    0    0  0.16061538435E-01 -0.58692698160E-02  0.16575737937E-01  0.10201145337E+01  0.10198364994E+01 0.  0.
     999903    2    3    3    0    0 -0.58149245960E-01 -0.66701994269E-01 -0.90892597727E-01  0.12839860136E+00  0.19855620486E-01 0.  0.
         14    1    1    2    0    0 -0.16061538435E-01  0.58692698160E-02 -0.16575737937E-01  0.23815466261E-01  0.00000000000E+00 0.  1.
     999901    1    3    3    0    0  0.74210784395E-01  0.60832724453E-01  0.10746833566E+00  0.89171593238E+00  0.88000000000E+00 0.  1.
        -11    1    4    4    0    0 -0.33619597880E-01 -0.25067302178E-01 -0.36069025566E-01  0.55316206724E-01  0.51100000000E-03 0. -1.
         11    1    4    4    0    0 -0.24529648081E-01 -0.41634692092E-01 -0.54823572161E-01  0.73082394638E-01  0.51100000000E-03 0.  1.
</event>
<event>
 8    1  0.1459224E+005  0.1043930E+01  0.7957747E-01            NaN
         13   -1    0    0    0    0  0.00000000000E+00  0.00000000000E+00  0.74505805969E-08  0.10566000000E+00  0.10566000000E+00 0.  1.
     999900   -1    0    0    0    0 -0.00000000000E+00 -0.00000000000E+00 -0.74505805969E-08  0.93827000000E+00  0.93827000000E+00 0.  1.
     999902    2    1    2    0    0  0.19719189576E-01 -0.36689040762E-02 -0.13721323241E-01  0.10196281069E+01  0.10193384592E+01 0.  0.
     999903    2    3    3    0    0 -0.66182087113E-01  0.52122072574E-01 -0.96898543105E-01  0.12979098010E+00  0.18962904691E-01 0.  0.
         14    1    1    2    0    0 -0.19719189576E-01  0.36689040762E-02  0.13721323241E-01  0.24301893057E-01  0.00000000000E+00 0.  1.
     999901    1    3    3    0    0  0.85901276689E-01 -0.55790976650E-01  0.83177219863E-01  0.88983712685E+00  0.88000000000E+00 0. -1.
        -11    1    4    4    0    0 -0.23191606993E-01  0.11163851169E-01 -0.39881351054E-01  0.47468573717E-01  0.51100000000E-03 0. -1.
         11    1    4    4    0    0 -0.42990480120E-01  0.40958221404E-01 -0.57017192050E-01  0.82322406378E-01  0.51100000000E-03 0.  1.
</event>
<event>
 8    1  0.1030163E+005  0.1043930E+01  0.7957747E-01            NaN
         13   -1    0    0    0    0  0.00000000000E+00  0.00000000000E+00  0.74505805969E-08  0.10566000000E+00  0.10566000000E+00 0. -1.
     999900   -1    0    0    0    0 -0.00000000000E+00 -0.00000000000E+00 -0.74505805969E-08  0.93827000000E+00  0.93827000000E+00 0. -1.
     999902    2    1    2    0    0 -0.13314643070E-01  0.28019514776E-02 -0.20857447851E-01  0.10190269122E+01  0.10187225746E+01 0.  0.
     999903    2    3    3    0    0 -0.12242534408E+00 -0.27306321330E-01 -0.34840546851E-01  0.13166724427E+00  0.19717998148E-01 0.  0.
         14    1    1    2    0    0  0.13314643070E-01 -0.28019514776E-02  0.20857447851E-01  0.24903087822E-01  0.00000000000E+00 0. -1.
     999901    1    3    3    0    0  0.10911070101E+00  0.30108272808E-01  0.13983099000E-01  0.88735966791E+00  0.88000000000E+00 0. -1.
        -11    1    4    4    0    0 -0.30689941651E-01 -0.10936181823E-01 -0.12376217467E-02  0.32607750919E-01  0.51100000000E-03 0. -1.
         11    1    4    4    0    0 -0.91735402433E-01 -0.16370139507E-01 -0.33602925104E-01  0.99059493355E-01  0.51100000000E-03 0.  1.
</event>
<event>
 8    1  0.1030163E+005  0.1043930E+01  0.7957747E-01            NaN
         13   -1    0    0    0    0  0.00000000000E+00  0.00000000000E+00  0.74505805969E-08  0.10566000000E+00  0.10566000000E+00 0. -1.
     999900   -1    0    0    0    0 -0.00000000000E+00 -0.00000000000E+00 -0.74505805969E-08  0.93827000000E+00  0.93827000000E+00 0. -1.
     999902    2    1    2    0    0  0.74778035916E-02 -0.16108781514E-01  0.13076726690E-01  0.10218752688E+01  0.10216372418E+01 0.  0.
     999903    2    3    3    0    0  0.52314046548E-01 -0.23733139799E-01 -0.11555514699E+00  0.13136160889E+00  0.24553185181E-01 0.  0.
         14    1    1    2    0    0 -0.74778035916E-02  0.16108781514E-01 -0.13076726690E-01  0.22054731223E-01  0.00000000000E+00 0. -1.
     999901    1    3    3    0    0 -0.44836242956E-01  0.76243582856E-02  0.12863187368E+00  0.89051365989E+00  0.88000000000E+00 0.  1.
        -11    1    4    4    0    0  0.24741612468E-01 -0.23221853842E-01 -0.74945328371E-01  0.82270682803E-01  0.51100000000E-03 0. -1.
         11    1    4    4    0    0  0.27572434081E-01 -0.51128595774E-03 -0.40609818620E-01  0.49090926084E-01  0.51100000000E-03 0.  1.
</event>
<event>
 8    1  0.1030163E+005  0.1043930E+01  0.7957747E-01            NaN
         13   -1    0    0    0    0  0.00000000000E+00  0.00000000000E+00  0.74505805969E-08  0.10566000000E+00  0.10566000000E+00 0.  1.
     999900   -1    0    0    0    0 -0.00000000000E+00 -0.00000000000E+00 -0.74505805969E-08  0.93827000000E+00  0.93827000000E+00 0. -1.
     999902    2    1    2    0    0 -0.15682031354E-01 -0.15753576319E-01 -0.96052395899E-02  0.10197150893E+01  0.10194275361E+01 0.  0.
     999903    2    3    3    0    0  0.10341867958E+00  0.38797381381E-02  0.71834758014E-01  0.12774932782E+00  0.21193929470E-01 0.  0.
         14    1    1    2    0    0  0.15682031354E-01  0.15753576319E-01  0.96052395899E-02  0.24214910733E-01  0.00000000000E+00 0.  1.
     999901    1    3    3    0    0 -0.11910071093E+00 -0.19633314457E-01 -0.81439997604E-01  0.89196576145E+00  0.88000000000E+00 0.  1.
        -11    1    4    4    0    0  0.61918534516E-01  0.59049923433E-02  0.31031623656E-01  0.69512564612E-01  0.51100000000E-03 0.  1.
         11    1    4    4    0    0  0.41500145062E-01 -0.20252542053E-02  0.40803134358E-01  0.58236763210E-01  0.51100000000E-03 0. -1.
</event>
<event>
 8    1  0.1030163E+005  0.1043930E+01  0.7957747E-01            NaN
         13   -1    0    0    0    0  0.00000000000E+00  0.00000000000E+00  0.74505805969E-08  0.10566000000E+00  0.10566000000E+00 0.  1.
     999900   -1    0    0    0    0 -0.00000000000E+00 -0.00000000000E+00 -0.74505805969E-08  0.93827000000E+00  0.93827000000E+00 0.  1.
     999902    2    1    2    0    0  0.14062134256E-01 -0.19313041464E-01 -0.79240336872E-02  0.10187600278E+01  0.10184490497E+01 0.  0.
     999903    2    3    3    0    0  0.30191034592E-01 -0.10043365305E+00  0.75865094056E-01  0.13091921269E+00  0.19644605401E-01 0.  0.
         14    1    1    2    0    0 -0.14062134256E-01  0.19313041464E-01  0.79240336872E-02  0.25169972195E-01  0.00000000000E+00 0.  1.
     999901    1    3    3    0    0 -0.16128900336E-01  0.81120611586E-01 -0.83789127743E-01  0.88784081511E+00  0.88000000000E+00 0.  1.
        -11    1    4    4    0    0  0.20885374477E-01 -0.74967372089E-01  0.66067114751E-01  0.10208540796E+00  0.51100000000E-03 0.  1.
         11    1    4    4    0    0  0.93056601152E-02 -0.25466280961E-01  0.97979793045E-02  0.28833804737E-01  0.51100000000E-03 0. -1.
</event>
<event>
 8    1  0.1030163E+005  0.1043930E+01  0.7957747E-01            NaN
         13   -1    0    0    0    0  0.00000000000E+00  0.00000000000E+00  0.74505805969E-08  0.10566000000E+00  0.10566000000E+00 0. -1.
     999900   -1    0    0    0    0 -0.00000000000E+00 -0.00000000000E+00 -0.74505805969E-08  0.93827000000E+00  0.93827000000E+00 0.  1.
     999902    2    1    2    0    0 -0.82118510065E-02 -0.19531900586E-01  0.10953054608E-01  0.10200783954E+01  0.10197995066E+01 0.  0.
     999903    2    3    3    0    0  0.12529147273E+00 -0.21138542014E-01  0.17328702322E-01  0.12998493533E+00  0.21236958126E-01 0.  0.
         14    1    1    2    0    0  0.82118510065E-02  0.19531900586E-01 -0.10953054608E-01  0.23851604615E-01  0.00000000000E+00 0. -1.
     999901    1    3    3    0    0 -0.13350332374E+00  0.16066414284E-02 -0.63756477134E-02  0.89009346005E+00  0.88000000000E+00 0.  1.
        -11    1    4    4    0    0  0.34908394450E-01 -0.13892011776E-01 -0.48244371675E-03  0.37577624555E-01  0.51100000000E-03 0. -1.
         11    1    4    4    0    0  0.90383078285E-01 -0.72465302382E-02  0.17811146038E-01  0.92407310776E-01  0.51100000000E-03 0.  1.
</event>
<event>
 8    1  0.1030163E+005  0.1043930E+01  0.7957747E-01            NaN
         13   -1    0    0    0    0  0.00000000000E+00  0.00000000000E+00  0.74505805969E-08  0.10566000000E+00  0.10566000000E+00 0.  1.
     999900   -1    0    0    0    0 -0.00000000000E+00 -0.00000000000E+00 -0.74505805969E-08  0.93827000000E+00  0.93827000000E+00 0. -1.
     999902    2    1    2    0    0 -0.10920166366E-01  0.16924797636E-01  0.12739589085E-01  0.10200973346E+01  0.10198188938E+01 0.  0.
     999903    2    3    3    0    0  0.46035934061E-01  0.55342964725E-02  0.12077321694E+00  0.13159015647E+00  0.24080358985E-01 0.  0.
         14    1    1    2    0    0  0.10920166366E-01 -0.16924797636E-01 -0.12739589085E-01  0.23832665368E-01  0.00000000000E+00 0. -1.
     999901    1    3    3    0    0 -0.56956100427E-01  0.11390501163E-01 -0.10803362785E+00  0.88850717816E+00  0.88000000000E+00 0. -1.
        -11    1    4    4    0    0  0.37044232795E-01  0.10474667069E-01  0.70986799037E-01  0.80755065427E-01  0.51100000000E-03 0.  1.
         11    1    4    4    0    0  0.89917012659E-02 -0.49403705968E-02  0.49786417901E-01  0.50835091046E-01  0.51100000000E-03 0. -1.
</event>
<event>
 8    1  0.1030163E+005  0.1043930E+01  0.7957747E-01            NaN
         13   -1    0    0    0    0  0.00000000000E+00  0.00000000000E+00  0.74505805969E-08  0.10566000000E+00  0.10566000000E+00 0. -1.
     999900   -1    0    0    0    0 -0.00000000000E+00 -0.00000000000E+00 -0.74505805969E-08  0.93827000000E+00  0.93827000000E+00 0. -1.
     999902    2    1    2    0    0  0.17176826762E-01  0.26023244029E-02  0.47829762105E-04  0.10265570970E+01  0.10264100816E+01 0.  0.
     999903    2    3    3    0    0  0.86770389950E-01 -0.12218749890E-01  0.10422952367E+00  0.13755948532E+00  0.19504357874E-01 0.  0.
         14    1    1    2    0    0 -0.17176826762E-01 -0.26023244029E-02 -0.47829762105E-04  0.17372902970E-01  0.00000000000E+00 0.  1.
     999901    1    3    3    0    0 -0.69593563188E-01  0.14821074293E-01 -0.10418169391E+00  0.88899761171E+00  0.88000000000E+00 0. -1.
        -11    1    4    4    0    0  0.66343606345E-01 -0.17581386013E-01  0.78813268076E-01  0.10451015062E+00  0.51100000000E-03 0.  1.
         11    1    4    4    0    0  0.20426783605E-01  0.53626361228E-02  0.25416255594E-01  0.33049334699E-01  0.51100000000E-03 0. -1.
</event>
<event>
 8    1  0.1030163E+005  0.1043930E+01  0.7957747E-01            NaN
         13   -1    0    0    0    0  0.00000000000E+00  0.00000000000E+00  0.74505805969E-08  0.10566000000E+00  0.10566000000E+00 0.  1.
     999900   -1    0    0    0    0 -0.00000000000E+00 -0.00000000000E+00 -0.74505805969E-08  0.93827000000E+00  0.93827000000E+00 0.  1.
     999902    2    1    2    0    0 -0.22053785370E-01 -0.31986423179E-02  0.38395572104E-02  0.10213171063E+01  0.10210667406E+01 0.  0.
     999903    2    3    3    0    0 -0.62960382273E-01 -0.10429811003E-01 -0.11431836382E+00  0.13244876185E+00  0.20029865601E-01 0.  0.
         14    1    1    2    0    0  0.22053785370E-01  0.31986423179E-02 -0.38395572104E-02  0.22612893698E-01  0.00000000000E+00 0. -1.
     999901    1    3    3    0    0  0.40906596904E-01  0.72311686856E-02  0.11815792103E+00  0.88886834445E+00  0.88000000000E+00 0. -1.
        -11    1    4    4    0    0 -0.14321952215E-01  0.38027289479E-02 -0.38451471693E-01  0.41211113296E-01  0.51100000000E-03 0.  1.
         11    1    4    4    0    0 -0.48638430058E-01 -0.14232539951E-01 -0.75866892123E-01  0.91237648552E-01  0.51100000000E-03 0. -1.
</event>
<event>
 8    1  0.1030163E+005  0.1043930E+01  0.7957747E-01            NaN
         13   -1    0    0    0    0  0.00000000000E+00  0.00000000000E+00  0.74505805969E-08  0.10566000000E+00  0.10566000000E+00 0. -1.
     999900   -1    0    0    0    0 -0.00000000000E+00 -0.00000000000E+00 -0.74505805969E-08  0.93827000000E+00  0.93827000000E+00 0. -1.
     999902    2    1    2    0    0  0.72068965900E-02 -0.19627247503E-01  0.12795786637E-01  0.10194167310E+01  0.10191219608E+01 0.  0.
     999903    2    3    3    0    0  0.56537672265E-01 -0.98558376044E-01  0.66097047836E-01  0.13290408417E+00  0.19606478106E-01 0.  0.
         14    1    1    2    0    0 -0.72068965900E-02  0.19627247503E-01 -0.12795786637E-01  0.24513269033E-01  0.00000000000E+00 0. -1.
     999901    1    3    3    0    0 -0.49330775675E-01  0.78931128540E-01 -0.53301261199E-01  0.88651264679E+00  0.88000000000E+00 0.  1.
        -11    1    4    4    0    0  0.13737957371E-01 -0.10422054186E-01  0.11589658442E-01  0.20782973560E-01  0.51100000000E-03 0. -1.
         11    1    4    4    0    0  0.42799714894E-01 -0.88136321858E-01  0.54507389393E-01  0.11212111061E+00  0.51100000000E-03 0.  1.
</event>
<event>
 8    1  0.1030163E+005  0.1043930E+01  0.7957747E-01            NaN
         13   -1    0    0    0    0  0.00000000000E+00  0.00000000000E+00  0.74505805969E-08  0.10566000000E+00  0.10566000000E+00 0.  1.
     999900   -1    0    0    0    0 -0.00000000000E+00 -0.00000000000E+00 -0.74505805969E-08  0.93827000000E+00  0.93827000000E+00 0. -1.
     999902    2    1    2    0    0  0.20423984828E-02  0.46696250917E-02  0.20952177271E-01  0.10223668249E+01  0.10221394005E+01 0.  0.
     999903    2    3    3    0    0 -0.13963405285E-01  0.47643388263E-01 -0.11853937757E+00  0.13020045923E+00  0.20873581778E-01 0.  0.
         14    1    1    2    0    0 -0.20423984828E-02 -0.46696250917E-02 -0.20952177271E-01  0.21563175148E-01  0.00000000000E+00 0. -1.
     999901    1    3    3    0    0  0.16005803768E-01 -0.42973763171E-01  0.13949155484E+00  0.89216636562E+00  0.88000000000E+00 0.  1.
        -11    1    4    4    0    0 -0.14997851608E-01  0.42334660906E-01 -0.84170769013E-01  0.95405128500E-01  0.51100000000E-03 0.  1.
         11    1    4    4    0    0  0.10344463231E-02  0.53087273575E-02 -0.34368608558E-01  0.34795330729E-01  0.51100000000E-03 0. -1.
</event>
<event>
 8    1  0.1030163E+005  0.1043930E+01  0.7957747E-01            NaN
         13   -1    0    0    0    0  0.00000000000E+00  0.00000000000E+00  0.74505805969E-08  0.10566000000E+00  0.10566000000E+00 0.  1.
     999900   -1    0    0    0    0 -0.00000000000E+00 -0.00000000000E+00 -0.74505805969E-08  0.93827000000E+00  0.93827000000E+00 0. -1.
     999902    2    1    2    0    0  0.10175678488E-01 -0.18912083313E-01  0.83474588329E-02  0.10208889194E+01  0.10206288720E+01 0.  0.
     999903    2    3    3    0    0 -0.94638983542E-01 -0.20529220438E-01  0.86268235692E-01  0.13124833127E+00  0.20147701490E-01 0.  0.
         14    1    1    2    0    0 -0.10175678488E-01  0.18912083313E-01 -0.83474588329E-02  0.23041080636E-01  0.00000000000E+00 0. -1.
     999901    1    3    3    0    0  0.10481466203E+00  0.16171371251E-02 -0.77920776859E-01  0.88964058809E+00  0.88000000000E+00 0. -1.
        -11    1    4    4    0    0 -0.64523216107E-01 -0.15501903198E-01  0.46152304237E-01  0.80832238166E-01  0.51100000000E-03 0.  1.
         11    1    4    4    0    0 -0.30115767435E-01 -0.50273172397E-02  0.40115931455E-01  0.50416093108E-01  0.51100000000E-03 0. -1.
</event>
<event>
 8    1  0.1030163E+005  0.1043930E+01  0.7957747E-01            NaN
         13   -1    0    0    0    0  0.00000000000E+00  0.00000000000E+00  0.74505805969E-08  0.10566000000E+00  0.10566000000E+00 0.  1.
     999900   -1    0    0    0    0 -0.00000000000E+00 -0.00000000000E+00 -0.74505805969E-08  0.93827000000E+00  0.93827000000E+00 0.  1.
     999902    2    1    2    0    0 -0.16788211711E-01  0.90560426925E-02 -0.11030215841E-01  0.10218954448E+01  0.10216578578E+01 0.  0.
     999903    2    3    3    0    0 -0.84460346647E-01 -0.49113375821E-01  0.86912330685E-01  0.13197638020E+00  0.17842025291E-01 0.  0.
         14    1    1    2    0    0  0.16788211711E-01 -0.90560426925E-02  0.11030215841E-01  0.22034555207E-01  0.00000000000E+00 0.  1.
     999901    1    3    3    0    0  0.67672134936E-01  0.58169418514E-01 -0.97942546526E-01  0.88991906459E+00  0.88000000000E+00 0.  1.
        -11    1    4    4    0    0 -0.20709689470E-01 -0.66578013560E-02  0.12053973398E-01  0.24875227687E-01  0.51100000000E-03 0.  1.
         11    1    4    4    0    0 -0.63750657177E-01 -0.42455574465E-01  0.74858357288E-01  0.10710115252E+00  0.51100000000E-03 0. -1.
</event>
<event>
 8    1  0.1030163E+005  0.1043930E+01  0.7957747E-01            NaN
         13   -1    0    0    0    0  0.00000000000E+00  0.00000000000E+00  0.74505805969E-08  0.10566000000E+00  0.10566000000E+00 0. -1.
     999900   -1    0    0    0    0 -0.00000000000E+00 -0.00000000000E+00 -0.74505805969E-08  0.93827000000E+00  0.93827000000E+00 0. -1.
     999902    2    1    2    0    0 -0.14566471870E-01 -0.17784400656E-01  0.58844263408E-02  0.10202004091E+01  0.10199243998E+01 0.  0.
     999903    2    3    3    0    0  0.10322452976E+00  0.61057383571E-01 -0.39062440516E-01  0.12772577765E+00  0.20116967569E-01 0.  0.
         14    1    1    2    0    0  0.14566471870E-01  0.17784400656E-01 -0.58844263408E-02  0.23729590869E-01  0.00000000000E+00 0. -1.
     999901    1    3    3    0    0 -0.11779100163E+00 -0.78841784227E-01  0.44946866857E-01  0.89247463149E+00  0.88000000000E+00 0.  1.
        -11    1    4    4    0    0  0.36504477901E-01  0.19267345730E-01 -0.37819021131E-02  0.41453243816E-01  0.51100000000E-03 0. -1.
         11    1    4    4    0    0  0.66720051856E-01  0.41790037841E-01 -0.35280538403E-01  0.86272533830E-01  0.51100000000E-03 0.  1.
</event>
<event>
 8    1  0.1030163E+005  0.1043930E+01  0.7957747E-01            NaN
         13   -1    0    0    0    0  0.00000000000E+00  0.00000000000E+00  0.74505805969E-08  0.10566000000E+00  0.10566000000E+00 0.  1.
     999900   -1    0    0    0    0 -0.00000000000E+00 -0.00000000000E+00 -0.74505805969E-08  0.93827000000E+00  0.93827000000E+00 0.  1.
     999902    2    1    2    0    0 -0.25443393757E-01 -0.59540645303E-02  0.26208643490E-02  0.10176681246E+01  0.10173292121E+01 0.  0.
     999903    2    3    3    0    0 -0.10242416976E+00  0.69622247052E-01 -0.35812059314E-01  0.13024775725E+00  0.18547421387E-01 0.  0.
         14    1    1    2    0    0  0.25443393757E-01  0.59540645303E-02 -0.26208643490E-02  0.26261875414E-01  0.00000000000E+00 0.  1.
     999901    1    3    3    0    0  0.76980776002E-01 -0.75576311583E-01  0.38432923663E-01  0.88742036734E+00  0.88000000000E+00 0. -1.
        -11    1    4    4    0    0 -0.64221318441E-01  0.32631573302E-01 -0.19765477630E-01  0.74700284775E-01  0.51100000000E-03 0.  1.
         11    1    4    4    0    0 -0.38202851318E-01  0.36990673750E-01 -0.16046581684E-01  0.55547472472E-01  0.51100000000E-03 0. -1.
</event>
<event>
 8    1  0.1030163E+005  0.1043930E+01  0.7957747E-01            NaN
         13   -1    0    0    0    0  0.00000000000E+00  0.00000000000E+00  0.74505805969E-08  0.10566000000E+00  0.10566000000E+00 0. -1.
     999900   -1    0    0    0    0 -0.00000000000E+00 -0.00000000000E+00 -0.74505805969E-08  0.93827000000E+00  0.93827000000E+00 0.  1.
     999902    2    1    2    0    0  0.66613730648E-02 -0.20776600157E-01  0.22871354079E-02  0.10219920878E+01  0.10217566028E+01 0.  0.
     999903    2    3    3    0    0  0.91440632969E-01  0.87471964595E-01 -0.26197389889E-01  0.13085986252E+00  0.20621989063E-01 0.  0.
         14    1    1    2    0    0 -0.66613730648E-02  0.20776600157E-01 -0.22871354079E-02  0.21937912243E-01  0.00000000000E+00 0. -1.
     999901    1    3    3    0    0 -0.84779259905E-01 -0.10824856475E+00  0.28484525297E-01  0.89113222524E+00  0.88000000000E+00 0. -1.
        -11    1    4    4    0    0  0.29603193610E-01  0.35848813367E-01 -0.18121371952E-01  0.49901219766E-01  0.51100000000E-03 0. -1.
         11    1    4    4    0    0  0.61837439360E-01  0.51623151228E-01 -0.80760179365E-02  0.80958642751E-01  0.51100000000E-03 0.  1.
</event>
<event>
 8    1  0.1030163E+005  0.1043930E+01  0.7957747E-01            NaN
         13   -1    0    0    0    0  0.00000000000E+00  0.00000000000E+00  0.74505805969E-08  0.10566000000E+00  0.10566000000E+00 0.  1.
     999900   -1    0    0    0    0 -0.00000000000E+00 -0.00000000000E+00 -0.74505805969E-08  0.93827000000E+00  0.93827000000E+00 0.  1.
     999902    2    1    2    0    0  0.21634140467E-01  0.12408316474E-02  0.10009706178E-01  0.10200601463E+01  0.10197808256E+01 0.  0.
     999903    2    3    3    0    0  0.12422738794E+00  0.41193203289E-01  0.14480235530E-01  0.13318836751E+00  0.20003502377E-01 0.  0.
         14    1    1    2    0    0 -0.21634140467E-01 -0.12408316474E-02 -0.10009706178E-01  0.23869853679E-01  0.00000000000E+00 0. -1.
     999901    1    3    3    0    0 -0.10259324747E+00 -0.39952371641E-01 -0.44705293524E-02  0.88687177882E+00  0.88000000000E+00 0.  1.
        -11    1    4    4    0    0  0.22774126527E-01  0.14118406996E-01  0.80653019413E-02  0.27987505633E-01  0.51100000000E-03 0. -1.
         11    1    4    4    0    0  0.10145326141E+00  0.27074796292E-01  0.64149335890E-02  0.10520086187E+00  0.51100000000E-03 0.  1.
</event>
<event>
 8    1  0.1030163E+005  0.1043930E+01  0.7957747E-01            NaN
         13   -1    0    0    0    0  0.00000000000E+00  0.00000000000E+00  0.74505805969E-08  0.10566000000E+00  0.10566000000E+00 0. -1.
     999900   -1    0    0    0    0 -0.00000000000E+00 -0.00000000000E+00 -0.74505805969E-08  0.93827000000E+00  0.93827000000E+00 0. -1.
     999902    2    1    2    0    0 -0.48244376146E-02  0.19292085709E-01 -0.13159761530E-01  0.10200838453E+01  0.10198050855E+01 0.  0.
     999903    2    3    3    0    0  0.89814748901E-01  0.51378203849E-01  0.76114371846E-01  0.12994005610E+00  0.19611517720E-01 0.  0.
         14    1    1    2    0    0  0.48244376146E-02 -0.19292085709E-01  0.13159761530E-01  0.23846154676E-01  0.00000000000E+00 0. -1.
     999901    1    3    3    0    0 -0.94639186516E-01 -0.32086118140E-01 -0.89274133376E-01  0.89014378922E+00  0.88000000000E+00 0. -1.
        -11    1    4    4    0    0  0.66326982901E-01  0.30864186382E-01  0.45029689612E-01  0.85905766566E-01  0.51100000000E-03 0.  1.
         11    1    4    4    0    0  0.23487766001E-01  0.20514017467E-01  0.31084682235E-01  0.44034289536E-01  0.51100000000E-03 0. -1.
</event>
<event>
 8    1  0.1030163E+005  0.1043930E+01  0.7957747E-01            NaN
         13   -1    0    0    0    0  0.00000000000E+00  0.00000000000E+00  0.74505805969E-08  0.10566000000E+00  0.10566000000E+00 0. -1.
     999900   -1    0    0    0    0 -0.00000000000E+00 -0.00000000000E+00 -0.74505805969E-08  0.93827000000E+00  0.93827000000E+00 0. -1.
     999902    2    1    2    0    0 -0.39960802636E-02 -0.14033692357E-01 -0.17780224080E-01  0.10209289229E+01  0.10206697880E+01 0.  0.
     999903    2    3    3    0    0 -0.90125901738E-01  0.45846852117E-01  0.78382059787E-01  0.12949681076E+00  0.20026599468E-01 0.  0.
         14    1    1    2    0    0  0.39960802636E-02  0.14033692357E-01  0.17780224080E-01  0.23001077083E-01  0.00000000000E+00 0. -1.
     999901    1    3    3    0    0  0.86129821475E-01 -0.59880544474E-01 -0.96162283867E-01  0.89143211216E+00  0.88000000000E+00 0.  1.
        -11    1    4    4    0    0 -0.83461389024E-01  0.46943150449E-01  0.76211006381E-01  0.12238399179E+00  0.51100000000E-03 0.  1.
         11    1    4    4    0    0 -0.66645127142E-02 -0.10962983311E-02  0.21710534060E-02  0.71128189658E-02  0.51100000000E-03 0. -1.
</event>
<event>
 8    1  0.1030163E+005  0.1043930E+01  0.7957747E-01            NaN
         13   -1    0    0    0    0  0.00000000000E+00  0.00000000000E+00  0.74505805969E-08  0.10566000000E+00  0.10566000000E+00 0. -1.
     999900   -1    0    0    0    0 -0.00000000000E+00 -0.00000000000E+00 -0.74505805969E-08  0.93827000000E+00  0.93827000000E+00 0. -1.
     999902    2    1    2    0    0  0.20500229176E-01  0.12893855543E-01  0.13319330263E-02  0.10196754138E+01  0.10193869062E+01 0.  0.
     999903    2    3    3    0    0  0.80138237564E-01 -0.84916744081E-01  0.55013159567E-01  0.13062801374E+00  0.20105713173E-01 0.  0.
         14    1    1    2    0    0 -0.20500229176E-01 -0.12893855543E-01 -0.13319330263E-02  0.24254586218E-01  0.00000000000E+00 0. -1.
     999901    1    3    3    0    0 -0.59638008388E-01  0.97810599624E-01 -0.53681226541E-01  0.88904740004E+00  0.88000000000E+00 0. -1.
        -11    1    4    4    0    0  0.19907101690E-01 -0.32969613070E-01  0.23185356003E-01  0.44956756307E-01  0.51100000000E-03 0.  1.
         11    1    4    4    0    0  0.60231135874E-01 -0.51947131011E-01  0.31827803564E-01  0.85671257430E-01  0.51100000000E-03 0. -1.
</event>
<event>
 8    1  0.1030163E+005  0.1043930E+01  0.7957747E-01            NaN
         13   -1    0    0    0    0  0.00000000000E+00  0.00000000000E+00  0.74505805969E-08  0.10566000000E+00  0.10566000000E+00 0.  1.
     999900   -1    0    0    0    0 -0.00000000000E+00 -0.00000000000E+00 -0.74505805969E-08  0.93827000000E+00  0.93827000000E+00 0. -1.
     999902    2    1    2    0    0  0.28639127122E-01  0.26713227837E-02 -0.21391610935E-01  0.10080839879E+01  0.10074464700E+01 0.  0.
     999903    2    3    3    0    0  0.10260689445E-01  0.10671794415E+00  0.47938444453E-01  0.11905636008E+00  0.19553032133E-01 0.  0.
         14    1    1    2    0    0 -0.28639127122E-01 -0.26713227837E-02  0.21391610935E-01  0.35846012137E-01  0.00000000000E+00 0.  1.
     999901    1    3    3    0    0  0.18378437676E-01 -0.10404662137E+00 -0.69330055388E-01  0.88902762779E+00  0.88000000000E+00 0.  1.
        -11    1    4    4    0    0  0.93348216180E-02  0.22191718502E-01  0.66663821807E-02  0.24986256964E-01  0.51100000000E-03 0. -1.
         11    1    4    4    0    0  0.92586782747E-03  0.84526225651E-01  0.41272062273E-01  0.94070103111E-01  0.51100000000E-03 0.  1.
</event>
<event>
 8    1  0.1030163E+005  0.1043930E+01  0.7957747E-01            NaN
         13   -1    0    0    0    0  0.00000000000E+00  0.00000000000E+00  0.74505805969E-08  0.10566000000E+00  0.10566000000E+00 0.  1.
     999900   -1    0    0    0    0 -0.00000000000E+00 -0.00000000000E+00 -0.74505805969E-08  0.93827000000E+00  0.93827000000E+00 0.  1.
     999902    2    1    2    0    0 -0.56252272608E-03 -0.17226238886E-01 -0.15161183505E-01  0.10209752353E+01  0.10207171547E+01 0.  0.
     999903    2    3    3    0    0  0.60611988227E-01 -0.10243774396E+00 -0.57929238466E-01  0.13371404042E+00  0.18877060951E-01 0.  0.
         14    1    1    2    0    0  0.56252272608E-03  0.17226238886E-01  0.15161183505E-01  0.22954764718E-01  0.00000000000E+00 0. -1.
     999901    1    3    3    0    0 -0.61174510953E-01  0.85211505078E-01  0.42768054961E-01  0.88726119486E+00  0.88000000000E+00 0. -1.
        -11    1    4    4    0    0  0.17056402386E-01 -0.43892696794E-01 -0.28401705112E-01  0.54994614904E-01  0.51100000000E-03 0.  1.
         11    1    4    4    0    0  0.43555585841E-01 -0.58545047170E-01 -0.29527533354E-01  0.78719425513E-01  0.51100000000E-03 0. -1.
</event>
<event>
 8    1  0.1030163E+005  0.1043930E+01  0.7957747E-01            NaN
         13   -1    0    0    0    0  0.00000000000E+00  0.00000000000E+00  0.74505805969E-08  0.10566000000E+00  0.10566000000E+00 0.  1.
     999900   -1    0    0    0    0 -0.00000000000E+00 -0.00000000000E+00 -0.74505805969E-08  0.93827000000E+00  0.93827000000E+00 0.  1.
     999902    2    1    2    0    0  0.37692774960E-02 -0.21155392053E-01 -0.14891075976E-01  0.10177861248E+01  0.10174502905E+01 0.  0.
     999903    2    3    3    0    0  0.73295591517E-01  0.68111819605E-01 -0.78001341745E-01  0.12830006587E+00  0.19111093182E-01 0.  0.
         14    1    1    2    0    0 -0.37692774960E-02  0.21155392053E-01  0.14891075976E-01  0.26143875181E-01  0.00000000000E+00 0.  1.
     999901    1    3    3    0    0 -0.69526314021E-01 -0.89267211658E-01  0.63110265769E-01  0.88948605895E+00  0.88000000000E+00 0. -1.
        -11    1    4    4    0    0  0.48932645835E-01  0.53013214546E-01 -0.47154603409E-01  0.86189456945E-01  0.51100000000E-03 0.  1.
         11    1    4    4    0    0  0.24362945682E-01  0.15098605058E-01 -0.30846738336E-01  0.42110608925E-01  0.51100000000E-03 0. -1.
</event>
<event>
 8    1  0.1589967E+005  0.1043930E+01  0.7957747E-01            NaN
         13   -1    0    0    0    0  0.00000000000E+00  0.00000000000E+00  0.74505805969E-08  0.10566000000E+00  0.10566000000E+00 0. -1.
     999900   -1    0    0    0    0 -0.00000000000E+00 -0.00000000000E+00 -0.74505805969E-08  0.93827000000E+00  0.93827000000E+00 0.  1.
     999902    2    1    2    0    0 -0.20183364333E-01  0.13084401920E-01 -0.30739254090E-02  0.10196809013E+01  0.10193925258E+01 0.  0.
     999903    2    3    3    0    0 -0.30538396358E-02  0.10545970112E+00 -0.76773138892E-01  0.13161660715E+00  0.17255199912E-01 0.  0.
         14    1    1    2    0    0  0.20183364333E-01 -0.13084401920E-01  0.30739254090E-02  0.24249098681E-01  0.00000000000E+00 0.  1.
     999901    1    3    3    0    0 -0.17129524697E-01 -0.92375299201E-01  0.73699213483E-01  0.88806429417E+00  0.88000000000E+00 0. -1.
        -11    1    4    4    0    0  0.67293035313E-02  0.40949974461E-01 -0.26429714685E-01  0.49203403071E-01  0.51100000000E-03 0. -1.
         11    1    4    4    0    0 -0.97831431671E-02  0.64509726660E-01 -0.50343424207E-01  0.82413204074E-01  0.51100000000E-03 0.  1.
</event>
<event>
 8    1  0.1030163E+005  0.1043930E+01  0.7957747E-01            NaN
         13   -1    0    0    0    0  0.00000000000E+00  0.00000000000E+00  0.74505805969E-08  0.10566000000E+00  0.10566000000E+00 0.  1.
     999900   -1    0    0    0    0 -0.00000000000E+00 -0.00000000000E+00 -0.74505805969E-08  0.93827000000E+00  0.93827000000E+00 0.  1.
     999902    2    1    2    0    0  0.12289468636E-01  0.89733182845E-02  0.19564238000E-01  0.10191447042E+01  0.10188432741E+01 0.  0.
     999903    2    3    3    0    0  0.98109267222E-01  0.82808574093E-01  0.24232793633E-01  0.13188009977E+00  0.17956730478E-01 0.  0.
         14    1    1    2    0    0 -0.12289468636E-01 -0.89733182845E-02 -0.19564238000E-01  0.24785295820E-01  0.00000000000E+00 0.  1.
     999901    1    3    3    0    0 -0.85819798586E-01 -0.73835255808E-01 -0.46685556335E-02  0.88726460441E+00  0.88000000000E+00 0. -1.
        -11    1    4    4    0    0  0.47976157960E-01  0.40894253370E-01  0.27905986884E-02  0.63103884614E-01  0.51100000000E-03 0. -1.
         11    1    4    4    0    0  0.50133109262E-01  0.41914320723E-01  0.21442194945E-01  0.68776215155E-01  0.51100000000E-03 0.  1.
</event>
<event>
 8    1  0.1030163E+005  0.1043930E+01  0.7957747E-01            NaN
         13   -1    0    0    0    0  0.00000000000E+00  0.00000000000E+00  0.74505805969E-08  0.10566000000E+00  0.10566000000E+00 0. -1.
     999900   -1    0    0    0    0 -0.00000000000E+00 -0.00000000000E+00 -0.74505805969E-08  0.93827000000E+00  0.93827000000E+00 0. -1.
     999902    2    1    2    0    0  0.19375936683E-01 -0.58512889272E-02  0.25902004476E-02  0.10235247643E+01  0.10233213423E+01 0.  0.
     999903    2    3    3    0    0  0.48386500612E-01 -0.43417037485E-01 -0.11588052527E+00  0.13431831410E+00  0.19667759905E-01 0.  0.
         14    1    1    2    0    0 -0.19375936683E-01  0.58512889272E-02 -0.25902004476E-02  0.20405235672E-01  0.00000000000E+00 0. -1.
     999901    1    3    3    0    0 -0.29010563929E-01  0.37565748558E-01  0.11847072572E+00  0.88920645023E+00  0.88000000000E+00 0.  1.
        -11    1    4    4    0    0  0.58030581244E-02  0.15082769937E-02 -0.10282729181E-01  0.11914110269E-01  0.51100000000E-03 0.  1.
         11    1    4    4    0    0  0.42583442487E-01 -0.44925314479E-01 -0.10559779609E+00  0.12240420383E+00  0.51100000000E-03 0. -1.
</event>
<event>
 8    1  0.1030163E+005  0.1043930E+01  0.7957747E-01            NaN
         13   -1    0    0    0    0  0.00000000000E+00  0.00000000000E+00  0.74505805969E-08  0.10566000000E+00  0.10566000000E+00 0.  1.
     999900   -1    0    0    0    0 -0.00000000000E+00 -0.00000000000E+00 -0.74505805969E-08  0.93827000000E+00  0.93827000000E+00 0. -1.
     999902    2    1    2    0    0 -0.74010596966E-02  0.79971139570E-02  0.20862113189E-01  0.10203937029E+01  0.10201222238E+01 0.  0.
     999903    2    3    3    0    0  0.54316987629E-02 -0.16103454939E-01  0.13065631558E+00  0.13315062231E+00  0.19214338633E-01 0.  0.
         14    1    1    2    0    0  0.74010596966E-02 -0.79971139570E-02 -0.20862113189E-01  0.23536297138E-01  0.00000000000E+00 0. -1.
     999901    1    3    3    0    0 -0.12832758459E-01  0.24100568896E-01 -0.10979420239E+00  0.88724308055E+00  0.88000000000E+00 0. -1.
        -11    1    4    4    0    0 -0.30180059953E-02 -0.52904189851E-02  0.90596273922E-01  0.90802218381E-01  0.51100000000E-03 0.  1.
         11    1    4    4    0    0  0.84497047582E-02 -0.10813035954E-01  0.40060041653E-01  0.42348403929E-01  0.51100000000E-03 0. -1.
</event>
<event>
 8    1  0.1030163E+005  0.1043930E+01  0.7957747E-01            NaN
         13   -1    0    0    0    0  0.00000000000E+00  0.00000000000E+00  0.74505805969E-08  0.10566000000E+00  0.10566000000E+00 0. -1.
     999900   -1    0    0    0    0 -0.00000000000E+00 -0.00000000000E+00 -0.74505805969E-08  0.93827000000E+00  0.93827000000E+00 0. -1.
     999902    2    1    2    0    0  0.22335293739E-01 -0.37243476602E-03  0.74954130686E-02  0.10203676302E+01  0.10200955423E+01 0.  0.
     999903    2    3    3    0    0  0.63035060848E-01  0.49064242879E-01 -0.10208759641E+00  0.13126196037E+00  0.20666544803E-01 0.  0.
         14    1    1    2    0    0 -0.22335293739E-01  0.37243476602E-03 -0.74954130686E-02  0.23562369811E-01  0.00000000000E+00 0.  1.
     999901    1    3    3    0    0 -0.40699767110E-01 -0.49436677645E-01  0.10958300948E+00  0.88910566982E+00  0.88000000000E+00 0.  1.
        -11    1    4    4    0    0  0.13518515025E-01  0.21499262422E-01 -0.38018932528E-01  0.45723832787E-01  0.51100000000E-03 0. -1.
         11    1    4    4    0    0  0.49516545823E-01  0.27564980457E-01 -0.64068663880E-01  0.85538127582E-01  0.51100000000E-03 0.  1.
</event>
<event>
 8    1  0.1030163E+005  0.1043930E+01  0.7957747E-01            NaN
         13   -1    0    0    0    0  0.00000000000E+00  0.00000000000E+00  0.74505805969E-08  0.10566000000E+00  0.10566000000E+00 0. -1.
     999900   -1    0    0    0    0 -0.00000000000E+00 -0.00000000000E+00 -0.74505805969E-08  0.93827000000E+00  0.93827000000E+00 0.  1.
     999902    2    1    2    0    0 -0.14295343517E-01 -0.14937982136E-01 -0.88233900792E-02  0.10214499562E+01  0.10212025561E+01 0.  0.
     999903    2    3    3    0    0  0.18705555158E-01  0.86077670398E-01  0.92826579713E-01  0.12924709938E+00  0.18132172003E-01 0.  0.
         14    1    1    2    0    0  0.14295343517E-01  0.14937982136E-01  0.88233900792E-02  0.22480043795E-01  0.00000000000E+00 0. -1.
     999901    1    3    3    0    0 -0.33000898675E-01 -0.10101565253E+00 -0.10164996979E+00  0.89220285683E+00  0.88000000000E+00 0. -1.
        -11    1    4    4    0    0  0.20498298224E-01  0.67463001064E-01  0.66284844571E-01  0.96774885603E-01  0.51100000000E-03 0.  1.
         11    1    4    4    0    0 -0.17927430660E-02  0.18614669334E-01  0.26541735142E-01  0.32472213775E-01  0.51100000000E-03 0. -1.
</event>
<event>
 8    1  0.1030163E+005  0.1043930E+01  0.7957747E-01            NaN
         13   -1    0    0    0    0  0.00000000000E+00  0.00000000000E+00  0.74505805969E-08  0.10566000000E+00  0.10566000000E+00 0.  1.
     999900   -1    0    0    0    0 -0.00000000000E+00 -0.00000000000E+00 -0.74505805969E-08  0.93827000000E+00  0.93827000000E+00 0.  1.
     999902    2    1    2    0    0  0.21637840233E-01 -0.81780949354E-02 -0.50388492443E-02  0.10202558080E+01  0.10199811010E+01 0.  0.
     999903    2    3    3    0    0 -0.80416029686E-01  0.97626530896E-01 -0.22584232418E-02  0.12805776830E+00  0.19900105073E-01 0.  0.
         14    1    1    2    0    0 -0.21637840233E-01  0.81780949354E-02  0.50388492443E-02  0.23674192033E-01  0.00000000000E+00 0. -1.
     999901    1    3    3    0    0  0.10205386992E+00 -0.10580462583E+00 -0.27804260025E-02  0.89219803966E+00  0.88000000000E+00 0.  1.
        -11    1    4    4    0    0 -0.64290513080E-01  0.69256791279E-01 -0.83155759128E-02  0.94864024447E-01  0.51100000000E-03 0. -1.
         11    1    4    4    0    0 -0.16125516606E-01  0.28369739616E-01  0.60571526710E-02  0.33193743856E-01  0.51100000000E-03 0.  1.
</event>
<event>
 8    1  0.1030163E+005  0.1043930E+01  0.7957747E-01            NaN
         13   -1    0    0    0    0  0.00000000000E+00  0.00000000000E+00  0.74505805969E-08  0.10566000000E+00  0.10566000000E+00 0.  1.
     999900   -1    0    0    0    0 -0.00000000000E+00 -0.00000000000E+00 -0.74505805969E-08  0.93827000000E+00  0.93827000000E+00 0.  1.
     999902    2    1    2    0    0  0.82997010485E-02  0.19031366511E-01  0.10538428888E-01  0.10206461766E+01  0.10203805571E+01 0.  0.
     999903    2    3    3    0    0 -0.10387015597E+00 -0.31183470561E-01 -0.66498769236E-01  0.12877267852E+00  0.19972438120E-01 0.  0.
         14    1    1    2    0    0 -0.82997010485E-02 -0.19031366511E-01 -0.10538428888E-01  0.23283823401E-01  0.00000000000E+00 0. -1.
     999901    1    3    3    0    0  0.11216985702E+00  0.50214837071E-01  0.77037198124E-01  0.89187349808E+00  0.88000000000E+00 0.  1.
        -11    1    4    4    0    0 -0.69437917733E-01 -0.12744846492E-01 -0.49198667426E-01  0.86051295915E-01  0.51100000000E-03 0. -1.
         11    1    4    4    0    0 -0.34432238239E-01 -0.18438624069E-01 -0.17300101810E-01  0.42721382601E-01  0.51100000000E-03 0.  1.
</event>
<event>
 8    1  0.1030163E+005  0.1043930E+01  0.7957747E-01            NaN
         13   -1    0    0    0    0  0.00000000000E+00  0.00000000000E+00  0.74505805969E-08  0.10566000000E+00  0.10566000000E+00 0. -1.
     999900   -1    0    0    0    0 -0.00000000000E+00 -0.00000000000E+00 -0.74505805969E-08  0.93827000000E+00  0.93827000000E+00 0. -1.
     999902    2    1    2    0    0 -0.12407232395E-01  0.81206840793E-02  0.21262933352E-01  0.10180070900E+01  0.10176769812E+01 0.  0.
     999903    2    3    3    0    0 -0.58335266913E-01 -0.10306866483E+00  0.48284931467E-01  0.12941120662E+00  0.19740130626E-01 0.  0.
         14    1    1    2    0    0  0.12407232395E-01 -0.81206840793E-02 -0.21262933352E-01  0.25922909952E-01  0.00000000000E+00 0.  1.
     999901    1    3    3    0    0  0.45928034519E-01  0.11118934890E+00 -0.27021998115E-01  0.88859588343E+00  0.88000000000E+00 0. -1.
        -11    1    4    4    0    0 -0.39056423451E-01 -0.67146976441E-01  0.21404810829E-01  0.80576347060E-01  0.51100000000E-03 0.  1.
         11    1    4    4    0    0 -0.19278843463E-01 -0.35921688384E-01  0.26880120638E-01  0.48834859559E-01  0.51100000000E-03 0. -1.
</event>
<event>
 8    1  0.1030163E+005  0.1043930E+01  0.7957747E-01            NaN
         13   -1    0    0    0    0  0.00000000000E+00  0.00000000000E+00  0.74505805969E-08  0.10566000000E+00  0.10566000000E+00 0.  1.
     999900   -1    0    0    0    0 -0.00000000000E+00 -0.00000000000E+00 -0.74505805969E-08  0.93827000000E+00  0.93827000000E+00 0.  1.
     999902    2    1    2    0    0  0.17337412863E-01 -0.11908821320E-01  0.13081692140E-01  0.10191603294E+01  0.10188592840E+01 0.  0.
     999903    2    3    3    0    0  0.22778222560E-01  0.46781354120E-02  0.12797914829E+00  0.13151954908E+00  0.19442145403E-01 0.  0.
         14    1    1    2    0    0 -0.17337412863E-01  0.11908821320E-01 -0.13081692140E-01  0.24769670552E-01  0.00000000000E+00 0.  1.
     999901    1    3    3    0    0 -0.54408096969E-02 -0.16586956732E-01 -0.11489745615E+00  0.88764078037E+00  0.88000000000E+00 0.  1.
        -11    1    4    4    0    0  0.95184029915E-02 -0.14967153795E-02  0.16740286392E-01  0.19321968376E-01  0.51100000000E-03 0.  1.
         11    1    4    4    0    0  0.13259819568E-01  0.61748507915E-02  0.11123886190E+00  0.11219758070E+00  0.51100000000E-03 0. -1.
</event>
<event>
 8    1  0.1030163E+005  0.1043930E+01  0.7957747E-01            NaN
         13   -1    0    0    0    0  0.00000000000E+00  0.00000000000E+00  0.74505805969E-08  0.10566000000E+00  0.10566000000E+00 0.  1.
     999900   -1    0    0    0    0 -0.00000000000E+00 -0.00000000000E+00 -0.74505805969E-08  0.93827000000E+00  0.93827000000E+00 0.  1.
     999902    2    1    2    0    0 -0.56357458073E-03  0.92342276019E-02  0.21553566933E-01  0.10204748338E+01  0.10202052448E+01 0.  0.
     999903    2    3    3    0    0  0.12711622188E+00  0.20305942593E-01  0.16160293372E-01  0.13117522132E+00  0.19362810631E-01 0.  0.
         14    1    1    2    0    0  0.56357458073E-03 -0.92342276019E-02 -0.21553566933E-01  0.23455166238E-01  0.00000000000E+00 0. -1.
     999901    1    3    3    0    0 -0.12767979646E+00 -0.11071714992E-01  0.53932735609E-02  0.88929961245E+00  0.88000000000E+00 0.  1.
        -11    1    4    4    0    0  0.16690580713E-01  0.36814674150E-02 -0.43314128627E-02  0.17639471229E-01  0.51100000000E-03 0. -1.
         11    1    4    4    0    0  0.11042564117E+00  0.16624475178E-01  0.20491706235E-01  0.11353575009E+00  0.51100000000E-03 0.  1.
</event>
<event>
 8    1  0.1030163E+005  0.1043930E+01  0.7957747E-01            NaN
         13   -1    0    0    0    0  0.00000000000E+00  0.00000000000E+00  0.74505805969E-08  0.10566000000E+00  0.10566000000E+00 0.  1.
     999900   -1    0    0    0    0 -0.00000000000E+00 -0.00000000000E+00 -0.74505805969E-08  0.93827000000E+00  0.93827000000E+00 0.  1.
     999902    2    1    2    0    0 -0.22501936844E-01  0.30481002861E-02 -0.63536031156E-02  0.10203504252E+01  0.10200779351E+01 0.  0.
     999903    2    3    3    0    0  0.12295096932E+00 -0.52099249289E-02  0.28013836831E-01  0.12771059644E+00  0.19522735813E-01 0.  0.
         14    1    1    2    0    0  0.22501936844E-01 -0.30481002861E-02  0.63536031156E-02  0.23579574840E-01  0.00000000000E+00 0.  1.
     999901    1    3    3    0    0 -0.14545290617E+00  0.82580252151E-02 -0.34367439947E-01  0.89263982872E+00  0.88000000000E+00 0. -1.
        -11    1    4    4    0    0  0.72265551823E-01 -0.10890962354E-01  0.10790185526E-01  0.73875654082E-01  0.51100000000E-03 0.  1.
         11    1    4    4    0    0  0.50685417499E-01  0.56810374253E-02  0.17223651304E-01  0.53834942356E-01  0.51100000000E-03 0. -1.
</event>
<event>
 8    1  0.1030163E+005  0.1043930E+01  0.7957747E-01            NaN
         13   -1    0    0    0    0  0.00000000000E+00  0.00000000000E+00  0.74505805969E-08  0.10566000000E+00  0.10566000000E+00 0.  1.
     999900   -1    0    0    0    0 -0.00000000000E+00 -0.00000000000E+00 -0.74505805969E-08  0.93827000000E+00  0.93827000000E+00 0.  1.
     999902    2    1    2    0    0 -0.21699472221E-01  0.59468251859E-02 -0.81282523937E-02  0.10200072010E+01  0.10197266250E+01 0.  0.
     999903    2    3    3    0    0 -0.39927478062E-01  0.93966006118E-01 -0.83056339381E-01  0.13226069743E+00  0.13066092077E-01 0.  0.
         14    1    1    2    0    0  0.21699472221E-01 -0.59468251859E-02  0.81282523937E-02  0.23922798988E-01  0.00000000000E+00 0.  1.
     999901    1    3    3    0    0  0.18228005841E-01 -0.88019180932E-01  0.74928086987E-01  0.88774650359E+00  0.88000000000E+00 0. -1.
        -11    1    4    4    0    0 -0.42909500590E-02  0.11017925950E-01 -0.15502607080E-01  0.19503817368E-01  0.51100000000E-03 0.  1.
         11    1    4    4    0    0 -0.35636528003E-01  0.82948080168E-01 -0.67553732301E-01  0.11275688006E+00  0.51100000000E-03 0. -1.
</event>
<event>
 8    1  0.1030163E+005  0.1043930E+01  0.7957747E-01            NaN
         13   -1    0    0    0    0  0.00000000000E+00  0.00000000000E+00  0.74505805969E-08  0.10566000000E+00  0.10566000000E+00 0.  1.
     999900   -1    0    0    0    0 -0.00000000000E+00 -0.00000000000E+00 -0.74505805969E-08  0.93827000000E+00  0.93827000000E+00 0. -1.
     999902    2    1    2    0    0 -0.67115416550E-03 -0.22788810509E-01 -0.73890459246E-02  0.10199638086E+01  0.10196822017E+01 0.  0.
     999903    2    3    3    0    0 -0.12055756900E-01 -0.13057880926E+00 -0.10123917127E-01  0.13330955096E+00  0.21743412249E-01 0.  0.
         14    1    1    2    0    0  0.67115416550E-03  0.22788810509E-01  0.73890459246E-02  0.23966191437E-01  0.00000000000E+00 0. -1.
     999901    1    3    3    0    0  0.11384602734E-01  0.10778999875E+00  0.27348712025E-02  0.88665425761E+00  0.88000000000E+00 0. -1.
        -11    1    4    4    0    0 -0.13156570896E-01 -0.39088531411E-01  0.57586433600E-04  0.41246491763E-01  0.51100000000E-03 0. -1.
         11    1    4    4    0    0  0.11008139959E-02 -0.91490277849E-01 -0.10181503561E-01  0.92063059194E-01  0.51100000000E-03 0.  1.
</event>
<event>
 8    1  0.1030163E+005  0.1043930E+01  0.7957747E-01            NaN
         13   -1    0    0    0    0  0.00000000000E+00  0.00000000000E+00  0.74505805969E-08  0.10566000000E+00  0.10566000000E+00 0.  1.
     999900   -1    0    0    0    0 -0.00000000000E+00 -0.00000000000E+00 -0.74505805969E-08  0.93827000000E+00  0.93827000000E+00 0.  1.
     999902    2    1    2    0    0 -0.14317137954E-01 -0.35502464215E-02  0.16448176156E-01  0.10218363994E+01  0.10215975235E+01 0.  0.
     999903    2    3    3    0    0 -0.27815959510E-01  0.31478225233E-01 -0.12171318904E+00  0.13026600125E+00  0.19761690963E-01 0.  0.
         14    1    1    2    0    0  0.14317137954E-01  0.35502464215E-02 -0.16448176156E-01  0.22093600605E-01  0.00000000000E+00 0. -1.
     999901    1    3    3    0    0  0.13498821556E-01 -0.35028471655E-01  0.13816136519E+00  0.89157039814E+00  0.88000000000E+00 0. -1.
        -11    1    4    4    0    0 -0.20861543044E-01  0.19849704668E-01 -0.53915461686E-01  0.61125713766E-01  0.51100000000E-03 0.  1.
         11    1    4    4    0    0 -0.69544164662E-02  0.11628520565E-01 -0.67797727351E-01  0.69140287487E-01  0.51100000000E-03 0. -1.
</event>
<event>
 8    1  0.1030163E+005  0.1043930E+01  0.7957747E-01            NaN
         13   -1    0    0    0    0  0.00000000000E+00  0.00000000000E+00  0.74505805969E-08  0.10566000000E+00  0.10566000000E+00 0. -1.
     999900   -1    0    0    0    0 -0.00000000000E+00 -0.00000000000E+00 -0.74505805969E-08  0.93827000000E+00  0.93827000000E+00 0. -1.
     999902    2    1    2    0    0  0.16941734033E-01 -0.16617164061E-01  0.42533781428E-02  0.10198210034E+01  0.10195359901E+01 0.  0.
     999903    2    3    3    0    0  0.99576317612E-01  0.27320291948E-02  0.84553245158E-01  0.13209867384E+00  0.19439684943E-01 0.  0.
         14    1    1    2    0    0 -0.16941734033E-01  0.16617164061E-01 -0.42533781428E-02  0.24108996642E-01  0.00000000000E+00 0. -1.
     999901    1    3    3    0    0 -0.82634583580E-01 -0.19349193255E-01 -0.80299867015E-01  0.88772232952E+00  0.88000000000E+00 0. -1.
        -11    1    4    4    0    0  0.25626821763E-01 -0.64003463638E-02  0.16247158889E-01  0.31014991862E-01  0.51100000000E-03 0.  1.
         11    1    4    4    0    0  0.73949495849E-01  0.91323755586E-02  0.68306086269E-01  0.10108368198E+00  0.51100000000E-03 0. -1.
</event>
<event>
 8    1  0.1030163E+005  0.1043930E+01  0.7957747E-01            NaN
         13   -1    0    0    0    0  0.00000000000E+00  0.00000000000E+00  0.74505805969E-08  0.10566000000E+00  0.10566000000E+00 0. -1.
     999900   -1    0    0    0    0 -0.00000000000E+00 -0.00000000000E+00 -0.74505805969E-08  0.93827000000E+00  0.93827000000E+00 0.  1.
     999902    2    1    2    0    0  0.33236382958E-02 -0.22662283703E-01  0.93683744474E-03  0.10210061404E+01  0.10207487621E+01 0.  0.
     999903    2    3    3    0    0 -0.28566159108E-01  0.10100583878E+00 -0.71715247158E-01  0.12882393419E+00  0.20840451812E-01 0.  0.
         14    1    1    2    0    0 -0.33236382958E-02  0.22662283703E-01 -0.93683744474E-03  0.22923859591E-01  0.00000000000E+00 0. -1.
     999901    1    3    3    0    0  0.31889797404E-01 -0.12366812248E+00  0.72652084602E-01  0.89218220622E+00  0.88000000000E+00 0. -1.
        -11    1    4    4    0    0 -0.51405885397E-03  0.19070003699E-01 -0.21356738838E-01  0.28640892311E-01  0.51100000000E-03 0.  1.
         11    1    4    4    0    0 -0.28052100255E-01  0.81935835080E-01 -0.50358508319E-01  0.10018304188E+00  0.51100000000E-03 0. -1.
</event>
<event>
 8    1  0.1030163E+005  0.1043930E+01  0.7957747E-01            NaN
         13   -1    0    0    0    0  0.00000000000E+00  0.00000000000E+00  0.74505805969E-08  0.10566000000E+00  0.10566000000E+00 0. -1.
     999900   -1    0    0    0    0 -0.00000000000E+00 -0.00000000000E+00 -0.74505805969E-08  0.93827000000E+00  0.93827000000E+00 0. -1.
     999902    2    1    2    0    0  0.27465891873E-01  0.66978565529E-02  0.85740710465E-03  0.10156462300E+01  0.10152523296E+01 0.  0.
     999903    2    3    3    0    0  0.11673831002E+00  0.47854158172E-01  0.22760157916E-01  0.12990183329E+00  0.20942970686E-01 0.  0.
         14    1    1    2    0    0 -0.27465891873E-01 -0.66978565529E-02 -0.85740710465E-03  0.28283770006E-01  0.00000000000E+00 0.  1.
     999901    1    3    3    0    0 -0.89272418151E-01 -0.41156301619E-01 -0.21902750811E-01  0.88574439671E+00  0.88000000000E+00 0.  1.
        -11    1    4    4    0    0  0.64702940824E-01  0.33527850179E-01  0.48614376748E-02  0.73037538199E-01  0.51100000000E-03 0.  1.
         11    1    4    4    0    0  0.52035369201E-01  0.14326307993E-01  0.17898720241E-01  0.56864295088E-01  0.51100000000E-03 0. -1.
</event>
<event>
 8    1  0.1030163E+005  0.1043930E+01  0.7957747E-01            NaN
         13   -1    0    0    0    0  0.00000000000E+00  0.00000000000E+00  0.74505805969E-08  0.10566000000E+00  0.10566000000E+00 0. -1.
     999900   -1    0    0    0    0 -0.00000000000E+00 -0.00000000000E+00 -0.74505805969E-08  0.93827000000E+00  0.93827000000E+00 0.  1.
     999902    2    1    2    0    0 -0.19330422245E-01  0.11427871153E-01  0.14392787307E-02  0.10214281559E+01  0.10211802704E+01 0.  0.
     999903    2    3    3    0    0  0.11422458326E+00  0.25264734897E-02  0.57498975568E-01  0.12954314990E+00  0.20534288531E-01 0.  0.
         14    1    1    2    0    0  0.19330422245E-01 -0.11427871153E-01 -0.14392787307E-02  0.22501844069E-01  0.00000000000E+00 0.  1.
     999901    1    3    3    0    0 -0.13355500550E+00  0.89013976630E-02 -0.56059696837E-01  0.89188500603E+00  0.88000000000E+00 0. -1.
        -11    1    4    4    0    0  0.10493488218E-01 -0.24716388999E-02  0.12062278651E-01  0.16185857440E-01  0.51100000000E-03 0.  1.
         11    1    4    4    0    0  0.10373109504E+00  0.49981123896E-02  0.45436696917E-01  0.11335729246E+00  0.51100000000E-03 0. -1.
</event>
<event>
 8    1  0.1030163E+005  0.1043930E+01  0.7957747E-01            NaN
         13   -1    0    0    0    0  0.00000000000E+00  0.00000000000E+00  0.74505805969E-08  0.10566000000E+00  0.10566000000E+00 0.  1.
     999900   -1    0    0    0    0 -0.00000000000E+00 -0.00000000000E+00 -0.74505805969E-08  0.93827000000E+00  0.93827000000E+00 0.  1.
     999902    2    1    2    0    0 -0.22372785166E-02  0.13703442572E-01 -0.19131076511E-01  0.10202913063E+01  0.10200174321E+01 0.  0.
     999903    2    3    3    0    0  0.52807694706E-01 -0.67338374748E-01 -0.97631841095E-01  0.13138180846E+00  0.20151770758E-01 0.  0.
         14    1    1    2    0    0  0.22372785166E-02 -0.13703442572E-01  0.19131076511E-01  0.23638693744E-01  0.00000000000E+00 0. -1.
     999901    1    3    3    0    0 -0.55044973222E-01  0.81041817320E-01  0.78500764585E-01  0.88890949780E+00  0.88000000000E+00 0.  1.
        -11    1    4    4    0    0  0.31043903423E-01 -0.54070337735E-01 -0.66868095376E-01  0.91427176828E-01  0.51100000000E-03 0. -1.
         11    1    4    4    0    0  0.21763791282E-01 -0.13268037014E-01 -0.30763745719E-01  0.39954631632E-01  0.51100000000E-03 0.  1.
</event>
<event>
 8    1  0.1030163E+005  0.1043930E+01  0.7957747E-01            NaN
         13   -1    0    0    0    0  0.00000000000E+00  0.00000000000E+00  0.74505805969E-08  0.10566000000E+00  0.10566000000E+00 0. -1.
     999900   -1    0    0    0    0 -0.00000000000E+00 -0.00000000000E+00 -0.74505805969E-08  0.93827000000E+00  0.93827000000E+00 0.  1.
     999902    2    1    2    0    0  0.11869896639E-01  0.12626124969E-01 -0.16054039610E-01  0.10203070098E+01  0.10200335037E+01 0.  0.
     999903    2    3    3    0    0  0.82551265070E-01 -0.71038162448E-01 -0.71315847861E-01  0.13179733834E+00  0.20578055035E-01 0.  0.
         14    1    1    2    0    0 -0.11869896639E-01 -0.12626124969E-01  0.16054039610E-01  0.23622990195E-01  0.00000000000E+00 0. -1.
     999901    1    3    3    0    0 -0.70681368432E-01  0.83664287417E-01  0.55261808251E-01  0.88850967146E+00  0.88000000000E+00 0. -1.
        -11    1    4    4    0    0  0.18990517626E-01 -0.27916586952E-01 -0.25991634805E-01  0.42612225799E-01  0.51100000000E-03 0.  1.
         11    1    4    4    0    0  0.63560747445E-01 -0.43121575496E-01 -0.45324213056E-01  0.89185112542E-01  0.51100000000E-03 0. -1.
</event>
<event>
 8    1  0.1030163E+005  0.1043930E+01  0.7957747E-01            NaN
         13   -1    0    0    0    0  0.00000000000E+00  0.00000000000E+00  0.74505805969E-08  0.10566000000E+00  0.10566000000E+00 0. -1.
     999900   -1    0    0    0    0 -0.00000000000E+00 -0.00000000000E+00 -0.74505805969E-08  0.93827000000E+00  0.93827000000E+00 0. -1.
     999902    2    1    2    0    0 -0.16116146680E-01  0.20486236046E-01  0.24081175429E-02  0.10177533867E+01  0.10174166999E+01 0.  0.
     999903    2    3    3    0    0 -0.84460674881E-01 -0.29780461971E-01  0.91330803354E-01  0.12921247069E+00  0.18277456703E-01 0.  0.
         14    1    1    2    0    0  0.16116146680E-01 -0.20486236046E-01 -0.24081175429E-02  0.26176613250E-01  0.00000000000E+00 0. -1.
     999901    1    3    3    0    0  0.68344528201E-01  0.50266698017E-01 -0.88922685811E-01  0.88854091606E+00  0.88000000000E+00 0. -1.
        -11    1    4    4    0    0 -0.22697879294E-01 -0.10091692426E-02  0.17026850796E-01  0.28396952584E-01  0.51100000000E-03 0. -1.
         11    1    4    4    0    0 -0.61762795586E-01 -0.28771292728E-01  0.74303952557E-01  0.10081551810E+00  0.51100000000E-03 0.  1.
</event>
<event>
 8    1  0.1030163E+005  0.1043930E+01  0.7957747E-01            NaN
         13   -1    0    0    0    0  0.00000000000E+00  0.00000000000E+00  0.74505805969E-08  0.10566000000E+00  0.10566000000E+00 0.  1.
     999900   -1    0    0    0    0 -0.00000000000E+00 -0.00000000000E+00 -0.74505805969E-08  0.93827000000E+00  0.93827000000E+00 0. -1.
     999902    2    1    2    0    0  0.14127729700E-02  0.23580805085E-01  0.16431062926E-02  0.10202498375E+01  0.10199749903E+01 0.  0.
     999903    2    3    3    0    0  0.13845954244E-01  0.30768578445E-01 -0.12521746779E+00  0.13103678470E+00  0.18783206206E-01 0.  0.
         14    1    1    2    0    0 -0.14127729700E-02 -0.23580805085E-01 -0.16431062926E-02  0.23680162462E-01  0.00000000000E+00 0.  1.
     999901    1    3    3    0    0 -0.12433181274E-01 -0.71877733600E-02  0.12686057409E+00  0.88921305284E+00  0.88000000000E+00 0.  1.
        -11    1    4    4    0    0  0.12802978504E-01  0.98737491789E-02 -0.37185087087E-01  0.40551189922E-01  0.51100000000E-03 0. -1.
         11    1    4    4    0    0  0.10429757404E-02  0.20894829266E-01 -0.88032380705E-01  0.90485594777E-01  0.51100000000E-03 0.  1.
</event>
<event>
 8    1  0.1030163E+005  0.1043930E+01  0.7957747E-01            NaN
         13   -1    0    0    0    0  0.00000000000E+00  0.00000000000E+00  0.74505805969E-08  0.10566000000E+00  0.10566000000E+00 0. -1.
     999900   -1    0    0    0    0 -0.00000000000E+00 -0.00000000000E+00 -0.74505805969E-08  0.93827000000E+00  0.93827000000E+00 0.  1.
     999902    2    1    2    0    0  0.15445957310E-01 -0.50605521665E-02  0.15850445883E-01  0.10212270614E+01  0.10209746753E+01 0.  0.
     999903    2    3    3    0    0  0.22022529666E-01 -0.34032052611E-01 -0.12191768250E+00  0.13001291413E+00  0.19906383803E-01 0.  0.
         14    1    1    2    0    0 -0.15445957310E-01  0.50605521665E-02 -0.15850445883E-01  0.22702938579E-01  0.00000000000E+00 0.  1.
     999901    1    3    3    0    0 -0.65765723567E-02  0.28971500445E-01  0.13776812838E+00  0.89121414730E+00  0.88000000000E+00 0. -1.
        -11    1    4    4    0    0 -0.30947137842E-02 -0.54864231723E-03 -0.11287061708E-01  0.11727623152E-01  0.51100000000E-03 0.  1.
         11    1    4    4    0    0  0.25117243451E-01 -0.33483410294E-01 -0.11063062079E+00  0.11828529097E+00  0.51100000000E-03 0. -1.
</event>
<event>
 8    1  0.1030163E+005  0.1043930E+01  0.7957747E-01            NaN
         13   -1    0    0    0    0  0.00000000000E+00  0.00000000000E+00  0.74505805969E-08  0.10566000000E+00  0.10566000000E+00 0. -1.
     999900   -1    0    0    0    0 -0.00000000000E+00 -0.00000000000E+00 -0.74505805969E-08  0.93827000000E+00  0.93827000000E+00 0. -1.
     999902    2    1    2    0    0 -0.22037000312E-01  0.81594729700E-02 -0.24368954110E-02  0.10203049108E+01  0.10200313554E+01 0.  0.
     999903    2    3    3    0    0 -0.77786562140E-01 -0.91607197900E-01 -0.49953502374E-01  0.13164342843E+00  0.19799290200E-01 0.  0.
         14    1    1    2    0    0  0.22037000312E-01 -0.81594729700E-02  0.24368954110E-02  0.23625089230E-01  0.00000000000E+00 0.  1.
     999901    1    3    3    0    0  0.55749561828E-01  0.99766670870E-01  0.47516606963E-01  0.88866148234E+00  0.88000000000E+00 0.  1.
        -11    1    4    4    0    0 -0.63313134905E-01 -0.84705661183E-01 -0.43546434230E-01  0.11436850591E+00  0.51100000000E-03 0.  1.
         11    1    4    4    0    0 -0.14473427234E-01 -0.69015367165E-02 -0.64070681432E-02  0.17274922522E-01  0.51100000000E-03 0. -1.
</event>
<event>
 8    1  0.1030163E+005  0.1043930E+01  0.7957747E-01            NaN
         13   -1    0    0    0    0  0.00000000000E+00  0.00000000000E+00  0.74505805969E-08  0.10566000000E+00  0.10566000000E+00 0.  1.
     999900   -1    0    0    0    0 -0.00000000000E+00 -0.00000000000E+00 -0.74505805969E-08  0.93827000000E+00  0.93827000000E+00 0. -1.
     999902    2    1    2    0    0 -0.99858168863E-02 -0.87169579287E-02  0.17690691144E-01  0.10218242893E+01  0.10215851485E+01 0.  0.
     999903    2    3    3    0    0  0.18543821486E-01 -0.12491648366E+00 -0.34008994523E-01  0.13222374545E+00  0.19455229308E-01 0.  0.
         14    1    1    2    0    0  0.99858168863E-02  0.87169579287E-02 -0.17690691144E-01  0.22105710746E-01  0.00000000000E+00 0. -1.
     999901    1    3    3    0    0 -0.28529638372E-01  0.11619952573E+00  0.51699685667E-01  0.88960054381E+00  0.88000000000E+00 0.  1.
        -11    1    4    4    0    0  0.33505524795E-02 -0.64250770494E-01 -0.25047153876E-01  0.69043527932E-01  0.51100000000E-03 0. -1.
         11    1    4    4    0    0  0.15193269006E-01 -0.60665713161E-01 -0.89618406475E-02  0.63180217515E-01  0.51100000000E-03 0.  1.
</event>
<event>
 8    1  0.1030163E+005  0.1043930E+01  0.7957747E-01            NaN
         13   -1    0    0    0    0  0.00000000000E+00  0.00000000000E+00  0.74505805969E-08  0.10566000000E+00  0.10566000000E+00 0. -1.
     999900   -1    0    0    0    0 -0.00000000000E+00 -0.00000000000E+00 -0.74505805969E-08  0.93827000000E+00  0.93827000000E+00 0. -1.
     999902    2    1    2    0    0  0.21566983001E-01  0.61817821106E-03  0.83096147676E-02  0.10208093037E+01  0.10205474354E+01 0.  0.
     999903    2    3    3    0    0  0.10398369119E+00  0.38693609484E-01  0.72009658237E-01  0.13384822913E+00  0.20497661164E-01 0.  0.
         14    1    1    2    0    0 -0.21566983001E-01 -0.61817821106E-03 -0.83096147676E-02  0.23120696305E-01  0.00000000000E+00 0.  1.
     999901    1    3    3    0    0 -0.82416708190E-01 -0.38075431273E-01 -0.63700043470E-01  0.88696107457E+00  0.88000000000E+00 0. -1.
        -11    1    4    4    0    0  0.74965398965E-01  0.31278543852E-01  0.41998038582E-01  0.91445364635E-01  0.51100000000E-03 0. -1.
         11    1    4    4    0    0  0.29018292225E-01  0.74150656321E-02  0.30011619656E-01  0.42402864495E-01  0.51100000000E-03 0.  1.
</event>
<event>
 8    1  0.1030163E+005  0.1043930E+01  0.7957747E-01            NaN
         13   -1    0    0    0    0  0.00000000000E+00  0.00000000000E+00  0.74505805969E-08  0.10566000000E+00  0.10566000000E+00 0. -1.
     999900   -1    0    0    0    0 -0.00000000000E+00 -0.00000000000E+00 -0.74505805969E-08  0.93827000000E+00  0.93827000000E+00 0. -1.
     999902    2    1    2    0    0  0.23901537099E-01 -0.57108584082E-02  0.67627442620E-02  0.10184421188E+01  0.10181231346E+01 0.  0.
     999903    2    3    3    0    0 -0.33539063131E-01 -0.10768469161E-01  0.12245867519E+00  0.12899816303E+00  0.20089057972E-01 0.  0.
         14    1    1    2    0    0 -0.23901537099E-01  0.57108584082E-02 -0.67627442620E-02  0.25487881227E-01  0.00000000000E+00 0. -1.
     999901    1    3    3    0    0  0.57440600231E-01  0.50576107533E-02 -0.11569593093E+00  0.88944395575E+00  0.88000000000E+00 0. -1.
        -11    1    4    4    0    0 -0.23068369358E-01 -0.77298907502E-02  0.48752576590E-01  0.54488308112E-01  0.51100000000E-03 0. -1.
         11    1    4    4    0    0 -0.10470693773E-01 -0.30385784113E-02  0.73706098604E-01  0.74509854914E-01  0.51100000000E-03 0.  1.
</event>
<event>
 8    1  0.1030163E+005  0.1043930E+01  0.7957747E-01            NaN
         13   -1    0    0    0    0  0.00000000000E+00  0.00000000000E+00  0.74505805969E-08  0.10566000000E+00  0.10566000000E+00 0. -1.
     999900   -1    0    0    0    0 -0.00000000000E+00 -0.00000000000E+00 -0.74505805969E-08  0.93827000000E+00  0.93827000000E+00 0. -1.
     999902    2    1    2    0    0 -0.21406573861E-02  0.45035101868E-02  0.23562292223E-01  0.10198458635E+01  0.10195614447E+01 0.  0.
     999903    2    3    3    0    0  0.70180817888E-01  0.83198684619E-01 -0.66201009691E-01  0.12884598881E+00  0.19270361319E-01 0.  0.
         14    1    1    2    0    0  0.21406573861E-02 -0.45035101868E-02 -0.23562292223E-01  0.24084136539E-01  0.00000000000E+00 0.  1.
     999901    1    3    3    0    0 -0.72321475274E-01 -0.78695174432E-01  0.89763301914E-01  0.89099987466E+00  0.88000000000E+00 0. -1.
        -11    1    4    4    0    0  0.40701662471E-01  0.53848257474E-01 -0.50811869231E-01  0.84488859246E-01  0.51100000000E-03 0. -1.
         11    1    4    4    0    0  0.29479155417E-01  0.29350427145E-01 -0.15389140461E-01  0.44357129560E-01  0.51100000000E-03 0.  1.
</event>
<event>
 8    1  0.1030163E+005  0.1043930E+01  0.7957747E-01            NaN
         13   -1    0    0    0    0  0.00000000000E+00  0.00000000000E+00  0.74505805969E-08  0.10566000000E+00  0.10566000000E+00 0.  1.
     999900   -1    0    0    0    0 -0.00000000000E+00 -0.00000000000E+00 -0.74505805969E-08  0.93827000000E+00  0.93827000000E+00 0.  1.
     999902    2    1    2    0    0  0.15140700283E-01 -0.58374168981E-02  0.17369538274E-01  0.10201599116E+01  0.10198829483E+01 0.  0.
     999903    2    3    3    0    0 -0.38168694315E-01 -0.25380776972E-01  0.12193957011E+00  0.13215161999E+00  0.22220684950E-01 0.  0.
         14    1    1    2    0    0 -0.15140700283E-01  0.58374168981E-02 -0.17369538274E-01  0.23770088367E-01  0.00000000000E+00 0. -1.
     999901    1    3    3    0    0  0.53309394599E-01  0.19543360073E-01 -0.10457003184E+00  0.88800829165E+00  0.88000000000E+00 0.  1.
        -11    1    4    4    0    0 -0.33690478325E-01 -0.16144498244E-01  0.11110096618E+00  0.11721509698E+00  0.51100000000E-03 0. -1.
         11    1    4    4    0    0 -0.44782159908E-02 -0.92362787272E-02  0.10838603934E-01  0.14936523003E-01  0.51100000000E-03 0.  1.
</event>
<event>
 8    1  0.1030163E+005  0.1043930E+01  0.7957747E-01            NaN
         13   -1    0    0    0    0  0.00000000000E+00  0.00000000000E+00  0.74505805969E-08  0.10566000000E+00  0.10566000000E+00 0. -1.
     999900   -1    0    0    0    0 -0.00000000000E+00 -0.00000000000E+00 -0.74505805969E-08  0.93827000000E+00  0.93827000000E+00 0.  1.
     999902    2    1    2    0    0  0.18485854210E-01  0.10732176935E-01  0.21516753726E-01  0.10136005239E+01  0.10131466552E+01 0.  0.
     999903    2    3    3    0    0 -0.11479496667E+00 -0.22192493369E-01 -0.26987284085E-01  0.12163614526E+00  0.19916003568E-01 0.  0.
         14    1    1    2    0    0 -0.18485854210E-01 -0.10732176935E-01 -0.21516753726E-01  0.30329476068E-01  0.00000000000E+00 0.  1.
     999901    1    3    3    0    0  0.13328082088E+00  0.32924670304E-01  0.48504037811E-01  0.89196437867E+00  0.88000000000E+00 0. -1.
        -11    1    4    4    0    0 -0.77741826753E-01 -0.55637171494E-02 -0.16138675979E-01  0.79595631530E-01  0.51100000000E-03 0. -1.
         11    1    4    4    0    0 -0.37053139916E-01 -0.16628776220E-01 -0.10848608106E-01  0.42040513734E-01  0.51100000000E-03 0.  1.
</event>
<event>
 8    1  0.1030163E+005  0.1043930E+01  0.7957747E-01            NaN
         13   -1    0    0    0    0  0.00000000000E+00  0.00000000000E+00  0.74505805969E-08  0.10566000000E+00  0.10566000000E+00 0. -1.
     999900   -1    0    0    0    0 -0.00000000000E+00 -0.00000000000E+00 -0.74505805969E-08  0.93827000000E+00  0.93827000000E+00 0. -1.
     999902    2    1    2    0    0 -0.19449927129E-01 -0.51724759190E-02  0.17519442545E-01  0.10172469522E+01  0.10168969352E+01 0.  0.
     999903    2    3    3    0    0  0.41569648453E-01 -0.52096141414E-01 -0.10455245772E+00  0.12549207119E+00  0.19364913988E-01 0.  0.
         14    1    1    2    0    0  0.19449927129E-01  0.51724759190E-02 -0.17519442545E-01  0.26683047793E-01  0.00000000000E+00 0.  1.
     999901    1    3    3    0    0 -0.61019575582E-01  0.46923665495E-01  0.12207190026E+00  0.89175488102E+00  0.88000000000E+00 0.  1.
        -11    1    4    4    0    0  0.48252143007E-02 -0.19402961687E-01 -0.34876427272E-01  0.40204277329E-01  0.51100000000E-03 0. -1.
         11    1    4    4    0    0  0.36744434153E-01 -0.32693179726E-01 -0.69676030444E-01  0.85287793859E-01  0.51100000000E-03 0.  1.
</event>
<event>
 8    1  0.1030163E+005  0.1043930E+01  0.7957747E-01            NaN
         13   -1    0    0    0    0  0.00000000000E+00  0.00000000000E+00  0.74505805969E-08  0.10566000000E+00  0.10566000000E+00 0.  1.
     999900   -1    0    0    0    0 -0.00000000000E+00 -0.00000000000E+00 -0.74505805969E-08  0.93827000000E+00  0.93827000000E+00 0.  1.
     999902    2    1    2    0    0  0.22181375025E-01 -0.22325405507E-03 -0.15020998580E-01  0.10171401952E+01  0.10167873343E+01 0.  0.
     999903    2    3    3    0    0  0.53988548014E-01 -0.10427930038E+00 -0.51372032315E-01  0.12969399706E+00  0.19811899555E-01 0.  0.
         14    1    1    2    0    0 -0.22181375025E-01  0.22325405507E-03  0.15020998580E-01  0.26789804753E-01  0.00000000000E+00 0.  1.
     999901    1    3    3    0    0 -0.31807172989E-01  0.10405604632E+00  0.36351033734E-01  0.88744619819E+00  0.88000000000E+00 0.  1.
        -11    1    4    4    0    0  0.26039243389E-01 -0.50736411204E-01 -0.14201757324E-01  0.58772243876E-01  0.51100000000E-03 0. -1.
         11    1    4    4    0    0  0.27949304625E-01 -0.53542889175E-01 -0.37170274990E-01  0.70921753180E-01  0.51100000000E-03 0.  1.
</event>
<event>
 8    1  0.1063078E+005  0.1043930E+01  0.7957747E-01            NaN
         13   -1    0    0    0    0  0.00000000000E+00  0.00000000000E+00  0.74505805969E-08  0.10566000000E+00  0.10566000000E+00 0. -1.
     999900   -1    0    0    0    0 -0.00000000000E+00 -0.00000000000E+00 -0.74505805969E-08  0.93827000000E+00  0.93827000000E+00 0.  1.
     999902    2    1    2    0    0 -0.39034326106E-02 -0.12408020966E-01  0.19828450218E-01  0.10202158015E+01  0.10199401544E+01 0.  0.
     999903    2    3    3    0    0  0.69354552392E-01 -0.23612867000E-01 -0.10387095228E+00  0.12847939255E+00  0.18712513390E-01 0.  0.
         14    1    1    2    0    0  0.39034326106E-02  0.12408020966E-01 -0.19828450218E-01  0.23714198457E-01  0.00000000000E+00 0.  1.
     999901    1    3    3    0    0 -0.73257985002E-01  0.11204846034E-01  0.12369940250E+00  0.89173640899E+00  0.88000000000E+00 0. -1.
        -11    1    4    4    0    0  0.19299304985E-01 -0.13870879844E-02 -0.39302968535E-01  0.43810633900E-01  0.51100000000E-03 0.  1.
         11    1    4    4    0    0  0.50055247406E-01 -0.22225779015E-01 -0.64567983746E-01  0.84668758652E-01  0.51100000000E-03 0. -1.
</event>
<event>
 8    1  0.1030163E+005  0.1043930E+01  0.7957747E-01            NaN
         13   -1    0    0    0    0  0.00000000000E+00  0.00000000000E+00  0.74505805969E-08  0.10566000000E+00  0.10566000000E+00 0. -1.
     999900   -1    0    0    0    0 -0.00000000000E+00 -0.00000000000E+00 -0.74505805969E-08  0.93827000000E+00  0.93827000000E+00 0. -1.
     999902    2    1    2    0    0  0.13748826467E-01 -0.19189977750E-01  0.52946790013E-03  0.10203171685E+01  0.10200439003E+01 0.  0.
     999903    2    3    3    0    0  0.10017242418E+00 -0.18905668611E-01 -0.81896487539E-01  0.13225007801E+00  0.19776490894E-01 0.  0.
         14    1    1    2    0    0 -0.13748826467E-01  0.19189977750E-01 -0.52946790013E-03  0.23612831502E-01  0.00000000000E+00 0.  1.
     999901    1    3    3    0    0 -0.86423597710E-01 -0.28430913930E-03  0.82425955439E-01  0.88806709049E+00  0.88000000000E+00 0.  1.
        -11    1    4    4    0    0  0.37224781046E-01 -0.75995149761E-02 -0.18742282917E-01  0.42367100936E-01  0.51100000000E-03 0. -1.
         11    1    4    4    0    0  0.62947643131E-01 -0.11306153635E-01 -0.63154204622E-01  0.89882977077E-01  0.51100000000E-03 0.  1.
</event>
<event>
 8    1  0.1030163E+005  0.1043930E+01  0.7957747E-01            NaN
         13   -1    0    0    0    0  0.00000000000E+00  0.00000000000E+00  0.74505805969E-08  0.10566000000E+00  0.10566000000E+00 0. -1.
     999900   -1    0    0    0    0 -0.00000000000E+00 -0.00000000000E+00 -0.74505805969E-08  0.93827000000E+00  0.93827000000E+00 0.  1.
     999902    2    1    2    0    0  0.48531929898E-02  0.22916376677E-01  0.26762137223E-02  0.10203529789E+01  0.10200805486E+01 0.  0.
     999903    2    3    3    0    0  0.33586367736E-01 -0.12105895335E-01 -0.12370395099E+00  0.13017091840E+00  0.19162560089E-01 0.  0.
         14    1    1    2    0    0 -0.48531929898E-02 -0.22916376677E-01 -0.26762137223E-02  0.23577021060E-01  0.00000000000E+00 0. -1.
     999901    1    3    3    0    0 -0.28733174746E-01  0.35022272012E-01  0.12638016471E+00  0.89018206054E+00  0.88000000000E+00 0. -1.
        -11    1    4    4    0    0  0.12142479897E-01 -0.12748119103E-01 -0.73347802236E-01  0.75432854729E-01  0.51100000000E-03 0. -1.
         11    1    4    4    0    0  0.21443887839E-01  0.64222376754E-03 -0.50356148749E-01  0.54738063675E-01  0.51100000000E-03 0.  1.
</event>
<event>
 8    1  0.1030163E+005  0.1043930E+01  0.7957747E-01            NaN
         13   -1    0    0    0    0  0.00000000000E+00  0.00000000000E+00  0.74505805969E-08  0.10566000000E+00  0.10566000000E+00 0. -1.
     999900   -1    0    0    0    0 -0.00000000000E+00 -0.00000000000E+00 -0.74505805969E-08  0.93827000000E+00  0.93827000000E+00 0.  1.
     999902    2    1    2    0    0  0.25730126418E-02  0.19091445392E-01 -0.13657700793E-01  0.10203156723E+01  0.10200423691E+01 0.  0.
     999903    2    3    3    0    0  0.58707442463E-01  0.56164648568E-01  0.10014584263E+00  0.13044110638E+00  0.19612773564E-01 0.  0.
         14    1    1    2    0    0 -0.25730126418E-02 -0.19091445392E-01  0.13657700793E-01  0.23614327688E-01  0.00000000000E+00 0.  1.
     999901    1    3    3    0    0 -0.56134429821E-01 -0.37073203177E-01 -0.11380354342E+00  0.88987456594E+00  0.88000000000E+00 0.  1.
        -11    1    4    4    0    0  0.35676715654E-01  0.42207492345E-01  0.77862304671E-01  0.95483506741E-01  0.51100000000E-03 0. -1.
         11    1    4    4    0    0  0.23030726809E-01  0.13957156224E-01  0.22283537960E-01  0.34957599634E-01  0.51100000000E-03 0.  1.
</event>
<event>
 8    1  0.1030163E+005  0.1043930E+01  0.7957747E-01            NaN
         13   -1    0    0    0    0  0.00000000000E+00  0.00000000000E+00  0.74505805969E-08  0.10566000000E+00  0.10566000000E+00 0.  1.
     999900   -1    0    0    0    0 -0.00000000000E+00 -0.00000000000E+00 -0.74505805969E-08  0.93827000000E+00  0.93827000000E+00 0.  1.
     999902    2    1    2    0    0 -0.48430346737E-02 -0.56271410215E-02 -0.21708207108E-01  0.10209873333E+01  0.10207295277E+01 0.  0.
     999903    2    3    3    0    0 -0.10483109763E+00 -0.62619734391E-01  0.43671401573E-01  0.13108831559E+00  0.19135438412E-01 0.  0.
         14    1    1    2    0    0  0.48430346737E-02  0.56271410215E-02  0.21708207108E-01  0.22942666732E-01  0.00000000000E+00 0.  1.
     999901    1    3    3    0    0  0.99988062956E-01  0.56992593370E-01 -0.65379608682E-01  0.88989901768E+00  0.88000000000E+00 0.  1.
        -11    1    4    4    0    0 -0.82224853643E-01 -0.52276536423E-01  0.26854888714E-01  0.10107031704E+00  0.51100000000E-03 0.  1.
         11    1    4    4    0    0 -0.22606243988E-01 -0.10343197969E-01  0.16816512859E-01  0.30017998554E-01  0.51100000000E-03 0. -1.
</event>
<event>
 8    1  0.1030163E+005  0.1043930E+01  0.7957747E-01            NaN
         13   -1    0    0    0    0  0.00000000000E+00  0.00000000000E+00  0.74505805969E-08  0.10566000000E+00  0.10566000000E+00 0.  1.
     999900   -1    0    0    0    0 -0.00000000000E+00 -0.00000000000E+00 -0.74505805969E-08  0.93827000000E+00  0.93827000000E+00 0.  1.
     999902    2    1    2    0    0  0.27204945773E-01 -0.49207577817E-03 -0.16301894731E-01  0.10122108735E+01  0.10117137686E+01 0.  0.
     999903    2    3    3    0    0  0.31763594080E-01  0.70986538445E-01  0.92778712975E-01  0.12258817116E+00  0.19286149913E-01 0.  0.
         14    1    1    2    0    0 -0.27204945773E-01  0.49207577817E-03  0.16301894731E-01  0.31719126484E-01  0.00000000000E+00 0.  1.
     999901    1    3    3    0    0 -0.45586483074E-02 -0.71478614223E-01 -0.10908060771E+00  0.88962270235E+00  0.88000000000E+00 0.  1.
        -11    1    4    4    0    0  0.18016294962E-01  0.37909290527E-01  0.64463039474E-01  0.76924935955E-01  0.51100000000E-03 0. -1.
         11    1    4    4    0    0  0.13747299118E-01  0.33077247917E-01  0.28315673501E-01  0.45663235208E-01  0.51100000000E-03 0.  1.
</event>
<event>
 8    1  0.1030163E+005  0.1043930E+01  0.7957747E-01            NaN
         13   -1    0    0    0    0  0.00000000000E+00  0.00000000000E+00  0.74505805969E-08  0.10566000000E+00  0.10566000000E+00 0.  1.
     999900   -1    0    0    0    0 -0.00000000000E+00 -0.00000000000E+00 -0.74505805969E-08  0.93827000000E+00  0.93827000000E+00 0. -1.
     999902    2    1    2    0    0 -0.11917832765E-01 -0.90345221152E-02  0.17756341018E-01  0.10207148116E+01  0.10204507737E+01 0.  0.
     999903    2    3    3    0    0 -0.18484464509E-01  0.12038227855E+00 -0.37951267574E-01  0.12948242515E+00  0.22177269746E-01 0.  0.
         14    1    1    2    0    0  0.11917832765E-01  0.90345221152E-02 -0.17756341018E-01  0.23215188434E-01  0.00000000000E+00 0.  1.
     999901    1    3    3    0    0  0.65666317432E-02 -0.12941680067E+00  0.55707608591E-01  0.89123238642E+00  0.88000000000E+00 0.  1.
        -11    1    4    4    0    0 -0.62812730084E-02  0.72293488270E-01 -0.12213102076E-01  0.73588204355E-01  0.51100000000E-03 0. -1.
         11    1    4    4    0    0 -0.12203191500E-01  0.48088790284E-01 -0.25738165497E-01  0.55894220792E-01  0.51100000000E-03 0.  1.
</event>
<event>
 8    1  0.1030163E+005  0.1043930E+01  0.7957747E-01            NaN
         13   -1    0    0    0    0  0.00000000000E+00  0.00000000000E+00  0.74505805969E-08  0.10566000000E+00  0.10566000000E+00 0. -1.
     999900   -1    0    0    0    0 -0.00000000000E+00 -0.00000000000E+00 -0.74505805969E-08  0.93827000000E+00  0.93827000000E+00 0. -1.
     999902    2    1    2    0    0  0.19897903471E-01 -0.97317448812E-02 -0.56058585750E-02  0.10210813880E+01  0.10208257157E+01 0.  0.
     999903    2    3    3    0    0 -0.66946817644E-01 -0.24558302379E-01  0.10635730388E+00  0.12962326662E+00  0.20132773077E-01 0.  0.
         14    1    1    2    0    0 -0.19897903471E-01  0.97317448812E-02  0.56058585750E-02  0.22848612022E-01  0.00000000000E+00 0. -1.
     999901    1    3    3    0    0  0.86844721115E-01  0.14826557498E-01 -0.11196316245E+00  0.89145812136E+00  0.88000000000E+00 0. -1.
        -11    1    4    4    0    0 -0.38612073362E-01 -0.15178056448E-01  0.43933909604E-01  0.60429422809E-01  0.51100000000E-03 0. -1.
         11    1    4    4    0    0 -0.28334744281E-01 -0.93802459308E-02  0.62423394275E-01  0.69193843809E-01  0.51100000000E-03 0.  1.
</event>
<event>
 8    1  0.1030163E+005  0.1043930E+01  0.7957747E-01            NaN
         13   -1    0    0    0    0  0.00000000000E+00  0.00000000000E+00  0.74505805969E-08  0.10566000000E+00  0.10566000000E+00 0. -1.
     999900   -1    0    0    0    0 -0.00000000000E+00 -0.00000000000E+00 -0.74505805969E-08  0.93827000000E+00  0.93827000000E+00 0.  1.
     999902    2    1    2    0    0  0.12463447364E-01  0.13995513351E-01  0.16026099693E-01  0.10192713750E+01  0.10189730557E+01 0.  0.
     999903    2    3    3    0    0 -0.10062890231E+00  0.33200659425E-01 -0.68692368582E-01  0.12779174202E+00  0.19586425444E-01 0.  0.
         14    1    1    2    0    0 -0.12463447364E-01 -0.13995513351E-01 -0.16026099693E-01  0.24658624973E-01  0.00000000000E+00 0.  1.
     999901    1    3    3    0    0  0.11309234968E+00 -0.19205146074E-01  0.84718468276E-01  0.89147963300E+00  0.88000000000E+00 0. -1.
        -11    1    4    4    0    0 -0.22470849968E-01 -0.87306500896E-03 -0.14633306591E-01  0.26834606828E-01  0.51100000000E-03 0. -1.
         11    1    4    4    0    0 -0.78158052343E-01  0.34073724434E-01 -0.54059061991E-01  0.10095713520E+00  0.51100000000E-03 0.  1.
</event>
<event>
 8    1  0.1030163E+005  0.1043930E+01  0.7957747E-01            NaN
         13   -1    0    0    0    0  0.00000000000E+00  0.00000000000E+00  0.74505805969E-08  0.10566000000E+00  0.10566000000E+00 0.  1.
     999900   -1    0    0    0    0 -0.00000000000E+00 -0.00000000000E+00 -0.74505805969E-08  0.93827000000E+00  0.93827000000E+00 0. -1.
     999902    2    1    2    0    0  0.19430233399E-01  0.71346216629E-02  0.11585157563E-01  0.10202096992E+01  0.10199339084E+01 0.  0.
     999903    2    3    3    0    0 -0.39336412476E-01 -0.31761667646E-01 -0.11635919927E+00  0.12816923010E+00  0.18213495319E-01 0.  0.
         14    1    1    2    0    0 -0.19430233399E-01 -0.71346216629E-02 -0.11585157563E-01  0.23720300841E-01  0.00000000000E+00 0. -1.
     999901    1    3    3    0    0  0.58766645875E-01  0.38896289309E-01  0.12794435684E+00  0.89204046906E+00  0.88000000000E+00 0.  1.
        -11    1    4    4    0    0 -0.29564759759E-01 -0.13612889450E-01 -0.80025987381E-01  0.86393318932E-01  0.51100000000E-03 0.  1.
         11    1    4    4    0    0 -0.97716527170E-02 -0.18148778195E-01 -0.36333211891E-01  0.41775911170E-01  0.51100000000E-03 0. -1.
</event>
<event>
 8    1  0.1030163E+005  0.1043930E+01  0.7957747E-01            NaN
         13   -1    0    0    0    0  0.00000000000E+00  0.00000000000E+00  0.74505805969E-08  0.10566000000E+00  0.10566000000E+00 0.  1.
     999900   -1    0    0    0    0 -0.00000000000E+00 -0.00000000000E+00 -0.74505805969E-08  0.93827000000E+00  0.93827000000E+00 0.  1.
     999902    2    1    2    0    0  0.51263936496E-02  0.20583135396E-01  0.97360189738E-02  0.10205904319E+01  0.10203235243E+01 0.  0.
     999903    2    3    3    0    0 -0.40587352895E-01  0.12603930107E+00  0.31414225465E-02  0.13309156529E+00  0.13048279019E-01 0.  0.
         14    1    1    2    0    0 -0.51263936496E-02 -0.20583135396E-01 -0.97360189738E-02  0.23339568120E-01  0.00000000000E+00 0. -1.
     999901    1    3    3    0    0  0.45713746544E-01 -0.10545616568E+00  0.65945964273E-02  0.88749886659E+00  0.88000000000E+00 0. -1.
        -11    1    4    4    0    0 -0.20738451583E-01  0.73688134044E-01  0.75743974309E-02  0.76926309481E-01  0.51100000000E-03 0. -1.
         11    1    4    4    0    0 -0.19848901312E-01  0.52351167027E-01 -0.44329748844E-02  0.56165255806E-01  0.51100000000E-03 0.  1.
</event>
<event>
 8    1  0.1030163E+005  0.1043930E+01  0.7957747E-01            NaN
         13   -1    0    0    0    0  0.00000000000E+00  0.00000000000E+00  0.74505805969E-08  0.10566000000E+00  0.10566000000E+00 0. -1.
     999900   -1    0    0    0    0 -0.00000000000E+00 -0.00000000000E+00 -0.74505805969E-08  0.93827000000E+00  0.93827000000E+00 0.  1.
     999902    2    1    2    0    0  0.46997807357E-02  0.25971880222E-01  0.25478466542E-02  0.10174136273E+01  0.10170680267E+01 0.  0.
     999903    2    3    3    0    0 -0.33852167476E-01 -0.12939060715E-01 -0.12031282387E+00  0.12719171200E+00  0.19727328190E-01 0.  0.
         14    1    1    2    0    0 -0.46997807357E-02 -0.25971880222E-01 -0.25478466542E-02  0.26516372750E-01  0.00000000000E+00 0.  1.
     999901    1    3    3    0    0  0.38551948212E-01  0.38910940937E-01  0.12286067053E+00  0.89022191525E+00  0.88000000000E+00 0. -1.
        -11    1    4    4    0    0 -0.19502518375E-01 -0.17475079691E-01 -0.74876369397E-01  0.79325017795E-01  0.51100000000E-03 0. -1.
         11    1    4    4    0    0 -0.14349649101E-01  0.45360189760E-02 -0.45436454475E-01  0.47866694201E-01  0.51100000000E-03 0.  1.
</event>
<event>
 8    1  0.1030163E+005  0.1043930E+01  0.7957747E-01            NaN
         13   -1    0    0    0    0  0.00000000000E+00  0.00000000000E+00  0.74505805969E-08  0.10566000000E+00  0.10566000000E+00 0. -1.
     999900   -1    0    0    0    0 -0.00000000000E+00 -0.00000000000E+00 -0.74505805969E-08  0.93827000000E+00  0.93827000000E+00 0. -1.
     999902    2    1    2    0    0 -0.19633472808E-01  0.13680201046E-01 -0.59587488200E-02  0.10192697518E+01  0.10189713926E+01 0.  0.
     999903    2    3    3    0    0  0.70870659096E-01  0.46746512995E-01  0.94207523971E-01  0.12836141694E+00  0.19842101374E-01 0.  0.
         14    1    1    2    0    0  0.19633472808E-01 -0.13680201046E-01  0.59587488200E-02  0.24660248228E-01  0.00000000000E+00 0. -1.
     999901    1    3    3    0    0 -0.90504131904E-01 -0.33066311949E-01 -0.10016627279E+00  0.89090833484E+00  0.88000000000E+00 0.  1.
        -11    1    4    4    0    0  0.28983980588E-01  0.30941871736E-01  0.47026360699E-01  0.63318324984E-01  0.51100000000E-03 0.  1.
         11    1    4    4    0    0  0.41886678509E-01  0.15804641259E-01  0.47181163272E-01  0.65043091951E-01  0.51100000000E-03 0. -1.
</event>
<event>
 8    1  0.1030163E+005  0.1043930E+01  0.7957747E-01            NaN
         13   -1    0    0    0    0  0.00000000000E+00  0.00000000000E+00  0.74505805969E-08  0.10566000000E+00  0.10566000000E+00 0. -1.
     999900   -1    0    0    0    0 -0.00000000000E+00 -0.00000000000E+00 -0.74505805969E-08  0.93827000000E+00  0.93827000000E+00 0. -1.
     999902    2    1    2    0    0 -0.16382979274E-01  0.89196486673E-02 -0.15035075933E-01  0.10199713763E+01  0.10196899493E+01 0.  0.
     999903    2    3    3    0    0  0.73414985404E-01  0.89288371010E-01 -0.56429641536E-01  0.13079405085E+00  0.23677120082E-01 0.  0.
         14    1    1    2    0    0  0.16382979274E-01 -0.89196486673E-02  0.15035075933E-01  0.23958623720E-01  0.00000000000E+00 0. -1.
     999901    1    3    3    0    0 -0.89797964678E-01 -0.80368722342E-01  0.41394565603E-01  0.88917732543E+00  0.88000000000E+00 0. -1.
        -11    1    4    4    0    0  0.71511911314E-01  0.79581122735E-01 -0.56271055042E-01  0.12088755648E+00  0.51100000000E-03 0.  1.
         11    1    4    4    0    0  0.19030740893E-02  0.97072482748E-02 -0.15858649364E-03  0.99064943716E-02  0.51100000000E-03 0. -1.
</event>
<event>
 8    1  0.1030163E+005  0.1043930E+01  0.7957747E-01            NaN
         13   -1    0    0    0    0  0.00000000000E+00  0.00000000000E+00  0.74505805969E-08  0.10566000000E+00  0.10566000000E+00 0.  1.
     999900   -1    0    0    0    0 -0.00000000000E+00 -0.00000000000E+00 -0.74505805969E-08  0.93827000000E+00  0.93827000000E+00 0.  1.
     999902    2    1    2    0    0 -0.19503904296E-01 -0.43805421639E-02  0.12921216532E-01  0.10201277045E+01  0.10198499813E+01 0.  0.
     999903    2    3    3    0    0  0.11016828175E+00 -0.12689135657E-01 -0.59703546118E-01  0.12762657585E+00  0.20638918975E-01 0.  0.
         14    1    1    2    0    0  0.19503904296E-01  0.43805421639E-02 -0.12921216532E-01  0.23802295458E-01  0.00000000000E+00 0. -1.
     999901    1    3    3    0    0 -0.12967218605E+00  0.83085934935E-02  0.72624762650E-01  0.89250112869E+00  0.88000000000E+00 0. -1.
        -11    1    4    4    0    0  0.31178373873E-01 -0.83769349832E-02 -0.26744963816E-01  0.41926343122E-01  0.51100000000E-03 0.  1.
         11    1    4    4    0    0  0.78989907882E-01 -0.43122006742E-02 -0.32958582303E-01  0.85700232731E-01  0.51100000000E-03 0. -1.
</event>
<event>
 8    1  0.1030163E+005  0.1043930E+01  0.7957747E-01            NaN
         13   -1    0    0    0    0  0.00000000000E+00  0.00000000000E+00  0.74505805969E-08  0.10566000000E+00  0.10566000000E+00 0.  1.
     999900   -1    0    0    0    0 -0.00000000000E+00 -0.00000000000E+00 -0.74505805969E-08  0.93827000000E+00  0.93827000000E+00 0. -1.
     999902    2    1    2    0    0 -0.15832242441E-01 -0.17800562442E-01  0.26228255871E-02  0.10199633745E+01  0.10196817573E+01 0.  0.
     999903    2    3    3    0    0 -0.96893144815E-01 -0.74426924472E-01  0.48875381248E-01  0.13321836398E+00  0.20752855489E-01 0.  0.
         14    1    1    2    0    0  0.15832242441E-01  0.17800562442E-01 -0.26228255871E-02  0.23966625503E-01  0.00000000000E+00 0. -1.
     999901    1    3    3    0    0  0.81060902374E-01  0.56626362030E-01 -0.46252555661E-01  0.88674501052E+00  0.88000000000E+00 0.  1.
        -11    1    4    4    0    0 -0.53683526441E-01 -0.29713893364E-01  0.19020148621E-01  0.64240669708E-01  0.51100000000E-03 0. -1.
         11    1    4    4    0    0 -0.43209618374E-01 -0.44713031108E-01  0.29855232627E-01  0.68977694273E-01  0.51100000000E-03 0.  1.
</event>
<event>
 8    1  0.1030163E+005  0.1043930E+01  0.7957747E-01            NaN
         13   -1    0    0    0    0  0.00000000000E+00  0.00000000000E+00  0.74505805969E-08  0.10566000000E+00  0.10566000000E+00 0. -1.
     999900   -1    0    0    0    0 -0.00000000000E+00 -0.00000000000E+00 -0.74505805969E-08  0.93827000000E+00  0.93827000000E+00 0. -1.
     999902    2    1    2    0    0  0.90235192247E-02 -0.21437018506E-01 -0.30196954284E-02  0.10204760404E+01  0.10202064795E+01 0.  0.
     999903    2    3    3    0    0  0.69200524505E-01  0.67213486801E-01  0.84343911385E-01  0.12968280743E+00  0.19934135461E-01 0.  0.
         14    1    1    2    0    0 -0.90235192247E-02  0.21437018506E-01  0.30196954284E-02  0.23453959626E-01  0.00000000000E+00 0. -1.
     999901    1    3    3    0    0 -0.60177005281E-01 -0.88650505308E-01 -0.87363606814E-01  0.89079323294E+00  0.88000000000E+00 0. -1.
        -11    1    4    4    0    0  0.37162795150E-01  0.41055810028E-01  0.35970803766E-01  0.66036449973E-01  0.51100000000E-03 0.  1.
         11    1    4    4    0    0  0.32037729355E-01  0.26157676773E-01  0.48373107620E-01  0.63646357462E-01  0.51100000000E-03 0. -1.
</event>
<event>
 7    1  0.1030163E+005  0.1043930E+01  0.7957747E-01            NaN
         13   -1    0    0    0    0  0.00000000000E+00  0.00000000000E+00  0.74505805969E-08  0.10566000000E+00  0.10566000000E+00 0. -1.
     999900   -1    0    0    0    0 -0.00000000000E+00 -0.00000000000E+00 -0.74505805969E-08  0.93827000000E+00  0.93827000000E+00 0. -1.
     999903    2    1    2    0    0 -0.90416046648E-01  0.27467354571E-02 -0.21524849323E-01  0.94896819054E-01  0.18959986314E-01 0.  0.
         14    1    1    2    0    0  0.31497002923E-01  0.45534809779E-01 -0.32307613164E-01  0.64103525356E-01  0.00000000000E+00 0.  1.
     999901    1    1    2    0    0  0.58919043725E-01 -0.48281545236E-01  0.53832462487E-01  0.88492965559E+00  0.88000000000E+00 0.  1.
        -11    1    3    3    0    0 -0.70876289299E-01  0.71129596357E-02 -0.22891860176E-01  0.74822062006E-01  0.51100000000E-03 0. -1.
         11    1    3    3    0    0 -0.19539757350E-01 -0.43662241786E-02  0.13670108531E-02  0.20074757048E-01  0.51100000000E-03 0.  1.
</event>
<event>
 8    1  0.1030163E+005  0.1043930E+01  0.7957747E-01            NaN
         13   -1    0    0    0    0  0.00000000000E+00  0.00000000000E+00  0.74505805969E-08  0.10566000000E+00  0.10566000000E+00 0.  1.
     999900   -1    0    0    0    0 -0.00000000000E+00 -0.00000000000E+00 -0.74505805969E-08  0.93827000000E+00  0.93827000000E+00 0.  1.
     999902    2    1    2    0    0 -0.17332363949E-02 -0.23756411543E-01  0.38223217690E-02  0.10198057105E+01  0.10195203313E+01 0.  0.
     999903    2    3    3    0    0  0.90220599086E-01  0.65429157515E-01  0.61353232778E-01  0.12867194993E+00  0.19274863806E-01 0.  0.
         14    1    1    2    0    0  0.17332363949E-02  0.23756411543E-01 -0.38223217690E-02  0.24124289451E-01  0.00000000000E+00 0.  1.
     999901    1    3    3    0    0 -0.91953835481E-01 -0.89185569058E-01 -0.57530911009E-01  0.89113376062E+00  0.88000000000E+00 0.  1.
        -11    1    4    4    0    0  0.65629835742E-01  0.49448905589E-01  0.35283752947E-01  0.89429715121E-01  0.51100000000E-03 0.  1.
         11    1    4    4    0    0  0.24590763344E-01  0.15980251926E-01  0.26069479831E-01  0.39242234813E-01  0.51100000000E-03 0. -1.
</event>
<event>
 8    1  0.1030163E+005  0.1043930E+01  0.7957747E-01            NaN
         13   -1    0    0    0    0  0.00000000000E+00  0.00000000000E+00  0.74505805969E-08  0.10566000000E+00  0.10566000000E+00 0. -1.
     999900   -1    0    0    0    0 -0.00000000000E+00 -0.00000000000E+00 -0.74505805969E-08  0.93827000000E+00  0.93827000000E+00 0. -1.
     999902    2    1    2    0    0  0.19190538482E-01  0.10710073070E-01 -0.99345620358E-02  0.10198119994E+01  0.10195267706E+01 0.  0.
     999903    2    3    3    0    0 -0.75190344633E-02  0.80441897967E-01  0.99646112029E-01  0.12987725297E+00  0.20280985396E-01 0.  0.
         14    1    1    2    0    0 -0.19190538482E-01 -0.10710073070E-01  0.99345620358E-02  0.24118000648E-01  0.00000000000E+00 0. -1.
     999901    1    3    3    0    0  0.26709572946E-01 -0.69731824897E-01 -0.10958067406E+00  0.88993474638E+00  0.88000000000E+00 0.  1.
        -11    1    4    4    0    0 -0.13787246011E-01  0.52677784118E-01  0.59431706170E-01  0.80606612082E-01  0.51100000000E-03 0. -1.
         11    1    4    4    0    0  0.62682115477E-02  0.27764113849E-01  0.40214405860E-01  0.49270640888E-01  0.51100000000E-03 0.  1.
</event>
<event>
 8    1  0.1030163E+005  0.1043930E+01  0.7957747E-01            NaN
         13   -1    0    0    0    0  0.00000000000E+00  0.00000000000E+00  0.74505805969E-08  0.10566000000E+00  0.10566000000E+00 0.  1.
     999900   -1    0    0    0    0 -0.00000000000E+00 -0.00000000000E+00 -0.74505805969E-08  0.93827000000E+00  0.93827000000E+00 0.  1.
     999902    2    1    2    0    0  0.12722416565E-02  0.23291094967E-01  0.80798805250E-03  0.10205901939E+01  0.10203232808E+01 0.  0.
     999903    2    3    3    0    0 -0.80486019807E-01 -0.97389191267E-01  0.11530359977E-01  0.12853463843E+00  0.20628866067E-01 0.  0.
         14    1    1    2    0    0 -0.12722416565E-02 -0.23291094967E-01 -0.80798805250E-03  0.23339806089E-01  0.00000000000E+00 0. -1.
     999901    1    3    3    0    0  0.81758261464E-01  0.12068028623E+00 -0.10722371925E-01  0.89205555548E+00  0.88000000000E+00 0. -1.
        -11    1    4    4    0    0 -0.62758417322E-01 -0.80292252424E-01  0.16953028919E-01  0.10331084674E+00  0.51100000000E-03 0.  1.
         11    1    4    4    0    0 -0.17727602485E-01 -0.17096938843E-01 -0.54226689421E-02  0.25223791688E-01  0.51100000000E-03 0. -1.
</event>
<event>
 8    1  0.1030163E+005  0.1043930E+01  0.7957747E-01            NaN
         13   -1    0    0    0    0  0.00000000000E+00  0.00000000000E+00  0.74505805969E-08  0.10566000000E+00  0.10566000000E+00 0.  1.
     999900   -1    0    0    0    0 -0.00000000000E+00 -0.00000000000E+00 -0.74505805969E-08  0.93827000000E+00  0.93827000000E+00 0.  1.
     999902    2    1    2    0    0  0.17173020464E-01  0.10111105310E-01 -0.46422281320E-02  0.10234679042E+01  0.10232633354E+01 0.  0.
     999903    2    3    3    0    0  0.45143494590E-01 -0.61826198449E-02  0.12389200428E+00  0.13354156916E+00  0.20198071088E-01 0.  0.
         14    1    1    2    0    0 -0.17173020464E-01 -0.10111105310E-01  0.46422281320E-02  0.20462095798E-01  0.00000000000E+00 0.  1.
     999901    1    3    3    0    0 -0.27970474126E-01  0.16293725154E-01 -0.12853423242E+00  0.88992633504E+00  0.88000000000E+00 0.  1.
        -11    1    4    4    0    0  0.32012646542E-01 -0.12021285818E-01  0.99656199408E-01  0.10536099873E+00  0.51100000000E-03 0. -1.
         11    1    4    4    0    0  0.13130848048E-01  0.58386659733E-02  0.24235804876E-01  0.28180570430E-01  0.51100000000E-03 0.  1.
</event>
<event>
 8    1  0.1030163E+005  0.1043930E+01  0.7957747E-01            NaN
         13   -1    0    0    0    0  0.00000000000E+00  0.00000000000E+00  0.74505805969E-08  0.10566000000E+00  0.10566000000E+00 0.  1.
     999900   -1    0    0    0    0 -0.00000000000E+00 -0.00000000000E+00 -0.74505805969E-08  0.93827000000E+00  0.93827000000E+00 0.  1.
     999902    2    1    2    0    0 -0.24125678792E-01 -0.93306908057E-02 -0.85152696715E-02  0.10166972993E+01  0.10163325137E+01 0.  0.
     999903    2    3    3    0    0  0.52188242833E-01 -0.88729641338E-01 -0.72467509965E-01  0.12753033131E+00  0.20393220986E-01 0.  0.
         14    1    1    2    0    0  0.24125678792E-01  0.93306908057E-02  0.85152696715E-02  0.27232700668E-01  0.00000000000E+00 0.  1.
     999901    1    3    3    0    0 -0.76313921625E-01  0.79398950532E-01  0.63952240293E-01  0.88916696802E+00  0.88000000000E+00 0.  1.
        -11    1    4    4    0    0  0.51048271651E-01 -0.74638141424E-01 -0.58823414004E-01  0.10787600915E+00  0.51100000000E-03 0. -1.
         11    1    4    4    0    0  0.11399711818E-02 -0.14091499914E-01 -0.13644095960E-01  0.19654322163E-01  0.51100000000E-03 0.  1.
</event>
<event>
 8    1  0.1030163E+005  0.1043930E+01  0.7957747E-01            NaN
         13   -1    0    0    0    0  0.00000000000E+00  0.00000000000E+00  0.74505805969E-08  0.10566000000E+00  0.10566000000E+00 0.  1.
     999900   -1    0    0    0    0 -0.00000000000E+00 -0.00000000000E+00 -0.74505805969E-08  0.93827000000E+00  0.93827000000E+00 0.  1.
     999902    2    1    2    0    0  0.39866512678E-02 -0.21120351795E-01 -0.89976209591E-02  0.10206293599E+01  0.10203633521E+01 0.  0.
     999903    2    3    3    0    0 -0.30999697445E-01  0.82749850626E-01 -0.93028050874E-01  0.12985768501E+00  0.20007025945E-01 0.  0.
         14    1    1    2    0    0 -0.39866512678E-02  0.21120351795E-01  0.89976209591E-02  0.23300640146E-01  0.00000000000E+00 0. -1.
     999901    1    3    3    0    0  0.34986348713E-01 -0.10387020242E+00  0.84030429915E-01  0.89077167484E+00  0.88000000000E+00 0. -1.
        -11    1    4    4    0    0 -0.50871906940E-02  0.41876570436E-01 -0.44585844185E-01  0.61381473454E-01  0.51100000000E-03 0. -1.
         11    1    4    4    0    0 -0.25912506751E-01  0.40873280190E-01 -0.48442206689E-01  0.68476211559E-01  0.51100000000E-03 0.  1.
</event>
<event>
 8    1  0.1030163E+005  0.1043930E+01  0.7957747E-01            NaN
         13   -1    0    0    0    0  0.00000000000E+00  0.00000000000E+00  0.74505805969E-08  0.10566000000E+00  0.10566000000E+00 0. -1.
     999900   -1    0    0    0    0 -0.00000000000E+00 -0.00000000000E+00 -0.74505805969E-08  0.93827000000E+00  0.93827000000E+00 0. -1.
     999902    2    1    2    0    0 -0.23811821254E-01  0.40887518679E-02  0.29139169777E-03  0.10197679299E+01  0.10194816453E+01 0.  0.
     999903    2    3    3    0    0 -0.12837087619E+00  0.26425150060E-01 -0.12494808505E-01  0.13320434075E+00  0.20246129146E-01 0.  0.
         14    1    1    2    0    0  0.23811821254E-01 -0.40887518679E-02 -0.29139169777E-03  0.24162070118E-01  0.00000000000E+00 0.  1.
     999901    1    3    3    0    0  0.10455905494E+00 -0.22336398192E-01  0.12786200202E-01  0.88656358913E+00  0.88000000000E+00 0.  1.
        -11    1    4    4    0    0 -0.61484045131E-01  0.12040653664E-01 -0.16106238761E-01  0.64691090533E-01  0.51100000000E-03 0.  1.
         11    1    4    4    0    0 -0.66886831063E-01  0.14384496395E-01  0.36114302568E-02  0.68513250220E-01  0.51100000000E-03 0. -1.
</event>
<event>
 8    1  0.1030163E+005  0.1043930E+01  0.7957747E-01            NaN
         13   -1    0    0    0    0  0.00000000000E+00  0.00000000000E+00  0.74505805969E-08  0.10566000000E+00  0.10566000000E+00 0. -1.
     999900   -1    0    0    0    0 -0.00000000000E+00 -0.00000000000E+00 -0.74505805969E-08  0.93827000000E+00  0.93827000000E+00 0. -1.
     999902    2    1    2    0    0 -0.16724268746E-01  0.12495427914E-01  0.11378286154E-01  0.10201539137E+01  0.10198768089E+01 0.  0.
     999903    2    3    3    0    0  0.59979206512E-01 -0.55054238603E-01  0.99265879439E-01  0.12988956554E+00  0.19725871645E-01 0.  0.
         14    1    1    2    0    0  0.16724268746E-01 -0.12495427914E-01 -0.11378286154E-01  0.23776086298E-01  0.00000000000E+00 0.  1.
     999901    1    3    3    0    0 -0.76703475258E-01  0.67549666517E-01 -0.87887593285E-01  0.89026434817E+00  0.88000000000E+00 0. -1.
        -11    1    4    4    0    0  0.27408764775E-01 -0.34414164508E-01  0.63781245861E-01  0.77484731075E-01  0.51100000000E-03 0.  1.
         11    1    4    4    0    0  0.32570441737E-01 -0.20640074095E-01  0.35484633579E-01  0.52404834460E-01  0.51100000000E-03 0. -1.
</event>
<event>
 8    1  0.1030163E+005  0.1043930E+01  0.7957747E-01            NaN
         13   -1    0    0    0    0  0.00000000000E+00  0.00000000000E+00  0.74505805969E-08  0.10566000000E+00  0.10566000000E+00 0.  1.
     999900   -1    0    0    0    0 -0.00000000000E+00 -0.00000000000E+00 -0.74505805969E-08  0.93827000000E+00  0.93827000000E+00 0.  1.
     999902    2    1    2    0    0  0.18821555155E-01 -0.47476415072E-02  0.17790270814E-01  0.10175996986E+01  0.10172589944E+01 0.  0.
     999903    2    3    3    0    0 -0.32070117090E-01  0.20807515093E-01  0.12241797873E+00  0.12957380615E+00  0.18486877216E-01 0.  0.
         14    1    1    2    0    0 -0.18821555155E-01  0.47476415072E-02 -0.17790270814E-01  0.26330301441E-01  0.00000000000E+00 0. -1.
     999901    1    3    3    0    0  0.50891672246E-01 -0.25555156601E-01 -0.10462770791E+00  0.88802589241E+00  0.88000000000E+00 0.  1.
        -11    1    4    4    0    0 -0.57985178936E-02  0.10030711762E-01  0.58376352349E-01  0.59517204427E-01  0.51100000000E-03 0.  1.
         11    1    4    4    0    0 -0.26271599197E-01  0.10776803331E-01  0.64041626377E-01  0.70056601719E-01  0.51100000000E-03 0. -1.
</event>
<event>
 8    1  0.1030163E+005  0.1043930E+01  0.7957747E-01            NaN
         13   -1    0    0    0    0  0.00000000000E+00  0.00000000000E+00  0.74505805969E-08  0.10566000000E+00  0.10566000000E+00 0.  1.
     999900   -1    0    0    0    0 -0.00000000000E+00 -0.00000000000E+00 -0.74505805969E-08  0.93827000000E+00  0.93827000000E+00 0. -1.
     999902    2    1    2    0    0  0.40131396150E-03  0.23300383090E-01  0.37645751729E-02  0.10203240488E+01  0.10200509417E+01 0.  0.
     999903    2    3    3    0    0  0.46264400035E-01  0.12058954102E+00  0.27532190489E-01  0.13345680821E+00  0.19247494147E-01 0.  0.
         14    1    1    2    0    0 -0.40131396150E-03 -0.23300383090E-01 -0.37645751729E-02  0.23605951183E-01  0.00000000000E+00 0. -1.
     999901    1    3    3    0    0 -0.45863086074E-01 -0.97289157934E-01 -0.23767615316E-01  0.88686724060E+00  0.88000000000E+00 0. -1.
        -11    1    4    4    0    0  0.34763719860E-01  0.79813071471E-01  0.26769126052E-01  0.91079579636E-01  0.51100000000E-03 0. -1.
         11    1    4    4    0    0  0.11500680175E-01  0.40776469553E-01  0.76306443659E-03  0.42377228579E-01  0.51100000000E-03 0.  1.
</event>
<event>
 8    1  0.1030163E+005  0.1043930E+01  0.7957747E-01            NaN
         13   -1    0    0    0    0  0.00000000000E+00  0.00000000000E+00  0.74505805969E-08  0.10566000000E+00  0.10566000000E+00 0. -1.
     999900   -1    0    0    0    0 -0.00000000000E+00 -0.00000000000E+00 -0.74505805969E-08  0.93827000000E+00  0.93827000000E+00 0.  1.
     999902    2    1    2    0    0 -0.18581132877E-01  0.75616201639E-04 -0.26519448126E-02  0.10251604228E+01  0.10249885831E+01 0.  0.
     999903    2    3    3    0    0  0.37834526525E-01 -0.81733060370E-01 -0.97880598291E-01  0.13446188647E+00  0.19688647395E-01 0.  0.
         14    1    1    2    0    0  0.18581132877E-01 -0.75616201639E-04  0.26519448126E-02  0.18769577195E-01  0.00000000000E+00 0. -1.
     999901    1    3    3    0    0 -0.56415659401E-01  0.81808676572E-01  0.95228653478E-01  0.89069853634E+00  0.88000000000E+00 0. -1.
        -11    1    4    4    0    0  0.14126244642E-01 -0.19315590847E-01 -0.15920873228E-01  0.28746793957E-01  0.51100000000E-03 0.  1.
         11    1    4    4    0    0  0.23708281882E-01 -0.62417469523E-01 -0.81959725062E-01  0.10571509251E+00  0.51100000000E-03 0. -1.
</event>
<event>
 8    1  0.1030163E+005  0.1043930E+01  0.7957747E-01            NaN
         13   -1    0    0    0    0  0.00000000000E+00  0.00000000000E+00  0.74505805969E-08  0.10566000000E+00  0.10566000000E+00 0.  1.
     999900   -1    0    0    0    0 -0.00000000000E+00 -0.00000000000E+00 -0.74505805969E-08  0.93827000000E+00  0.93827000000E+00 0.  1.
     999902    2    1    2    0    0 -0.19800681482E-01  0.66050375968E-02  0.71408857797E-02  0.10218690445E+01  0.10216308816E+01 0.  0.
     999903    2    3    3    0    0 -0.71941019768E-01 -0.68721904974E-01 -0.85926995759E-01  0.13223181857E+00  0.14268661210E-01 0.  0.
         14    1    1    2    0    0  0.19800681482E-01 -0.66050375968E-02 -0.71408857797E-02  0.22060955522E-01  0.00000000000E+00 0. -1.
     999901    1    3    3    0    0  0.52140338286E-01  0.75326942571E-01  0.93067881539E-01  0.88963722591E+00  0.88000000000E+00 0. -1.
        -11    1    4    4    0    0 -0.15082413946E-01 -0.89805091703E-02 -0.20227367317E-01  0.26786867398E-01  0.51100000000E-03 0.  1.
         11    1    4    4    0    0 -0.56858605823E-01 -0.59741395804E-01 -0.65699628442E-01  0.10544495117E+00  0.51100000000E-03 0. -1.
</event>
<event>
 8    1  0.1030163E+005  0.1043930E+01  0.7957747E-01            NaN
         13   -1    0    0    0    0  0.00000000000E+00  0.00000000000E+00  0.74505805969E-08  0.10566000000E+00  0.10566000000E+00 0. -1.
     999900   -1    0    0    0    0 -0.00000000000E+00 -0.00000000000E+00 -0.74505805969E-08  0.93827000000E+00  0.93827000000E+00 0.  1.
     999902    2    1    2    0    0 -0.18691925947E-01  0.16725037081E-01 -0.91833414851E-02  0.10172195391E+01  0.10168687929E+01 0.  0.
     999903    2    3    3    0    0  0.11798387998E+00  0.12670716916E-01 -0.37753044266E-01  0.12620161483E+00  0.20513708417E-01 0.  0.
         14    1    1    2    0    0  0.18691925947E-01 -0.16725037081E-01  0.91833414851E-02  0.26710460905E-01  0.00000000000E+00 0. -1.
     999901    1    3    3    0    0 -0.13667580593E+00  0.40543201650E-02  0.28569702780E-01  0.89101792426E+00  0.88000000000E+00 0. -1.
        -11    1    4    4    0    0  0.61333153427E-01  0.10838875283E-01 -0.99782395068E-02  0.63079816989E-01  0.51100000000E-03 0.  1.
         11    1    4    4    0    0  0.56650726552E-01  0.18318416328E-02 -0.27774804759E-01  0.63121797844E-01  0.51100000000E-03 0. -1.
</event>
<event>
 8    1  0.1030163E+005  0.1043930E+01  0.7957747E-01            NaN
         13   -1    0    0    0    0  0.00000000000E+00  0.00000000000E+00  0.74505805969E-08  0.10566000000E+00  0.10566000000E+00 0.  1.
     999900   -1    0    0    0    0 -0.00000000000E+00 -0.00000000000E+00 -0.74505805969E-08  0.93827000000E+00  0.93827000000E+00 0.  1.
     999902    2    1    2    0    0  0.15176303576E-01 -0.15536470072E-01  0.49244907108E-02  0.10216600045E+01  0.10214172566E+01 0.  0.
     999903    2    3    3    0    0  0.74653287448E-01  0.95620357846E-01  0.47057017853E-01  0.13167770023E+00  0.20206128943E-01 0.  0.
         14    1    1    2    0    0 -0.15176303576E-01  0.15536470072E-01 -0.49244907108E-02  0.22269995539E-01  0.00000000000E+00 0.  1.
     999901    1    3    3    0    0 -0.59476983872E-01 -0.11115682792E+00 -0.42132527142E-01  0.88998230423E+00  0.88000000000E+00 0.  1.
        -11    1    4    4    0    0  0.89402944527E-02  0.31169952042E-02  0.28503283923E-02  0.99010109054E-02  0.51100000000E-03 0.  1.
         11    1    4    4    0    0  0.65712992995E-01  0.92503362642E-01  0.44206689461E-01  0.12177668932E+00  0.51100000000E-03 0. -1.
</event>
<event>
 8    1  0.1030163E+005  0.1043930E+01  0.7957747E-01            NaN
         13   -1    0    0    0    0  0.00000000000E+00  0.00000000000E+00  0.74505805969E-08  0.10566000000E+00  0.10566000000E+00 0.  1.
     999900   -1    0    0    0    0 -0.00000000000E+00 -0.00000000000E+00 -0.74505805969E-08  0.93827000000E+00  0.93827000000E+00 0. -1.
     999902    2    1    2    0    0  0.13744379982E-01 -0.16157388888E-01  0.11135066341E-01  0.10199725607E+01  0.10196911619E+01 0.  0.
     999903    2    3    3    0    0  0.48650523824E-01  0.16686642893E-01 -0.11731746537E+00  0.12935635702E+00  0.18010050046E-01 0.  0.
         14    1    1    2    0    0 -0.13744379982E-01  0.16157388888E-01 -0.11135066341E-01  0.23957439329E-01  0.00000000000E+00 0. -1.
     999901    1    3    3    0    0 -0.34906143842E-01 -0.32844031781E-01  0.12845253171E+00  0.89061620365E+00  0.88000000000E+00 0.  1.
        -11    1    4    4    0    0  0.36920062537E-01  0.17967154597E-01 -0.76000250069E-01  0.86384077199E-01  0.51100000000E-03 0.  1.
         11    1    4    4    0    0  0.11730461287E-01 -0.12805117040E-02 -0.41317215297E-01  0.42972279822E-01  0.51100000000E-03 0. -1.
</event>
<event>
 8    1  0.1030163E+005  0.1043930E+01  0.7957747E-01            NaN
         13   -1    0    0    0    0  0.00000000000E+00  0.00000000000E+00  0.74505805969E-08  0.10566000000E+00  0.10566000000E+00 0. -1.
     999900   -1    0    0    0    0 -0.00000000000E+00 -0.00000000000E+00 -0.74505805969E-08  0.93827000000E+00  0.93827000000E+00 0.  1.
     999902    2    1    2    0    0  0.47366619318E-03 -0.13829370710E-01  0.19329506574E-01  0.10201580485E+01  0.10198810412E+01 0.  0.
     999903    2    3    3    0    0 -0.92748910225E-01  0.86968024780E-01  0.84084262810E-02  0.12944494447E+00  0.22792418342E-01 0.  0.
         14    1    1    2    0    0 -0.47366619318E-03  0.13829370710E-01 -0.19329506574E-01  0.23771951504E-01  0.00000000000E+00 0.  1.
     999901    1    3    3    0    0  0.93222576418E-01 -0.10079739549E+00  0.10921080293E-01  0.89071310403E+00  0.88000000000E+00 0.  1.
        -11    1    4    4    0    0 -0.15127934650E-01  0.69309861019E-02 -0.43912078780E-02  0.17217340176E-01  0.51100000000E-03 0. -1.
         11    1    4    4    0    0 -0.77620975575E-01  0.80037038678E-01  0.12799634159E-01  0.11222760429E+00  0.51100000000E-03 0.  1.
</event>
<event>
 8    1  0.1030163E+005  0.1043930E+01  0.7957747E-01            NaN
         13   -1    0    0    0    0  0.00000000000E+00  0.00000000000E+00  0.74505805969E-08  0.10566000000E+00  0.10566000000E+00 0. -1.
     999900   -1    0    0    0    0 -0.00000000000E+00 -0.00000000000E+00 -0.74505805969E-08  0.93827000000E+00  0.93827000000E+00 0.  1.
     999902    2    1    2    0    0 -0.19384898971E-01  0.13511727597E-01 -0.54499140877E-02  0.10196804092E+01  0.10193920219E+01 0.  0.
     999903    2    3    3    0    0 -0.55813499564E-01  0.11814738741E+00  0.10659080748E-01  0.13258674787E+00  0.19790851994E-01 0.  0.
         14    1    1    2    0    0  0.19384898971E-01 -0.13511727597E-01  0.54499140877E-02  0.24249590808E-01  0.00000000000E+00 0. -1.
     999901    1    3    3    0    0  0.36428600593E-01 -0.10463565981E+00 -0.16108994835E-01  0.88709366132E+00  0.88000000000E+00 0. -1.
        -11    1    4    4    0    0 -0.12659723354E-01  0.36651707326E-01 -0.48233587602E-02  0.39078666252E-01  0.51100000000E-03 0.  1.
         11    1    4    4    0    0 -0.43153776209E-01  0.81495680084E-01  0.15482439508E-01  0.93508081616E-01  0.51100000000E-03 0. -1.
</event>
<event>
 8    1  0.1030163E+005  0.1043930E+01  0.7957747E-01            NaN
         13   -1    0    0    0    0  0.00000000000E+00  0.00000000000E+00  0.74505805969E-08  0.10566000000E+00  0.10566000000E+00 0. -1.
     999900   -1    0    0    0    0 -0.00000000000E+00 -0.00000000000E+00 -0.74505805969E-08  0.93827000000E+00  0.93827000000E+00 0. -1.
     999902    2    1    2    0    0 -0.16166664420E-01  0.15875151004E-01 -0.68377098233E-02  0.10202628131E+01  0.10199882706E+01 0.  0.
     999903    2    3    3    0    0 -0.39203448694E-01  0.12429742058E+00  0.17763671626E-01  0.13296843700E+00  0.19449885813E-01 0.  0.
         14    1    1    2    0    0  0.16166664420E-01 -0.15875151004E-01  0.68377098233E-02  0.23667186852E-01  0.00000000000E+00 0. -1.
     999901    1    3    3    0    0  0.23036784274E-01 -0.10842226957E+00 -0.24601381450E-01  0.88729437614E+00  0.88000000000E+00 0. -1.
        -11    1    4    4    0    0 -0.30785579952E-01  0.11486767074E+00  0.13851641211E-01  0.11972661692E+00  0.51100000000E-03 0. -1.
         11    1    4    4    0    0 -0.84178687421E-02  0.94297498383E-02  0.39120304152E-02  0.13241820084E-01  0.51100000000E-03 0.  1.
</event>
<event>
 8    1  0.1030163E+005  0.1043930E+01  0.7957747E-01            NaN
         13   -1    0    0    0    0  0.00000000000E+00  0.00000000000E+00  0.74505805969E-08  0.10566000000E+00  0.10566000000E+00 0. -1.
     999900   -1    0    0    0    0 -0.00000000000E+00 -0.00000000000E+00 -0.74505805969E-08  0.93827000000E+00  0.93827000000E+00 0. -1.
     999902    2    1    2    0    0  0.11385714768E-01 -0.18043573230E-01 -0.90125662989E-02  0.10207690115E+01  0.10205062192E+01 0.  0.
     999903    2    3    3    0    0 -0.35103847995E-01 -0.12217576476E+00  0.31561463356E-01  0.13248355930E+00  0.19914062260E-01 0.  0.
         14    1    1    2    0    0 -0.11385714768E-01  0.18043573230E-01  0.90125662989E-02  0.23160988472E-01  0.00000000000E+00 0. -1.
     999901    1    3    3    0    0  0.46489562763E-01  0.10413219153E+00 -0.40574029654E-01  0.88828545223E+00  0.88000000000E+00 0. -1.
        -11    1    4    4    0    0 -0.33931096771E-01 -0.92303696397E-01  0.19588271664E-01  0.10027588546E+00  0.51100000000E-03 0.  1.
         11    1    4    4    0    0 -0.11727512233E-02 -0.29872068368E-01  0.11973191692E-01  0.32207673841E-01  0.51100000000E-03 0. -1.
</event>
<event>
 8    1  0.1030163E+005  0.1043930E+01  0.7957747E-01            NaN
         13   -1    0    0    0    0  0.00000000000E+00  0.00000000000E+00  0.74505805969E-08  0.10566000000E+00  0.10566000000E+00 0.  1.
     999900   -1    0    0    0    0 -0.00000000000E+00 -0.00000000000E+00 -0.74505805969E-08  0.93827000000E+00  0.93827000000E+00 0.  1.
     999902    2    1    2    0    0 -0.18171947909E-01  0.14897798890E-01  0.65876361234E-02  0.10195258804E+01  0.10192337611E+01 0.  0.
     999903    2    3    3    0    0  0.97632137509E-02  0.84284394247E-01  0.98482874190E-01  0.13158466185E+00  0.20407529690E-01 0.  0.
         14    1    1    2    0    0  0.18171947909E-01 -0.14897798890E-01 -0.65876361234E-02  0.24404119576E-01  0.00000000000E+00 0.  1.
     999901    1    3    3    0    0 -0.27935161660E-01 -0.69386595357E-01 -0.91895238066E-01  0.88794121858E+00  0.88000000000E+00 0.  1.
        -11    1    4    4    0    0  0.43822388658E-02  0.50945258915E-01  0.73658089055E-01  0.89668269904E-01  0.51100000000E-03 0. -1.
         11    1    4    4    0    0  0.53809748851E-02  0.33339135332E-01  0.24824785135E-01  0.41916391941E-01  0.51100000000E-03 0.  1.
</event>
<event>
 8    1  0.1030163E+005  0.1043930E+01  0.7957747E-01            NaN
         13   -1    0    0    0    0  0.00000000000E+00  0.00000000000E+00  0.74505805969E-08  0.10566000000E+00  0.10566000000E+00 0. -1.
     999900   -1    0    0    0    0 -0.00000000000E+00 -0.00000000000E+00 -0.74505805969E-08  0.93827000000E+00  0.93827000000E+00 0.  1.
     999902    2    1    2    0    0 -0.13545495738E-01 -0.36510302171E-02  0.18943453403E-01  0.10203574545E+01  0.10200851288E+01 0.  0.
     999903    2    3    3    0    0 -0.10166034691E+00 -0.19778730311E-01  0.82424627618E-01  0.13353493040E+00  0.17655993098E-01 0.  0.
         14    1    1    2    0    0  0.13545495738E-01  0.36510302171E-02 -0.18943453403E-01  0.23572545541E-01  0.00000000000E+00 0.  1.
     999901    1    3    3    0    0  0.88114851168E-01  0.16127700094E-01 -0.63481174214E-01  0.88682252406E+00  0.88000000000E+00 0.  1.
        -11    1    4    4    0    0 -0.40376069430E-01 -0.11637822585E-03  0.36886364536E-01  0.54691000504E-01  0.51100000000E-03 0.  1.
         11    1    4    4    0    0 -0.61284277476E-01 -0.19662352086E-01  0.45538263082E-01  0.78843929892E-01  0.51100000000E-03 0. -1.
</event>
<event>
 8    1  0.1030163E+005  0.1043930E+01  0.7957747E-01            NaN
         13   -1    0    0    0    0  0.00000000000E+00  0.00000000000E+00  0.74505805969E-08  0.10566000000E+00  0.10566000000E+00 0. -1.
     999900   -1    0    0    0    0 -0.00000000000E+00 -0.00000000000E+00 -0.74505805969E-08  0.93827000000E+00  0.93827000000E+00 0. -1.
     999902    2    1    2    0    0 -0.19833464384E-01  0.11852172629E-01  0.61279532591E-02  0.10200261903E+01  0.10197460649E+01 0.  0.
     999903    2    3    3    0    0 -0.52434423451E-01 -0.70007073737E-01  0.95600809206E-01  0.13111159899E+00  0.20009436107E-01 0.  0.
         14    1    1    2    0    0  0.19833464384E-01 -0.11852172629E-01 -0.61279532591E-02  0.23903809668E-01  0.00000000000E+00 0.  1.
     999901    1    3    3    0    0  0.32600959066E-01  0.81859246366E-01 -0.89472855947E-01  0.88891459134E+00  0.88000000000E+00 0. -1.
        -11    1    4    4    0    0 -0.27646467521E-01 -0.27933101823E-01  0.55013238827E-01  0.67611411101E-01  0.51100000000E-03 0.  1.
         11    1    4    4    0    0 -0.24787955930E-01 -0.42073971914E-01  0.40587570379E-01  0.63500187890E-01  0.51100000000E-03 0. -1.
</event>
<event>
 8    1  0.1030163E+005  0.1043930E+01  0.7957747E-01            NaN
         13   -1    0    0    0    0  0.00000000000E+00  0.00000000000E+00  0.74505805969E-08  0.10566000000E+00  0.10566000000E+00 0.  1.
     999900   -1    0    0    0    0 -0.00000000000E+00 -0.00000000000E+00 -0.74505805969E-08  0.93827000000E+00  0.93827000000E+00 0. -1.
     999902    2    1    2    0    0  0.46120187522E-03 -0.21741444931E-01  0.90522530113E-02  0.10203748218E+01  0.10201029020E+01 0.  0.
     999903    2    3    3    0    0  0.11651088064E+00 -0.29392605701E-01  0.47473181382E-01  0.13189171227E+00  0.26514340251E-01 0.  0.
         14    1    1    2    0    0 -0.46120187522E-03  0.21741444931E-01 -0.90522530113E-02  0.23555178187E-01  0.00000000000E+00 0.  1.
     999901    1    3    3    0    0 -0.11604967876E+00  0.76511607700E-02 -0.38420928371E-01  0.88848310954E+00  0.88000000000E+00 0.  1.
        -11    1    4    4    0    0  0.64615616066E-01 -0.28322971976E-01  0.33694367200E-01  0.78185293267E-01  0.51100000000E-03 0. -1.
         11    1    4    4    0    0  0.51895264571E-01 -0.10696337250E-02  0.13778814182E-01  0.53706419006E-01  0.51100000000E-03 0.  1.
</event>
<event>
 8    1  0.1030163E+005  0.1043930E+01  0.7957747E-01            NaN
         13   -1    0    0    0    0  0.00000000000E+00  0.00000000000E+00  0.74505805969E-08  0.10566000000E+00  0.10566000000E+00 0. -1.
     999900   -1    0    0    0    0 -0.00000000000E+00 -0.00000000000E+00 -0.74505805969E-08  0.93827000000E+00  0.93827000000E+00 0. -1.
     999902    2    1    2    0    0 -0.89514826589E-02  0.21405835443E-01  0.33355576124E-02  0.10204893350E+01  0.10202200831E+01 0.  0.
     999903    2    3    3    0    0 -0.11507207566E+00 -0.45746762348E-03  0.61224272967E-01  0.13195645001E+00  0.20549968977E-01 0.  0.
         14    1    1    2    0    0  0.89514826589E-02 -0.21405835443E-01 -0.33355576124E-02  0.23440665037E-01  0.00000000000E+00 0. -1.
     999901    1    3    3    0    0  0.10612059300E+00  0.21863303067E-01 -0.57888715355E-01  0.88853288495E+00  0.88000000000E+00 0. -1.
        -11    1    4    4    0    0 -0.52736799589E-01  0.90609270786E-02  0.32993537740E-01  0.62865770368E-01  0.51100000000E-03 0. -1.
         11    1    4    4    0    0 -0.62335276072E-01 -0.95183947021E-02  0.28230735228E-01  0.69090679640E-01  0.51100000000E-03 0.  1.
</event>
<event>
 8    1  0.1030163E+005  0.1043930E+01  0.7957747E-01            NaN
         13   -1    0    0    0    0  0.00000000000E+00  0.00000000000E+00  0.74505805969E-08  0.10566000000E+00  0.10566000000E+00 0. -1.
     999900   -1    0    0    0    0 -0.00000000000E+00 -0.00000000000E+00 -0.74505805969E-08  0.93827000000E+00  0.93827000000E+00 0.  1.
     999902    2    1    2    0    0  0.19347918723E-01  0.89793248202E-04  0.13453673990E-01  0.10203641059E+01  0.10200919357E+01 0.  0.
     999903    2    3    3    0    0  0.10032749246E+00  0.13549184114E-01  0.84963876768E-01  0.13365527224E+00  0.19891840240E-01 0.  0.
         14    1    1    2    0    0 -0.19347918723E-01 -0.89793248202E-04 -0.13453673990E-01  0.23565894118E-01  0.00000000000E+00 0.  1.
     999901    1    3    3    0    0 -0.80979573735E-01 -0.13459390866E-01 -0.71510202778E-01  0.88670883365E+00  0.88000000000E+00 0.  1.
        -11    1    4    4    0    0  0.21706347910E-01 -0.52404110776E-02  0.18114433909E-01  0.28757977758E-01  0.51100000000E-03 0.  1.
         11    1    4    4    0    0  0.78621144547E-01  0.18789595192E-01  0.66849442859E-01  0.10489729448E+00  0.51100000000E-03 0. -1.
</event>
<event>
 8    1  0.1030163E+005  0.1043930E+01  0.7957747E-01            NaN
         13   -1    0    0    0    0  0.00000000000E+00  0.00000000000E+00  0.74505805969E-08  0.10566000000E+00  0.10566000000E+00 0.  1.
     999900   -1    0    0    0    0 -0.00000000000E+00 -0.00000000000E+00 -0.74505805969E-08  0.93827000000E+00  0.93827000000E+00 0. -1.
     999902    2    1    2    0    0  0.64848483421E-02 -0.18182160996E-01 -0.15382781243E-01  0.10192465198E+01  0.10189475913E+01 0.  0.
     999903    2    3    3    0    0  0.22598639244E-01 -0.11410840643E+00  0.56561314132E-01  0.13096871883E+00  0.20547412053E-01 0.  0.
         14    1    1    2    0    0 -0.64848483421E-02  0.18182160996E-01  0.15382781243E-01  0.24683480210E-01  0.00000000000E+00 0.  1.
     999901    1    3    3    0    0 -0.16113790902E-01  0.95926245433E-01 -0.71944095375E-01  0.88827780096E+00  0.88000000000E+00 0. -1.
        -11    1    4    4    0    0  0.20082712148E-01 -0.11359483536E+00  0.54253601561E-01  0.12747868979E+00  0.51100000000E-03 0.  1.
         11    1    4    4    0    0  0.25159270958E-02 -0.51357107271E-03  0.23077125703E-02  0.34900290407E-02  0.51100000000E-03 0. -1.
</event>
<event>
 8    1  0.1030163E+005  0.1043930E+01  0.7957747E-01            NaN
         13   -1    0    0    0    0  0.00000000000E+00  0.00000000000E+00  0.74505805969E-08  0.10566000000E+00  0.10566000000E+00 0. -1.
     999900   -1    0    0    0    0 -0.00000000000E+00 -0.00000000000E+00 -0.74505805969E-08  0.93827000000E+00  0.93827000000E+00 0.  1.
     999902    2    1    2    0    0 -0.72055336309E-02  0.15664142883E-01 -0.16401291925E-01  0.10201332048E+01  0.10198556113E+01 0.  0.
     999903    2    3    3    0    0  0.10622708460E+00 -0.55753973238E-01 -0.44528086950E-01  0.12953867143E+00  0.20120085328E-01 0.  0.
         14    1    1    2    0    0  0.72055336309E-02 -0.15664142883E-01  0.16401291925E-01  0.23796795246E-01  0.00000000000E+00 0. -1.
     999901    1    3    3    0    0 -0.11343261823E+00  0.71418116121E-01  0.28126795025E-01  0.89059453332E+00  0.88000000000E+00 0. -1.
        -11    1    4    4    0    0  0.11054781821E-01 -0.16182371358E-02  0.38809583508E-03  0.11191006743E-01  0.51100000000E-03 0. -1.
         11    1    4    4    0    0  0.95172302779E-01 -0.54135736102E-01 -0.44916182785E-01  0.11834766469E+00  0.51100000000E-03 0.  1.
</event>
<event>
 8    1  0.1030163E+005  0.1043930E+01  0.7957747E-01            NaN
         13   -1    0    0    0    0  0.00000000000E+00  0.00000000000E+00  0.74505805969E-08  0.10566000000E+00  0.10566000000E+00 0.  1.
     999900   -1    0    0    0    0 -0.00000000000E+00 -0.00000000000E+00 -0.74505805969E-08  0.93827000000E+00  0.93827000000E+00 0. -1.
     999902    2    1    2    0    0 -0.11369842048E-01  0.11651898365E-01  0.16310727943E-01  0.10208848294E+01  0.10206246886E+01 0.  0.
     999903    2    3    3    0    0 -0.11923395236E+00  0.55275752973E-01  0.62994933477E-02  0.13316982340E+00  0.20551739263E-01 0.  0.
         14    1    1    2    0    0  0.11369842048E-01 -0.11651898365E-01 -0.16310727943E-01  0.23045170638E-01  0.00000000000E+00 0. -1.
     999901    1    3    3    0    0  0.10786411031E+00 -0.43623854608E-01  0.10011234596E-01  0.88771500596E+00  0.88000000000E+00 0. -1.
        -11    1    4    4    0    0 -0.45114279283E-01  0.28681936738E-01 -0.46514293309E-02  0.53664220912E-01  0.51100000000E-03 0.  1.
         11    1    4    4    0    0 -0.74119673078E-01  0.26593816234E-01  0.10950922679E-01  0.79505602492E-01  0.51100000000E-03 0. -1.
</event>
<event>
 8    1  0.1030163E+005  0.1043930E+01  0.7957747E-01            NaN
         13   -1    0    0    0    0  0.00000000000E+00  0.00000000000E+00  0.74505805969E-08  0.10566000000E+00  0.10566000000E+00 0. -1.
     999900   -1    0    0    0    0 -0.00000000000E+00 -0.00000000000E+00 -0.74505805969E-08  0.93827000000E+00  0.93827000000E+00 0.  1.
     999902    2    1    2    0    0 -0.94772148829E-02  0.32048151027E-02 -0.21255334123E-01  0.10204379232E+01  0.10201674752E+01 0.  0.
     999903    2    3    3    0    0 -0.52750064618E-02  0.26122194777E-02  0.12638697248E+00  0.12812841392E+00  0.20213219860E-01 0.  0.
         14    1    1    2    0    0  0.94772148829E-02 -0.32048151027E-02  0.21255334123E-01  0.23492076759E-01  0.00000000000E+00 0. -1.
     999901    1    3    3    0    0 -0.42022084211E-02  0.59259562493E-03 -0.14764230660E+00  0.89230950932E+00  0.88000000000E+00 0.  1.
        -11    1    4    4    0    0 -0.12404591155E-01  0.38178832385E-02  0.96741325282E-01  0.97609401455E-01  0.51100000000E-03 0.  1.
         11    1    4    4    0    0  0.71295846936E-02 -0.12056637607E-02  0.29645647199E-01  0.30519012465E-01  0.51100000000E-03 0. -1.
</event>
<event>
 8    1  0.1030163E+005  0.1043930E+01  0.7957747E-01            NaN
         13   -1    0    0    0    0  0.00000000000E+00  0.00000000000E+00  0.74505805969E-08  0.10566000000E+00  0.10566000000E+00 0. -1.
     999900   -1    0    0    0    0 -0.00000000000E+00 -0.00000000000E+00 -0.74505805969E-08  0.93827000000E+00  0.93827000000E+00 0.  1.
     999902    2    1    2    0    0  0.19011968399E-01  0.20671469472E-02  0.13985407268E-01  0.10202378145E+01  0.10199626848E+01 0.  0.
     999903    2    3    3    0    0 -0.41445164372E-01  0.80816523050E-01  0.92316129078E-01  0.13119775287E+00  0.21013581870E-01 0.  0.
         14    1    1    2    0    0 -0.19011968399E-01 -0.20671469472E-02 -0.13985407268E-01  0.23692185534E-01  0.00000000000E+00 0.  1.
     999901    1    3    3    0    0  0.60457132772E-01 -0.78749376103E-01 -0.78330721810E-01  0.88904006159E+00  0.88000000000E+00 0. -1.
        -11    1    4    4    0    0 -0.36814597803E-01  0.51934690840E-01  0.68078734423E-01  0.93206769742E-01  0.51100000000E-03 0. -1.
         11    1    4    4    0    0 -0.46305665697E-02  0.28881832210E-01  0.24237394655E-01  0.37990983131E-01  0.51100000000E-03 0.  1.
</event>
<event>
 8    1  0.1030163E+005  0.1043930E+01  0.7957747E-01            NaN
         13   -1    0    0    0    0  0.00000000000E+00  0.00000000000E+00  0.74505805969E-08  0.10566000000E+00  0.10566000000E+00 0. -1.
     999900   -1    0    0    0    0 -0.00000000000E+00 -0.00000000000E+00 -0.74505805969E-08  0.93827000000E+00  0.93827000000E+00 0. -1.
     999902    2    1    2    0    0  0.62213897331E-02  0.22146712047E-01 -0.26583515198E-02  0.10207729411E+01  0.10205102390E+01 0.  0.
     999903    2    3    3    0    0 -0.11181186779E+00  0.21180223497E-01  0.60900790086E-01  0.13061983714E+00  0.20053428012E-01 0.  0.
         14    1    1    2    0    0 -0.62213897331E-02 -0.22146712047E-01  0.26583515198E-02  0.23157058913E-01  0.00000000000E+00 0. -1.
     999901    1    3    3    0    0  0.11803325753E+00  0.96648854991E-03 -0.63559141606E-01  0.89015310395E+00  0.88000000000E+00 0. -1.
        -11    1    4    4    0    0 -0.42376056636E-01  0.25254077604E-02  0.31847084298E-01  0.53071703945E-01  0.51100000000E-03 0.  1.
         11    1    4    4    0    0 -0.69435811157E-01  0.18654815736E-01  0.29053705788E-01  0.77548133196E-01  0.51100000000E-03 0. -1.
</event>
<event>
 8    1  0.1030163E+005  0.1043930E+01  0.7957747E-01            NaN
         13   -1    0    0    0    0  0.00000000000E+00  0.00000000000E+00  0.74505805969E-08  0.10566000000E+00  0.10566000000E+00 0.  1.
     999900   -1    0    0    0    0 -0.00000000000E+00 -0.00000000000E+00 -0.74505805969E-08  0.93827000000E+00  0.93827000000E+00 0. -1.
     999902    2    1    2    0    0  0.18847490245E-01  0.59745839195E-02  0.13720923038E-01  0.10198636901E+01  0.10195796973E+01 0.  0.
     999903    2    3    3    0    0  0.39620803199E-01 -0.65508168062E-01  0.10556291932E+00  0.13195813961E+00  0.20206250165E-01 0.  0.
         14    1    1    2    0    0 -0.18847490245E-01 -0.59745839195E-02 -0.13720923038E-01  0.24066309866E-01  0.00000000000E+00 0. -1.
     999901    1    3    3    0    0 -0.20773312953E-01  0.71482751982E-01 -0.91841996283E-01  0.88790555052E+00  0.88000000000E+00 0. -1.
        -11    1    4    4    0    0  0.90032597560E-02 -0.97304182161E-02  0.80402855377E-02  0.15512802372E-01  0.51100000000E-03 0.  1.
         11    1    4    4    0    0  0.30617543443E-01 -0.55777749846E-01  0.97522633784E-01  0.11644533724E+00  0.51100000000E-03 0. -1.
</event>
<event>
 8    1  0.1030163E+005  0.1043930E+01  0.7957747E-01            NaN
         13   -1    0    0    0    0  0.00000000000E+00  0.00000000000E+00  0.74505805969E-08  0.10566000000E+00  0.10566000000E+00 0.  1.
     999900   -1    0    0    0    0 -0.00000000000E+00 -0.00000000000E+00 -0.74505805969E-08  0.93827000000E+00  0.93827000000E+00 0. -1.
     999902    2    1    2    0    0  0.17138582976E-01 -0.10304181900E-01  0.82905025097E-02  0.10222819141E+01  0.10220526759E+01 0.  0.
     999903    2    3    3    0    0  0.15175590771E-01 -0.75579937682E-01 -0.10594503197E+00  0.13249849384E+00  0.19719927387E-01 0.  0.
         14    1    1    2    0    0 -0.17138582976E-01  0.10304181900E-01 -0.82905025097E-02  0.21648085895E-01  0.00000000000E+00 0. -1.
     999901    1    3    3    0    0  0.19629922050E-02  0.65275755782E-01  0.11423553448E+00  0.88978342026E+00  0.88000000000E+00 0.  1.
        -11    1    4    4    0    0 -0.26305813896E-02 -0.29860089884E-01 -0.32986602699E-01  0.44574903309E-01  0.51100000000E-03 0.  1.
         11    1    4    4    0    0  0.17806172161E-01 -0.45719847798E-01 -0.72958429273E-01  0.87923590536E-01  0.51100000000E-03 0. -1.
</event>
<event>
 8    1  0.1030163E+005  0.1043930E+01  0.7957747E-01            NaN
         13   -1    0    0    0    0  0.00000000000E+00  0.00000000000E+00  0.74505805969E-08  0.10566000000E+00  0.10566000000E+00 0.  1.
     999900   -1    0    0    0    0 -0.00000000000E+00 -0.00000000000E+00 -0.74505805969E-08  0.93827000000E+00  0.93827000000E+00 0.  1.
     999902    2    1    2    0    0 -0.21371438680E-01 -0.80869542758E-02 -0.45432343608E-02  0.10206323993E+01  0.10203664618E+01 0.  0.
     999903    2    3    3    0    0  0.11699993647E+00 -0.34664764826E-01 -0.35941393600E-01  0.12887073725E+00  0.20621641293E-01 0.  0.
         14    1    1    2    0    0  0.21371438680E-01  0.80869542758E-02  0.45432343608E-02  0.23297600717E-01  0.00000000000E+00 0.  1.
     999901    1    3    3    0    0 -0.13837137515E+00  0.26577810551E-01  0.31398159239E-01  0.89176166204E+00  0.88000000000E+00 0. -1.
        -11    1    4    4    0    0  0.74820102366E-01 -0.31317677886E-01 -0.28055669659E-01  0.85826723037E-01  0.51100000000E-03 0. -1.
         11    1    4    4    0    0  0.42179834105E-01 -0.33470869403E-02 -0.78857239403E-02  0.43044014209E-01  0.51100000000E-03 0.  1.
</event>
<event>
 8    1  0.1206264E+005  0.1043930E+01  0.7957747E-01            NaN
         13   -1    0    0    0    0  0.00000000000E+00  0.00000000000E+00  0.74505805969E-08  0.10566000000E+00  0.10566000000E+00 0.  1.
     999900   -1    0    0    0    0 -0.00000000000E+00 -0.00000000000E+00 -0.74505805969E-08  0.93827000000E+00  0.93827000000E+00 0.  1.
     999902    2    1    2    0    0 -0.91743911472E-03  0.22708477154E-02 -0.23371508729E-01  0.10204305135E+01  0.10201598929E+01 0.  0.
     999903    2    3    3    0    0  0.47352392172E-01  0.11899634896E+00 -0.21506114490E-01  0.13140953575E+00  0.20089126791E-01 0.  0.
         14    1    1    2    0    0  0.91743911472E-03 -0.22708477154E-02  0.23371508729E-01  0.23499486466E-01  0.00000000000E+00 0.  1.
     999901    1    3    3    0    0 -0.48269831287E-01 -0.11672550124E+00 -0.18653942396E-02  0.88902097779E+00  0.88000000000E+00 0.  1.
        -11    1    4    4    0    0  0.31050695136E-01  0.52263711269E-01 -0.69756117904E-02  0.61192822005E-01  0.51100000000E-03 0.  1.
         11    1    4    4    0    0  0.16301697036E-01  0.66732637687E-01 -0.14530502699E-01  0.70216713741E-01  0.51100000000E-03 0. -1.
</event>
<event>
 8    1  0.1030163E+005  0.1043930E+01  0.7957747E-01            NaN
         13   -1    0    0    0    0  0.00000000000E+00  0.00000000000E+00  0.74505805969E-08  0.10566000000E+00  0.10566000000E+00 0.  1.
     999900   -1    0    0    0    0 -0.00000000000E+00 -0.00000000000E+00 -0.74505805969E-08  0.93827000000E+00  0.93827000000E+00 0.  1.
     999902    2    1    2    0    0  0.13824209741E-01  0.18170773846E-01 -0.81982698396E-02  0.10196710341E+01  0.10193824211E+01 0.  0.
     999903    2    3    3    0    0  0.11508070961E+00 -0.50413706502E-01  0.28891697234E-01  0.13043969450E+00  0.19866358629E-01 0.  0.
         14    1    1    2    0    0 -0.13824209741E-01 -0.18170773846E-01  0.81982698396E-02  0.24258965878E-01  0.00000000000E+00 0.  1.
     999901    1    3    3    0    0 -0.10125649987E+00  0.68584480348E-01 -0.37089967073E-01  0.88923133962E+00  0.88000000000E+00 0.  1.
        -11    1    4    4    0    0  0.30131760656E-01 -0.17598183440E-01  0.16257357854E-01  0.38499115134E-01  0.51100000000E-03 0.  1.
         11    1    4    4    0    0  0.84948948950E-01 -0.32815523062E-01  0.12634339379E-01  0.91940579366E-01  0.51100000000E-03 0. -1.
</event>
<event>
 8    1  0.1030163E+005  0.1043930E+01  0.7957747E-01            NaN
         13   -1    0    0    0    0  0.00000000000E+00  0.00000000000E+00  0.74505805969E-08  0.10566000000E+00  0.10566000000E+00 0. -1.
     999900   -1    0    0    0    0 -0.00000000000E+00 -0.00000000000E+00 -0.74505805969E-08  0.93827000000E+00  0.93827000000E+00 0. -1.
     999902    2    1    2    0    0 -0.17232102679E-01  0.13976307714E-01 -0.66978536814E-02  0.10207536374E+01  0.10204904921E+01 0.  0.
     999903    2    3    3    0    0  0.53009202091E-01 -0.11498967891E+00 -0.82177347974E-02  0.12858303899E+00  0.20819822018E-01 0.  0.
         14    1    1    2    0    0  0.17232102679E-01 -0.13976307714E-01  0.66978536814E-02  0.23176362613E-01  0.00000000000E+00 0. -1.
     999901    1    3    3    0    0 -0.70241304770E-01  0.12896598662E+00  0.15198811160E-02  0.89217059839E+00  0.88000000000E+00 0. -1.
        -11    1    4    4    0    0  0.18889309931E-01 -0.54782124208E-01 -0.12363178465E-01  0.59253662040E-01  0.51100000000E-03 0.  1.
         11    1    4    4    0    0  0.34119892161E-01 -0.60207554702E-01  0.41454436677E-02  0.69329376951E-01  0.51100000000E-03 0. -1.
</event>
<event>
 8    1  0.1030163E+005  0.1043930E+01  0.7957747E-01            NaN
         13   -1    0    0    0    0  0.00000000000E+00  0.00000000000E+00  0.74505805969E-08  0.10566000000E+00  0.10566000000E+00 0. -1.
     999900   -1    0    0    0    0 -0.00000000000E+00 -0.00000000000E+00 -0.74505805969E-08  0.93827000000E+00  0.93827000000E+00 0. -1.
     999902    2    1    2    0    0 -0.19252266902E-01 -0.13333279848E-01 -0.36542548013E-02  0.10202281074E+01  0.10199527496E+01 0.  0.
     999903    2    3    3    0    0 -0.46516156746E-01  0.41280109789E-01  0.11288396451E+00  0.13044886596E+00  0.20157303496E-01 0.  0.
         14    1    1    2    0    0  0.19252266902E-01  0.13333279848E-01  0.36542548013E-02  0.23701892552E-01  0.00000000000E+00 0. -1.
     999901    1    3    3    0    0  0.27263889844E-01 -0.54613389638E-01 -0.11653821931E+00  0.88977924149E+00  0.88000000000E+00 0. -1.
        -11    1    4    4    0    0 -0.18554798654E-01  0.21633156987E-01  0.33284952751E-01  0.43822633820E-01  0.51100000000E-03 0. -1.
         11    1    4    4    0    0 -0.27961358093E-01  0.19646952803E-01  0.79599011762E-01  0.86626232143E-01  0.51100000000E-03 0.  1.
</event>
<event>
 8    1  0.1030163E+005  0.1043930E+01  0.7957747E-01            NaN
         13   -1    0    0    0    0  0.00000000000E+00  0.00000000000E+00  0.74505805969E-08  0.10566000000E+00  0.10566000000E+00 0. -1.
     999900   -1    0    0    0    0 -0.00000000000E+00 -0.00000000000E+00 -0.74505805969E-08  0.93827000000E+00  0.93827000000E+00 0.  1.
     999902    2    1    2    0    0 -0.12902081593E-01  0.11644702864E-01  0.16828555863E-01  0.10197377883E+01  0.10194507805E+01 0.  0.
     999903    2    3    3    0    0 -0.11841028370E+00 -0.32879598593E-01 -0.39103354892E-01  0.13055683216E+00  0.20345780150E-01 0.  0.
         14    1    1    2    0    0  0.12902081593E-01 -0.11644702864E-01 -0.16828555863E-01  0.24192211694E-01  0.00000000000E+00 0.  1.
     999901    1    3    3    0    0  0.10550820211E+00  0.44524301457E-01  0.55931910755E-01  0.88918095615E+00  0.88000000000E+00 0. -1.
        -11    1    4    4    0    0 -0.19647353004E-01 -0.21902605220E-02  0.57535995577E-03  0.19784030967E-01  0.51100000000E-03 0.  1.
         11    1    4    4    0    0 -0.98762930697E-01 -0.30689338071E-01 -0.39678714848E-01  0.11077280119E+00  0.51100000000E-03 0. -1.
</event>
<event>
 8    1  0.1030163E+005  0.1043930E+01  0.7957747E-01            NaN
         13   -1    0    0    0    0  0.00000000000E+00  0.00000000000E+00  0.74505805969E-08  0.10566000000E+00  0.10566000000E+00 0.  1.
     999900   -1    0    0    0    0 -0.00000000000E+00 -0.00000000000E+00 -0.74505805969E-08  0.93827000000E+00  0.93827000000E+00 0. -1.
     999902    2    1    2    0    0  0.11539133518E-01 -0.19618311534E-01  0.20313354720E-02  0.10210792654E+01  0.10208235450E+01 0.  0.
     999903    2    3    3    0    0 -0.78890499049E-02  0.10920475777E+00 -0.64350819134E-01  0.12901456594E+00  0.22711540526E-01 0.  0.
         14    1    1    2    0    0 -0.11539133518E-01  0.19618311534E-01 -0.20313354720E-02  0.22850734640E-01  0.00000000000E+00 0. -1.
     999901    1    3    3    0    0  0.19428183423E-01 -0.12882306931E+00  0.66382154606E-01  0.89206469942E+00  0.88000000000E+00 0.  1.
        -11    1    4    4    0    0 -0.69452077261E-02  0.28803689695E-01 -0.75886072785E-02  0.30589810915E-01  0.51100000000E-03 0. -1.
         11    1    4    4    0    0 -0.94384217884E-03  0.80401068080E-01 -0.56762211856E-01  0.98424755027E-01  0.51100000000E-03 0.  1.
</event>
<event>
 8    1  0.1030163E+005  0.1043930E+01  0.7957747E-01            NaN
         13   -1    0    0    0    0  0.00000000000E+00  0.00000000000E+00  0.74505805969E-08  0.10566000000E+00  0.10566000000E+00 0. -1.
     999900   -1    0    0    0    0 -0.00000000000E+00 -0.00000000000E+00 -0.74505805969E-08  0.93827000000E+00  0.93827000000E+00 0. -1.
     999902    2    1    2    0    0  0.22790410592E-01 -0.11713507006E-03  0.66892816173E-02  0.10201778838E+01  0.10199013440E+01 0.  0.
     999903    2    3    3    0    0  0.65757021862E-01  0.80239067642E-01  0.79931954528E-01  0.13244608977E+00  0.19762475533E-01 0.  0.
         14    1    1    2    0    0 -0.22790410592E-01  0.11713507006E-03 -0.66892816173E-02  0.23752116204E-01  0.00000000000E+00 0.  1.
     999901    1    3    3    0    0 -0.42966611269E-01 -0.80356202712E-01 -0.73242672911E-01  0.88773179403E+00  0.88000000000E+00 0. -1.
        -11    1    4    4    0    0  0.12187468475E-01  0.24501442363E-01  0.28953163041E-01  0.39842211746E-01  0.51100000000E-03 0.  1.
         11    1    4    4    0    0  0.53569553387E-01  0.55737625279E-01  0.50978791488E-01  0.92603878020E-01  0.51100000000E-03 0. -1.
</event>
<event>
 8    1  0.1030163E+005  0.1043930E+01  0.7957747E-01            NaN
         13   -1    0    0    0    0  0.00000000000E+00  0.00000000000E+00  0.74505805969E-08  0.10566000000E+00  0.10566000000E+00 0. -1.
     999900   -1    0    0    0    0 -0.00000000000E+00 -0.00000000000E+00 -0.74505805969E-08  0.93827000000E+00  0.93827000000E+00 0. -1.
     999902    2    1    2    0    0  0.20024064349E-01  0.12115453581E-01 -0.80872564694E-03  0.10205120281E+01  0.10202433034E+01 0.  0.
     999903    2    3    3    0    0 -0.89270110787E-01  0.81779915887E-01  0.42822052931E-01  0.12994928535E+00  0.19899276930E-01 0.  0.
         14    1    1    2    0    0 -0.20024064349E-01 -0.12115453581E-01  0.80872564694E-03  0.23417971853E-01  0.00000000000E+00 0.  1.
     999901    1    3    3    0    0  0.10929417514E+00 -0.69664462306E-01 -0.43630778578E-01  0.89056274280E+00  0.88000000000E+00 0.  1.
        -11    1    4    4    0    0 -0.83315202958E-01  0.67961027954E-01  0.35676794516E-01  0.11328379916E+00  0.51100000000E-03 0. -1.
         11    1    4    4    0    0 -0.59549078286E-02  0.13818887933E-01  0.71452584154E-02  0.16665486184E-01  0.51100000000E-03 0.  1.
</event>
<event>
 8    1  0.1030163E+005  0.1043930E+01  0.7957747E-01            NaN
         13   -1    0    0    0    0  0.00000000000E+00  0.00000000000E+00  0.74505805969E-08  0.10566000000E+00  0.10566000000E+00 0. -1.
     999900   -1    0    0    0    0 -0.00000000000E+00 -0.00000000000E+00 -0.74505805969E-08  0.93827000000E+00  0.93827000000E+00 0.  1.
     999902    2    1    2    0    0 -0.83909211135E-03  0.21999296135E-01  0.83124406479E-02  0.10203976866E+01  0.10201263005E+01 0.  0.
     999903    2    3    3    0    0 -0.92279331519E-02  0.13102070770E+00  0.13886341216E-01  0.13361298372E+00  0.20199464129E-01 0.  0.
         14    1    1    2    0    0  0.83909211135E-03 -0.21999296135E-01 -0.83124406479E-02  0.23532313433E-01  0.00000000000E+00 0. -1.
     999901    1    3    3    0    0  0.83888410406E-02 -0.10902141156E+00 -0.55739005679E-02  0.88678470285E+00  0.88000000000E+00 0.  1.
        -11    1    4    4    0    0  0.12062617446E-02  0.97989341306E-01  0.66656873958E-02  0.98224531490E-01  0.51100000000E-03 0.  1.
         11    1    4    4    0    0 -0.10434194897E-01  0.33031366390E-01  0.72206538201E-02  0.35388452231E-01  0.51100000000E-03 0. -1.
</event>
<event>
 8    1  0.1030163E+005  0.1043930E+01  0.7957747E-01            NaN
         13   -1    0    0    0    0  0.00000000000E+00  0.00000000000E+00  0.74505805969E-08  0.10566000000E+00  0.10566000000E+00 0.  1.
     999900   -1    0    0    0    0 -0.00000000000E+00 -0.00000000000E+00 -0.74505805969E-08  0.93827000000E+00  0.93827000000E+00 0. -1.
     999902    2    1    2    0    0 -0.11683344579E-01  0.68289505317E-02  0.20732438315E-01  0.10191717871E+01  0.10188710235E+01 0.  0.
     999903    2    3    3    0    0  0.78302731466E-01 -0.35599683600E-01 -0.90619250381E-01  0.12659300548E+00  0.20378549263E-01 0.  0.
         14    1    1    2    0    0  0.11683344579E-01 -0.68289505317E-02 -0.20732438315E-01  0.24758212867E-01  0.00000000000E+00 0. -1.
     999901    1    3    3    0    0 -0.89986076044E-01  0.42428634132E-01  0.11135168870E+00  0.89257878165E+00  0.88000000000E+00 0.  1.
        -11    1    4    4    0    0  0.45525615575E-01 -0.11860464756E-01 -0.57502319783E-01  0.74296905718E-01  0.51100000000E-03 0. -1.
         11    1    4    4    0    0  0.32777115891E-01 -0.23739218844E-01 -0.33116930598E-01  0.52296099765E-01  0.51100000000E-03 0.  1.
</event>
<event>
 8    1  0.1030163E+005  0.1043930E+01  0.7957747E-01            NaN
         13   -1    0    0    0    0  0.00000000000E+00  0.00000000000E+00  0.74505805969E-08  0.10566000000E+00  0.10566000000E+00 0. -1.
     999900   -1    0    0    0    0 -0.00000000000E+00 -0.00000000000E+00 -0.74505805969E-08  0.93827000000E+00  0.93827000000E+00 0.  1.
     999902    2    1    2    0    0  0.16680325909E-01  0.71836275170E-02 -0.16104849324E-01  0.10196564764E+01  0.10193675127E+01 0.  0.
     999903    2    3    3    0    0 -0.15360075677E-01 -0.12311089169E+00  0.26804159016E-01  0.12845255356E+00  0.19732511192E-01 0.  0.
         14    1    1    2    0    0 -0.16680325909E-01 -0.71836275170E-02  0.16104849324E-01  0.24273523611E-01  0.00000000000E+00 0. -1.
     999901    1    3    3    0    0  0.32040401585E-01  0.13029451921E+00 -0.42909008340E-01  0.89120392283E+00  0.88000000000E+00 0.  1.
        -11    1    4    4    0    0 -0.99104314840E-02 -0.71891615159E-01  0.57357504852E-02  0.72799594346E-01  0.51100000000E-03 0. -1.
         11    1    4    4    0    0 -0.54496441926E-02 -0.51219276532E-01  0.21068408531E-01  0.55652959214E-01  0.51100000000E-03 0.  1.
</event>
<event>
 8    1  0.1030163E+005  0.1043930E+01  0.7957747E-01            NaN
         13   -1    0    0    0    0  0.00000000000E+00  0.00000000000E+00  0.74505805969E-08  0.10566000000E+00  0.10566000000E+00 0.  1.
     999900   -1    0    0    0    0 -0.00000000000E+00 -0.00000000000E+00 -0.74505805969E-08  0.93827000000E+00  0.93827000000E+00 0. -1.
     999902    2    1    2    0    0  0.21447020543E-01 -0.23866955647E-03 -0.93443275683E-02  0.10205345280E+01  0.10202663254E+01 0.  0.
     999903    2    3    3    0    0  0.70209633043E-02  0.20203954425E-01  0.12627846289E+00  0.12979351439E+00  0.21038357496E-01 0.  0.
         14    1    1    2    0    0 -0.21447020543E-01  0.23866955647E-03  0.93443275683E-02  0.23395472020E-01  0.00000000000E+00 0.  1.
     999901    1    3    3    0    0  0.14426057238E-01 -0.20442623981E-01 -0.13562279046E+00  0.89074101359E+00  0.88000000000E+00 0. -1.
        -11    1    4    4    0    0  0.50344597234E-02 -0.33505936545E-02  0.33792603996E-01  0.34333270575E-01  0.51100000000E-03 0.  1.
         11    1    4    4    0    0  0.19865035809E-02  0.23554548079E-01  0.92485858898E-01  0.95460243813E-01  0.51100000000E-03 0. -1.
</event>
<event>
 8    1  0.1030163E+005  0.1043930E+01  0.7957747E-01            NaN
         13   -1    0    0    0    0  0.00000000000E+00  0.00000000000E+00  0.74505805969E-08  0.10566000000E+00  0.10566000000E+00 0.  1.
     999900   -1    0    0    0    0 -0.00000000000E+00 -0.00000000000E+00 -0.74505805969E-08  0.93827000000E+00  0.93827000000E+00 0. -1.
     999902    2    1    2    0    0  0.11207421178E-01 -0.15374193068E-01 -0.11713795900E-01  0.10215875490E+01  0.10213432015E+01 0.  0.
     999903    2    3    3    0    0 -0.90980509185E-01  0.87285926363E-02  0.89681431184E-01  0.12956495430E+00  0.19765548387E-01 0.  0.
         14    1    1    2    0    0 -0.11207421178E-01  0.15374193068E-01  0.11713795900E-01  0.22342450992E-01  0.00000000000E+00 0.  1.
     999901    1    3    3    0    0  0.10218793036E+00 -0.24102785704E-01 -0.10139522708E+00  0.89202259471E+00  0.88000000000E+00 0. -1.
        -11    1    4    4    0    0 -0.75853750404E-02  0.66265683108E-02  0.99806583696E-02  0.14188868333E-01  0.51100000000E-03 0. -1.
         11    1    4    4    0    0 -0.83395134145E-01  0.21020243255E-02  0.79700772814E-01  0.11537608597E+00  0.51100000000E-03 0.  1.
</event>
<event>
 8    1  0.1030163E+005  0.1043930E+01  0.7957747E-01            NaN
         13   -1    0    0    0    0  0.00000000000E+00  0.00000000000E+00  0.74505805969E-08  0.10566000000E+00  0.10566000000E+00 0.  1.
     999900   -1    0    0    0    0 -0.00000000000E+00 -0.00000000000E+00 -0.74505805969E-08  0.93827000000E+00  0.93827000000E+00 0.  1.
     999902    2    1    2    0    0  0.12078360159E-01  0.17617034632E-01 -0.10954333305E-01  0.10199249149E+01  0.10196423824E+01 0.  0.
     999903    2    3    3    0    0 -0.69436214793E-01  0.10990906379E+00 -0.73755238241E-02  0.13134444444E+00  0.17192280385E-01 0.  0.
         14    1    1    2    0    0 -0.12078360159E-01 -0.17617034632E-01  0.10954333305E-01  0.24005085118E-01  0.00000000000E+00 0.  1.
     999901    1    3    3    0    0  0.81514574952E-01 -0.92292029161E-01 -0.35788094813E-02  0.88858047044E+00  0.88000000000E+00 0. -1.
        -11    1    4    4    0    0 -0.25091268451E-01  0.50730543799E-01  0.29495608957E-02  0.56675575490E-01  0.51100000000E-03 0.  1.
         11    1    4    4    0    0 -0.44344946343E-01  0.59178519993E-01 -0.10325084720E-01  0.74668868949E-01  0.51100000000E-03 0. -1.
</event>
<event>
 8    1  0.1030163E+005  0.1043930E+01  0.7957747E-01            NaN
         13   -1    0    0    0    0  0.00000000000E+00  0.00000000000E+00  0.74505805969E-08  0.10566000000E+00  0.10566000000E+00 0.  1.
     999900   -1    0    0    0    0 -0.00000000000E+00 -0.00000000000E+00 -0.74505805969E-08  0.93827000000E+00  0.93827000000E+00 0.  1.
     999902    2    1    2    0    0 -0.15362592960E-01  0.42379295131E-02  0.17384775196E-01  0.10203461132E+01  0.10200735223E+01 0.  0.
     999903    2    3    3    0    0 -0.87315876366E-01 -0.91163019473E-01  0.36087881149E-01  0.13207339479E+00  0.14362731654E-01 0.  0.
         14    1    1    2    0    0  0.15362592960E-01 -0.42379295131E-02 -0.17384775196E-01  0.23583886822E-01  0.00000000000E+00 0. -1.
     999901    1    3    3    0    0  0.71953283407E-01  0.95400948986E-01 -0.18703105953E-01  0.88827271839E+00  0.88000000000E+00 0.  1.
        -11    1    4    4    0    0 -0.46783831758E-01 -0.42178501640E-01  0.23658778779E-01  0.67288571458E-01  0.51100000000E-03 0. -1.
         11    1    4    4    0    0 -0.40532044608E-01 -0.48984517833E-01  0.12429102370E-01  0.64784823332E-01  0.51100000000E-03 0.  1.
</event>
<event>
 8    1  0.1030163E+005  0.1043930E+01  0.7957747E-01            NaN
         13   -1    0    0    0    0  0.00000000000E+00  0.00000000000E+00  0.74505805969E-08  0.10566000000E+00  0.10566000000E+00 0.  1.
     999900   -1    0    0    0    0 -0.00000000000E+00 -0.00000000000E+00 -0.74505805969E-08  0.93827000000E+00  0.93827000000E+00 0.  1.
     999902    2    1    2    0    0  0.81809127970E-02 -0.11687322914E-01 -0.19070313189E-01  0.10201140873E+01  0.10198360424E+01 0.  0.
     999903    2    3    3    0    0  0.36228184079E-01 -0.10732074320E+00 -0.69550149817E-01  0.13305117276E+00  0.59302605081E-02 0.  0.
         14    1    1    2    0    0 -0.81809127970E-02  0.11687322914E-01  0.19070313189E-01  0.23815912668E-01  0.00000000000E+00 0.  1.
     999901    1    3    3    0    0 -0.28047271282E-01  0.95633420290E-01  0.50479836628E-01  0.88706291457E+00  0.88000000000E+00 0. -1.
        -11    1    4    4    0    0  0.27330206441E-01 -0.72576533739E-01 -0.47104095351E-01  0.90737811046E-01  0.51100000000E-03 0. -1.
         11    1    4    4    0    0  0.88979776377E-02 -0.34744209465E-01 -0.22446054467E-01  0.42313361714E-01  0.51100000000E-03 0.  1.
</event>
<event>
 8    1  0.1030163E+005  0.1043930E+01  0.7957747E-01            NaN
         13   -1    0    0    0    0  0.00000000000E+00  0.00000000000E+00  0.74505805969E-08  0.10566000000E+00  0.10566000000E+00 0.  1.
     999900   -1    0    0    0    0 -0.00000000000E+00 -0.00000000000E+00 -0.74505805969E-08  0.93827000000E+00  0.93827000000E+00 0.  1.
     999902    2    1    2    0    0 -0.20017464574E-01  0.26454228526E-02  0.12233889392E-01  0.10203214168E+01  0.10200482481E+01 0.  0.
     999903    2    3    3    0    0  0.38942306015E-01  0.94109808479E-01 -0.76845267871E-01  0.12915527931E+00  0.20068177051E-01 0.  0.
         14    1    1    2    0    0  0.20017464574E-01 -0.26454228526E-02 -0.12233889392E-01  0.23608583178E-01  0.00000000000E+00 0. -1.
     999901    1    3    3    0    0 -0.58959770589E-01 -0.91464385626E-01  0.89079157263E-01  0.89116613751E+00  0.88000000000E+00 0. -1.
        -11    1    4    4    0    0  0.18843665577E-01  0.50117833602E-01 -0.28043496627E-01  0.60444849255E-01  0.51100000000E-03 0.  1.
         11    1    4    4    0    0  0.20098640438E-01  0.43991974876E-01 -0.48801771245E-01  0.68710430057E-01  0.51100000000E-03 0. -1.
</event>
<event>
 8    1  0.1030163E+005  0.1043930E+01  0.7957747E-01            NaN
         13   -1    0    0    0    0  0.00000000000E+00  0.00000000000E+00  0.74505805969E-08  0.10566000000E+00  0.10566000000E+00 0. -1.
     999900   -1    0    0    0    0 -0.00000000000E+00 -0.00000000000E+00 -0.74505805969E-08  0.93827000000E+00  0.93827000000E+00 0.  1.
     999902    2    1    2    0    0 -0.30585236725E-02  0.51006401315E-02  0.17254521049E-01  0.10256792577E+01  0.10255168698E+01 0.  0.
     999903    2    3    3    0    0 -0.93770688836E-01  0.86174713369E-01  0.45901043312E-01  0.13684725701E+00  0.20031042549E-01 0.  0.
         14    1    1    2    0    0  0.30585236725E-02 -0.51006401315E-02 -0.17254521049E-01  0.18250742271E-01  0.00000000000E+00 0.  1.
     999901    1    3    3    0    0  0.90712165164E-01 -0.81074073238E-01 -0.28646522263E-01  0.88883200072E+00  0.88000000000E+00 0.  1.
        -11    1    4    4    0    0 -0.63580441218E-01  0.70130089249E-01  0.31798348050E-01  0.99860392465E-01  0.51100000000E-03 0.  1.
         11    1    4    4    0    0 -0.30190247618E-01  0.16044624121E-01  0.14102695262E-01  0.36986864548E-01  0.51100000000E-03 0. -1.
</event>
<event>
 8    1  0.1030163E+005  0.1043930E+01  0.7957747E-01            NaN
         13   -1    0    0    0    0  0.00000000000E+00  0.00000000000E+00  0.74505805969E-08  0.10566000000E+00  0.10566000000E+00 0. -1.
     999900   -1    0    0    0    0 -0.00000000000E+00 -0.00000000000E+00 -0.74505805969E-08  0.93827000000E+00  0.93827000000E+00 0.  1.
     999902    2    1    2    0    0 -0.11634062870E-01  0.58226375451E-02 -0.19970502209E-01  0.10200956658E+01  0.10198171856E+01 0.  0.
     999903    2    3    3    0    0  0.96474725134E-01  0.53009523636E-01 -0.68201502909E-01  0.13091607672E+00  0.19240373146E-01 0.  0.
         14    1    1    2    0    0  0.11634062870E-01 -0.58226375451E-02  0.19970502209E-01  0.23834334169E-01  0.00000000000E+00 0. -1.
     999901    1    3    3    0    0 -0.10810878800E+00 -0.47186886091E-01  0.48231000700E-01  0.88917958911E+00  0.88000000000E+00 0.  1.
        -11    1    4    4    0    0  0.23117412318E-01  0.22334563968E-01 -0.21974754331E-01  0.38940961067E-01  0.51100000000E-03 0.  1.
         11    1    4    4    0    0  0.73357312816E-01  0.30674959669E-01 -0.46226748578E-01  0.91975115653E-01  0.51100000000E-03 0. -1.
</event>
<event>
 8    1  0.1030163E+005  0.1043930E+01  0.7957747E-01            NaN
         13   -1    0    0    0    0  0.00000000000E+00  0.00000000000E+00  0.74505805969E-08  0.10566000000E+00  0.10566000000E+00 0.  1.
     999900   -1    0    0    0    0 -0.00000000000E+00 -0.00000000000E+00 -0.74505805969E-08  0.93827000000E+00  0.93827000000E+00 0. -1.
     999902    2    1    2    0    0 -0.68834361766E-02  0.12107673305E-01  0.18154400430E-01  0.10210485730E+01  0.10207921575E+01 0.  0.
     999903    2    3    3    0    0  0.43296524150E-01 -0.10905306918E+00 -0.48077967746E-01  0.12886883745E+00  0.22989679891E-01 0.  0.
         14    1    1    2    0    0  0.68834361766E-02 -0.12107673305E-01 -0.18154400430E-01  0.22881426997E-01  0.00000000000E+00 0. -1.
     999901    1    3    3    0    0 -0.50179960327E-01  0.12116074249E+00  0.66232368176E-01  0.89217973555E+00  0.88000000000E+00 0.  1.
        -11    1    4    4    0    0  0.20281931917E-02 -0.30390503505E-01 -0.16107858694E-01  0.34458968406E-01  0.51100000000E-03 0. -1.
         11    1    4    4    0    0  0.41268330959E-01 -0.78662565676E-01 -0.31970109053E-01  0.94409869043E-01  0.51100000000E-03 0.  1.
</event>
<event>
 8    1  0.1030163E+005  0.1043930E+01  0.7957747E-01            NaN
         13   -1    0    0    0    0  0.00000000000E+00  0.00000000000E+00  0.74505805969E-08  0.10566000000E+00  0.10566000000E+00 0. -1.
     999900   -1    0    0    0    0 -0.00000000000E+00 -0.00000000000E+00 -0.74505805969E-08  0.93827000000E+00  0.93827000000E+00 0. -1.
     999902    2    1    2    0    0 -0.10480828481E-01 -0.45983299131E-02 -0.19850665902E-01  0.10210162194E+01  0.10207590700E+01 0.  0.
     999903    2    3    3    0    0 -0.69398695106E-01 -0.36164416746E-01  0.10185121030E+00  0.13012953779E+00  0.20880221379E-01 0.  0.
         14    1    1    2    0    0  0.10480828481E-01  0.45983299131E-02  0.19850665902E-01  0.22913780578E-01  0.00000000000E+00 0. -1.
     999901    1    3    3    0    0  0.58917866625E-01  0.31566086833E-01 -0.12170187620E+00  0.89088668164E+00  0.88000000000E+00 0. -1.
        -11    1    4    4    0    0 -0.19471638158E-01 -0.17957509763E-02  0.33324680679E-01  0.38641491657E-01  0.51100000000E-03 0.  1.
         11    1    4    4    0    0 -0.49927056948E-01 -0.34368665769E-01  0.68526529617E-01  0.91488046130E-01  0.51100000000E-03 0. -1.
</event>
<event>
 8    1  0.1030163E+005  0.1043930E+01  0.7957747E-01            NaN
         13   -1    0    0    0    0  0.00000000000E+00  0.00000000000E+00  0.74505805969E-08  0.10566000000E+00  0.10566000000E+00 0.  1.
     999900   -1    0    0    0    0 -0.00000000000E+00 -0.00000000000E+00 -0.74505805969E-08  0.93827000000E+00  0.93827000000E+00 0.  1.
     999902    2    1    2    0    0 -0.34740880984E-02  0.21502164569E-01 -0.10260393966E-01  0.10198532881E+01  0.10195690468E+01 0.  0.
     999903    2    3    3    0    0  0.80686144504E-01  0.65076665619E-01  0.76480465966E-01  0.13052451954E+00  0.21027653302E-01 0.  0.
         14    1    1    2    0    0  0.34740880984E-02 -0.21502164569E-01  0.10260393966E-01  0.24076711852E-01  0.00000000000E+00 0. -1.
     999901    1    3    3    0    0 -0.84160232603E-01 -0.43574501051E-01 -0.86740859933E-01  0.88932876861E+00  0.88000000000E+00 0.  1.
        -11    1    4    4    0    0  0.63427377714E-01  0.39014797555E-01  0.55495630378E-01  0.92872023688E-01  0.51100000000E-03 0. -1.
         11    1    4    4    0    0  0.17258766790E-01  0.26061868064E-01  0.20984835588E-01  0.37652495851E-01  0.51100000000E-03 0.  1.
</event>
<event>
 8    1  0.1030163E+005  0.1043930E+01  0.7957747E-01            NaN
         13   -1    0    0    0    0  0.00000000000E+00  0.00000000000E+00  0.74505805969E-08  0.10566000000E+00  0.10566000000E+00 0.  1.
     999900   -1    0    0    0    0 -0.00000000000E+00 -0.00000000000E+00 -0.74505805969E-08  0.93827000000E+00  0.93827000000E+00 0.  1.
     999902    2    1    2    0    0 -0.37828605619E-02  0.22187121887E-01 -0.81333651446E-02  0.10199982211E+01  0.10197174320E+01 0.  0.
     999903    2    3    3    0    0  0.10952497492E+00 -0.61915913085E-01 -0.18955898868E-01  0.12869069097E+00  0.19304595719E-01 0.  0.
         14    1    1    2    0    0  0.37828605619E-02 -0.22187121887E-01  0.81333651446E-02  0.23931778877E-01  0.00000000000E+00 0. -1.
     999901    1    3    3    0    0 -0.11330783548E+00  0.84103034972E-01  0.10822533723E-01  0.89130753015E+00  0.88000000000E+00 0.  1.
        -11    1    4    4    0    0  0.36668017210E-01 -0.11506265834E-01 -0.94919251974E-02  0.39589081885E-01  0.51100000000E-03 0. -1.
         11    1    4    4    0    0  0.72856957710E-01 -0.50409647251E-01 -0.94639736704E-02  0.89101609084E-01  0.51100000000E-03 0.  1.
</event>
<event>
 8    1  0.1030163E+005  0.1043930E+01  0.7957747E-01            NaN
         13   -1    0    0    0    0  0.00000000000E+00  0.00000000000E+00  0.74505805969E-08  0.10566000000E+00  0.10566000000E+00 0. -1.
     999900   -1    0    0    0    0 -0.00000000000E+00 -0.00000000000E+00 -0.74505805969E-08  0.93827000000E+00  0.93827000000E+00 0.  1.
     999902    2    1    2    0    0  0.21586677053E-01  0.12190433150E-01  0.10732941602E-03  0.10191388160E+01  0.10188372409E+01 0.  0.
     999903    2    3    3    0    0  0.12155774626E+00  0.36380592045E-01  0.33654379538E-01  0.13251331269E+00  0.18092197935E-01 0.  0.
         14    1    1    2    0    0 -0.21586677053E-01 -0.12190433150E-01 -0.10732941602E-03  0.24791184042E-01  0.00000000000E+00 0.  1.
     999901    1    3    3    0    0 -0.99971069206E-01 -0.24190158895E-01 -0.33547050122E-01  0.88662550326E+00  0.88000000000E+00 0.  1.
        -11    1    4    4    0    0  0.34495489502E-01  0.18836558223E-01  0.12002246090E-01  0.41098293807E-01  0.51100000000E-03 0.  1.
         11    1    4    4    0    0  0.87062256757E-01  0.17544033823E-01  0.21652133448E-01  0.91415018887E-01  0.51100000000E-03 0. -1.
</event>
<event>
 8    1  0.1030163E+005  0.1043930E+01  0.7957747E-01            NaN
         13   -1    0    0    0    0  0.00000000000E+00  0.00000000000E+00  0.74505805969E-08  0.10566000000E+00  0.10566000000E+00 0.  1.
     999900   -1    0    0    0    0 -0.00000000000E+00 -0.00000000000E+00 -0.74505805969E-08  0.93827000000E+00  0.93827000000E+00 0.  1.
     999902    2    1    2    0    0 -0.31862742933E-01  0.61193148001E-02  0.17925428076E-01  0.10068624755E+01  0.10061799259E+01 0.  0.
     999903    2    3    3    0    0 -0.28898066307E-01 -0.76179791076E-01 -0.82159567731E-01  0.11736883386E+00  0.19666971984E-01 0.  0.
         14    1    1    2    0    0  0.31862742933E-01 -0.61193148001E-02 -0.17925428076E-01  0.37067524499E-01  0.00000000000E+00 0. -1.
     999901    1    3    3    0    0 -0.29646766260E-02  0.82299105876E-01  0.10008499581E+00  0.88949364164E+00  0.88000000000E+00 0. -1.
        -11    1    4    4    0    0 -0.28510438126E-01 -0.52683362052E-01 -0.53634964400E-01  0.80407414126E-01  0.51100000000E-03 0.  1.
         11    1    4    4    0    0 -0.38762818070E-03 -0.23496429024E-01 -0.28524603331E-01  0.36961419733E-01  0.51100000000E-03 0. -1.
</event>
<event>
 8    1  0.1030163E+005  0.1043930E+01  0.7957747E-01            NaN
         13   -1    0    0    0    0  0.00000000000E+00  0.00000000000E+00  0.74505805969E-08  0.10566000000E+00  0.10566000000E+00 0.  1.
     999900   -1    0    0    0    0 -0.00000000000E+00 -0.00000000000E+00 -0.74505805969E-08  0.93827000000E+00  0.93827000000E+00 0.  1.
     999902    2    1    2    0    0  0.28025409067E-02  0.16847023984E-01  0.16672069156E-01  0.10200629863E+01  0.10197837328E+01 0.  0.
     999903    2    3    3    0    0 -0.48745801057E-01  0.91608291659E-01 -0.76626858687E-01  0.13048377756E+00  0.19649644065E-01 0.  0.
         14    1    1    2    0    0 -0.28025409067E-02 -0.16847023984E-01 -0.16672069156E-01  0.23867013693E-01  0.00000000000E+00 0. -1.
     999901    1    3    3    0    0  0.51548341964E-01 -0.74761267675E-01  0.93298927844E-01  0.88957920875E+00  0.88000000000E+00 0. -1.
        -11    1    4    4    0    0 -0.15470481176E-01  0.44229054145E-01 -0.26098592246E-01  0.53637138781E-01  0.51100000000E-03 0. -1.
         11    1    4    4    0    0 -0.33275319882E-01  0.47379237514E-01 -0.50528266441E-01  0.76846638776E-01  0.51100000000E-03 0.  1.
</event>
<event>
 8    1  0.1030163E+005  0.1043930E+01  0.7957747E-01            NaN
         13   -1    0    0    0    0  0.00000000000E+00  0.00000000000E+00  0.74505805969E-08  0.10566000000E+00  0.10566000000E+00 0. -1.
     999900   -1    0    0    0    0 -0.00000000000E+00 -0.00000000000E+00 -0.74505805969E-08  0.93827000000E+00  0.93827000000E+00 0. -1.
     999902    2    1    2    0    0 -0.21631394700E-01 -0.11594240364E-01 -0.14910326778E-03  0.10193868568E+01  0.10190913590E+01 0.  0.
     999903    2    3    3    0    0  0.21519018718E-01 -0.10960747642E+00  0.64533287074E-01  0.13053795837E+00  0.19968634948E-01 0.  0.
         14    1    1    2    0    0  0.21631394700E-01  0.11594240364E-01  0.14910326778E-03  0.24543143198E-01  0.00000000000E+00 0.  1.
     999901    1    3    3    0    0 -0.43150413418E-01  0.98013236054E-01 -0.64682390342E-01  0.88884889843E+00  0.88000000000E+00 0. -1.
        -11    1    4    4    0    0  0.16797482908E-01 -0.61617148241E-01  0.46706045772E-01  0.79123600917E-01  0.51100000000E-03 0.  1.
         11    1    4    4    0    0  0.47215358106E-02 -0.47990328178E-01  0.17827241302E-01  0.51414357454E-01  0.51100000000E-03 0. -1.
</event>
<event>
 8    1  0.1030163E+005  0.1043930E+01  0.7957747E-01            NaN
         13   -1    0    0    0    0  0.00000000000E+00  0.00000000000E+00  0.74505805969E-08  0.10566000000E+00  0.10566000000E+00 0. -1.
     999900   -1    0    0    0    0 -0.00000000000E+00 -0.00000000000E+00 -0.74505805969E-08  0.93827000000E+00  0.93827000000E+00 0.  1.
     999902    2    1    2    0    0  0.18163631108E-01  0.15322611935E-01  0.15584352756E-02  0.10201155369E+01  0.10198375263E+01 0.  0.
     999903    2    3    3    0    0  0.36512806894E-01 -0.29749585236E-01  0.12034918225E+00  0.13080151095E+00  0.20171433007E-01 0.  0.
         14    1    1    2    0    0 -0.18163631108E-01 -0.15322611935E-01 -0.15584352756E-02  0.23814463085E-01  0.00000000000E+00 0. -1.
     999901    1    3    3    0    0 -0.18349175786E-01  0.45072197171E-01 -0.11879074698E+00  0.88931402596E+00  0.88000000000E+00 0.  1.
        -11    1    4    4    0    0  0.18689631218E-01 -0.52072710185E-02  0.32407311519E-01  0.37774501286E-01  0.51100000000E-03 0. -1.
         11    1    4    4    0    0  0.17823175676E-01 -0.24542314217E-01  0.87941870732E-01  0.93027009665E-01  0.51100000000E-03 0.  1.
</event>
<event>
 8    1  0.1030163E+005  0.1043930E+01  0.7957747E-01            NaN
         13   -1    0    0    0    0  0.00000000000E+00  0.00000000000E+00  0.74505805969E-08  0.10566000000E+00  0.10566000000E+00 0. -1.
     999900   -1    0    0    0    0 -0.00000000000E+00 -0.00000000000E+00 -0.74505805969E-08  0.93827000000E+00  0.93827000000E+00 0.  1.
     999902    2    1    2    0    0  0.79830845616E-02 -0.22295207400E-01 -0.22203274849E-02  0.10201447994E+01  0.10198674796E+01 0.  0.
     999903    2    3    3    0    0 -0.85790417667E-01  0.92561959113E-01 -0.30884863120E-02  0.12773996298E+00  0.19499932190E-01 0.  0.
         14    1    1    2    0    0 -0.79830845616E-02  0.22295207400E-01  0.22203274849E-02  0.23785200573E-01  0.00000000000E+00 0. -1.
     999901    1    3    3    0    0  0.93773502229E-01 -0.11485716651E+00  0.86815882709E-03  0.89240483645E+00  0.88000000000E+00 0. -1.
        -11    1    4    4    0    0 -0.36532306623E-01  0.43386548255E-01 -0.10695840351E-01  0.57720569284E-01  0.51100000000E-03 0.  1.
         11    1    4    4    0    0 -0.49258111045E-01  0.49175410858E-01  0.76073540387E-02  0.70019393693E-01  0.51100000000E-03 0. -1.
</event>
<event>
 8    1  0.1030163E+005  0.1043930E+01  0.7957747E-01            NaN
         13   -1    0    0    0    0  0.00000000000E+00  0.00000000000E+00  0.74505805969E-08  0.10566000000E+00  0.10566000000E+00 0. -1.
     999900   -1    0    0    0    0 -0.00000000000E+00 -0.00000000000E+00 -0.74505805969E-08  0.93827000000E+00  0.93827000000E+00 0.  1.
     999902    2    1    2    0    0  0.21711470784E-01  0.57955868218E-02  0.11118474255E-02  0.10214308224E+01  0.10211829963E+01 0.  0.
     999903    2    3    3    0    0 -0.18141130770E-01  0.11522363662E+00 -0.58089626371E-01  0.13178620654E+00  0.19687876549E-01 0.  0.
         14    1    1    2    0    0 -0.21711470784E-01 -0.57955868218E-02 -0.11118474255E-02  0.22499177650E-01  0.00000000000E+00 0.  1.
     999901    1    3    3    0    0  0.39852601554E-01 -0.10942804979E+00  0.59201473797E-01  0.88964461581E+00  0.88000000000E+00 0. -1.
        -11    1    4    4    0    0 -0.15251832769E-02  0.28524572262E-01 -0.57009223634E-02  0.29133126223E-01  0.51100000000E-03 0. -1.
         11    1    4    4    0    0 -0.16615947493E-01  0.86699064354E-01 -0.52388704008E-01  0.10265308032E+00  0.51100000000E-03 0.  1.
</event>
<event>
 8    1  0.1077483E+005  0.1043930E+01  0.7957747E-01            NaN
         13   -1    0    0    0    0  0.00000000000E+00  0.00000000000E+00  0.74505805969E-08  0.10566000000E+00  0.10566000000E+00 0.  1.
     999900   -1    0    0    0    0 -0.00000000000E+00 -0.00000000000E+00 -0.74505805969E-08  0.93827000000E+00  0.93827000000E+00 0.  1.
     999902    2    1    2    0    0  0.24527324667E-01 -0.16346911089E-03 -0.33991243027E-02  0.10191677218E+01  0.10188668582E+01 0.  0.
     999903    2    3    3    0    0  0.15454577632E-01  0.12742468889E+00 -0.24850750267E-02  0.12991978767E+00  0.19926874358E-01 0.  0.
         14    1    1    2    0    0 -0.24527324667E-01  0.16346911089E-03  0.33991243027E-02  0.24762278238E-01  0.00000000000E+00 0. -1.
     999901    1    3    3    0    0  0.90727470356E-02 -0.12758815800E+00 -0.91404927604E-03  0.88924793409E+00  0.88000000000E+00 0. -1.
        -11    1    4    4    0    0  0.14586517036E-01  0.43643956538E-01  0.14243668024E-02  0.46041843613E-01  0.51100000000E-03 0. -1.
         11    1    4    4    0    0  0.86806059540E-03  0.83780732353E-01 -0.39094418291E-02  0.83877944057E-01  0.51100000000E-03 0.  1.
</event>
<event>
 8    1  0.1030163E+005  0.1043930E+01  0.7957747E-01            NaN
         13   -1    0    0    0    0  0.00000000000E+00  0.00000000000E+00  0.74505805969E-08  0.10566000000E+00  0.10566000000E+00 0.  1.
     999900   -1    0    0    0    0 -0.00000000000E+00 -0.00000000000E+00 -0.74505805969E-08  0.93827000000E+00  0.93827000000E+00 0.  1.
     999902    2    1    2    0    0  0.11589559438E-01 -0.21074584899E-01 -0.26251123696E-03  0.10198774548E+01  0.10195937907E+01 0.  0.
     999903    2    3    3    0    0 -0.11638244275E+00  0.41672875308E-01  0.26546110589E-01  0.12800707226E+00  0.19990323782E-01 0.  0.
         14    1    1    2    0    0 -0.11589559438E-01  0.21074584899E-01  0.26251123696E-03  0.24052545162E-01  0.00000000000E+00 0.  1.
     999901    1    3    3    0    0  0.12797200219E+00 -0.62747460207E-01 -0.26808621826E-01  0.89187038257E+00  0.88000000000E+00 0. -1.
        -11    1    4    4    0    0 -0.16787952629E-01  0.55149108279E-04 -0.21714893633E-03  0.16797222079E-01  0.51100000000E-03 0. -1.
         11    1    4    4    0    0 -0.99594490123E-01  0.41617726200E-01  0.26763259526E-01  0.11120985019E+00  0.51100000000E-03 0.  1.
</event>
<event>
 7    1  0.1030163E+005  0.1043930E+01  0.7957747E-01            NaN
         13   -1    0    0    0    0  0.00000000000E+00  0.00000000000E+00  0.74505805969E-08  0.10566000000E+00  0.10566000000E+00 0. -1.
     999900   -1    0    0    0    0 -0.00000000000E+00 -0.00000000000E+00 -0.74505805969E-08  0.93827000000E+00  0.93827000000E+00 0. -1.
     999903    2    1    2    0    0 -0.10513263659E-01 -0.22186635688E-01 -0.10375181830E+00  0.10850862069E+00  0.20171897451E-01 0.  0.
         14    1    1    2    0    0 -0.10590591751E-01  0.47863480768E-01  0.51354611461E-02  0.49289414543E-01  0.00000000000E+00 0. -1.
     999901    1    1    2    0    0  0.21103855410E-01 -0.25676845079E-01  0.98616357155E-01  0.88613196477E+00  0.88000000000E+00 0.  1.
        -11    1    3    3    0    0  0.51802822725E-02 -0.64796347007E-02 -0.43656174080E-01  0.44440338057E-01  0.51100000000E-03 0.  1.
         11    1    3    3    0    0 -0.15693545932E-01 -0.15707000988E-01 -0.60095644221E-01  0.64068282631E-01  0.51100000000E-03 0. -1.
</event>
<event>
 8    1  0.1030163E+005  0.1043930E+01  0.7957747E-01            NaN
         13   -1    0    0    0    0  0.00000000000E+00  0.00000000000E+00  0.74505805969E-08  0.10566000000E+00  0.10566000000E+00 0. -1.
     999900   -1    0    0    0    0 -0.00000000000E+00 -0.00000000000E+00 -0.74505805969E-08  0.93827000000E+00  0.93827000000E+00 0.  1.
     999902    2    1    2    0    0 -0.13839301670E-01 -0.24150407625E-01  0.47847771765E-02  0.10156870796E+01  0.10152943323E+01 0.  0.
     999903    2    3    3    0    0  0.79721591764E-01  0.79458498174E-01 -0.46589557072E-01  0.12320303586E+00  0.18417819941E-01 0.  0.
         14    1    1    2    0    0  0.13839301670E-01  0.24150407625E-01 -0.47847771765E-02  0.28242920384E-01  0.00000000000E+00 0.  1.
     999901    1    3    3    0    0 -0.93560893434E-01 -0.10360890580E+00  0.51374334248E-01  0.89248404376E+00  0.88000000000E+00 0. -1.
        -11    1    4    4    0    0  0.14116971222E-01  0.97940005090E-02 -0.13812154095E-01  0.22051032724E-01  0.51100000000E-03 0. -1.
         11    1    4    4    0    0  0.65604620542E-01  0.69664497665E-01 -0.32777402976E-01  0.10115200314E+00  0.51100000000E-03 0.  1.
</event>
<event>
 8    1  0.1061816E+005  0.1043930E+01  0.7957747E-01            NaN
         13   -1    0    0    0    0  0.00000000000E+00  0.00000000000E+00  0.74505805969E-08  0.10566000000E+00  0.10566000000E+00 0. -1.
     999900   -1    0    0    0    0 -0.00000000000E+00 -0.00000000000E+00 -0.74505805969E-08  0.93827000000E+00  0.93827000000E+00 0. -1.
     999902    2    1    2    0    0 -0.12680537049E-01 -0.18910336762E-01  0.69560803933E-02  0.10201227761E+01  0.10198449364E+01 0.  0.
     999903    2    3    3    0    0 -0.12774988955E+00  0.21338132749E-01  0.10925197357E-01  0.13171034423E+00  0.21281556559E-01 0.  0.
         14    1    1    2    0    0  0.12680537049E-01  0.18910336762E-01 -0.69560803933E-02  0.23807223919E-01  0.00000000000E+00 0. -1.
     999901    1    3    3    0    0  0.11506935250E+00 -0.40248469511E-01 -0.39691169640E-02  0.88841243185E+00  0.88000000000E+00 0.  1.
        -11    1    4    4    0    0 -0.72887635700E-01  0.13678222644E-01  0.16683374473E-01  0.76015112428E-01  0.51100000000E-03 0. -1.
         11    1    4    4    0    0 -0.54862253851E-01  0.76599101054E-02 -0.57581771159E-02  0.55695231799E-01  0.51100000000E-03 0.  1.
</event>
<event>
 8    1  0.1030163E+005  0.1043930E+01  0.7957747E-01            NaN
         13   -1    0    0    0    0  0.00000000000E+00  0.00000000000E+00  0.74505805969E-08  0.10566000000E+00  0.10566000000E+00 0. -1.
     999900   -1    0    0    0    0 -0.00000000000E+00 -0.00000000000E+00 -0.74505805969E-08  0.93827000000E+00  0.93827000000E+00 0. -1.
     999902    2    1    2    0    0 -0.14828925394E-01  0.38079225206E-02  0.20525542753E-01  0.10183234538E+01  0.10180014545E+01 0.  0.
     999903    2    3    3    0    0 -0.41093076976E-01  0.39857424277E-01  0.11676769677E+00  0.13195337058E+00  0.22354904463E-01 0.  0.
         14    1    1    2    0    0  0.14828925394E-01 -0.38079225206E-02 -0.20525542753E-01  0.25606546186E-01  0.00000000000E+00 0.  1.
     999901    1    3    3    0    0  0.26264151582E-01 -0.36049501757E-01 -0.96242154019E-01  0.88637008323E+00  0.88000000000E+00 0. -1.
        -11    1    4    4    0    0 -0.53494358791E-02  0.19594904580E-01  0.41125966630E-01  0.45871374538E-01  0.51100000000E-03 0. -1.
         11    1    4    4    0    0 -0.35743641097E-01  0.20262519697E-01  0.75641730142E-01  0.86081996046E-01  0.51100000000E-03 0.  1.
</event>
<event>
 8    1  0.1030163E+005  0.1043930E+01  0.7957747E-01            NaN
         13   -1    0    0    0    0  0.00000000000E+00  0.00000000000E+00  0.74505805969E-08  0.10566000000E+00  0.10566000000E+00 0. -1.
     999900   -1    0    0    0    0 -0.00000000000E+00 -0.00000000000E+00 -0.74505805969E-08  0.93827000000E+00  0.93827000000E+00 0. -1.
     999902    2    1    2    0    0  0.29656806841E-01 -0.45512215812E-02 -0.20901909891E-02  0.10138532863E+01  0.10134070640E+01 0.  0.
     999903    2    3    3    0    0 -0.26171713261E-01  0.58444052956E-02 -0.11953657780E+00  0.12423620771E+00  0.20652511353E-01 0.  0.
         14    1    1    2    0    0 -0.29656806841E-01  0.45512215812E-02  0.20901909891E-02  0.30076713721E-01  0.00000000000E+00 0.  1.
     999901    1    3    3    0    0  0.55828520103E-01 -0.10395626877E-01  0.11744638681E+00  0.88961707857E+00  0.88000000000E+00 0.  1.
        -11    1    4    4    0    0 -0.95517113291E-02  0.85136058597E-02 -0.23766755140E-01  0.26996971033E-01  0.51100000000E-03 0.  1.
         11    1    4    4    0    0 -0.16620001932E-01 -0.26692005641E-02 -0.95769822657E-01  0.97239236672E-01  0.51100000000E-03 0. -1.
</event>
<event>
 8    1  0.1030163E+005  0.1043930E+01  0.7957747E-01            NaN
         13   -1    0    0    0    0  0.00000000000E+00  0.00000000000E+00  0.74505805969E-08  0.10566000000E+00  0.10566000000E+00 0. -1.
     999900   -1    0    0    0    0 -0.00000000000E+00 -0.00000000000E+00 -0.74505805969E-08  0.93827000000E+00  0.93827000000E+00 0. -1.
     999902    2    1    2    0    0 -0.20587470555E-01  0.36583022807E-02 -0.97370668445E-02  0.10208640600E+01  0.10206034447E+01 0.  0.
     999903    2    3    3    0    0 -0.64380133189E-01 -0.11288845161E+00  0.96294544042E-02  0.13188936668E+00  0.20334074710E-01 0.  0.
         14    1    1    2    0    0  0.20587470555E-01 -0.36583022807E-02  0.97370668445E-02  0.23065940045E-01  0.00000000000E+00 0. -1.
     999901    1    3    3    0    0  0.43792662634E-01  0.11654675389E+00 -0.19366521249E-01  0.88897469328E+00  0.88000000000E+00 0. -1.
        -11    1    4    4    0    0 -0.28816015832E-01 -0.64863140858E-01 -0.20016124231E-02  0.71006037656E-01  0.51100000000E-03 0. -1.
         11    1    4    4    0    0 -0.35564117357E-01 -0.48025310751E-01  0.11631066827E-01  0.60883329021E-01  0.51100000000E-03 0.  1.
</event>
<event>
 8    1  0.1030163E+005  0.1043930E+01  0.7957747E-01            NaN
         13   -1    0    0    0    0  0.00000000000E+00  0.00000000000E+00  0.74505805969E-08  0.10566000000E+00  0.10566000000E+00 0.  1.
     999900   -1    0    0    0    0 -0.00000000000E+00 -0.00000000000E+00 -0.74505805969E-08  0.93827000000E+00  0.93827000000E+00 0. -1.
     999902    2    1    2    0    0  0.41906321517E-02  0.47734493026E-02 -0.22180712814E-01  0.10208576955E+01  0.10205969347E+01 0.  0.
     999903    2    3    3    0    0 -0.89584914604E-01  0.93753114890E-01 -0.35544286687E-02  0.13121834576E+00  0.19761498574E-01 0.  0.
         14    1    1    2    0    0 -0.41906321517E-02 -0.47734493026E-02  0.22180712814E-01  0.23072304545E-01  0.00000000000E+00 0.  1.
     999901    1    3    3    0    0  0.93775546756E-01 -0.88979665587E-01 -0.18626284145E-01  0.88963934969E+00  0.88000000000E+00 0. -1.
        -11    1    4    4    0    0 -0.24080120970E-01  0.37235341798E-01 -0.54469895726E-02  0.44679455247E-01  0.51100000000E-03 0. -1.
         11    1    4    4    0    0 -0.65504793634E-01  0.56517773092E-01  0.18925609039E-02  0.86538890517E-01  0.51100000000E-03 0.  1.
</event>
<event>
 8    1  0.1030163E+005  0.1043930E+01  0.7957747E-01            NaN
         13   -1    0    0    0    0  0.00000000000E+00  0.00000000000E+00  0.74505805969E-08  0.10566000000E+00  0.10566000000E+00 0. -1.
     999900   -1    0    0    0    0 -0.00000000000E+00 -0.00000000000E+00 -0.74505805969E-08  0.93827000000E+00  0.93827000000E+00 0.  1.
     999902    2    1    2    0    0 -0.19356217255E-01  0.22556453145E-02  0.13220816796E-01  0.10203813041E+01  0.10201095356E+01 0.  0.
     999903    2    3    3    0    0  0.11104621188E+00  0.39936730831E-01 -0.45305741793E-01  0.12805288037E+00  0.20462802568E-01 0.  0.
         14    1    1    2    0    0  0.19356217255E-01 -0.22556453145E-02 -0.13220816796E-01  0.23548695908E-01  0.00000000000E+00 0.  1.
     999901    1    3    3    0    0 -0.13040242913E+00 -0.37681085517E-01  0.58526558589E-01  0.89232842373E+00  0.88000000000E+00 0.  1.
        -11    1    4    4    0    0  0.88836372626E-01  0.40172865115E-01 -0.35382484788E-01  0.10372049722E+00  0.51100000000E-03 0.  1.
         11    1    4    4    0    0  0.22209839251E-01 -0.23613428405E-03 -0.99232570050E-02  0.24332383145E-01  0.51100000000E-03 0. -1.
</event>
<event>
 8    1  0.1030163E+005  0.1043930E+01  0.7957747E-01            NaN
         13   -1    0    0    0    0  0.00000000000E+00  0.00000000000E+00  0.74505805969E-08  0.10566000000E+00  0.10566000000E+00 0. -1.
     999900   -1    0    0    0    0 -0.00000000000E+00 -0.00000000000E+00 -0.74505805969E-08  0.93827000000E+00  0.93827000000E+00 0. -1.
     999902    2    1    2    0    0  0.11116465444E-01  0.20551537237E-01  0.45491459403E-02  0.10201258782E+01  0.10198481118E+01 0.  0.
     999903    2    3    3    0    0 -0.19313903456E-01  0.12968252481E+00 -0.54545280772E-02  0.13280651443E+00  0.20426313682E-01 0.  0.
         14    1    1    2    0    0 -0.11116465444E-01 -0.20551537237E-01 -0.45491459403E-02  0.23804121819E-01  0.00000000000E+00 0.  1.
     999901    1    3    3    0    0  0.30430368900E-01 -0.10913098757E+00  0.10003674018E-01  0.88731936375E+00  0.88000000000E+00 0.  1.
        -11    1    4    4    0    0 -0.95170645650E-02  0.86061765908E-01  0.55377448610E-02  0.86764795904E-01  0.51100000000E-03 0.  1.
         11    1    4    4    0    0 -0.97968388909E-02  0.43620758899E-01 -0.10992272938E-01  0.46041718523E-01  0.51100000000E-03 0. -1.
</event>
<event>
 8    1  0.1030163E+005  0.1043930E+01  0.7957747E-01            NaN
         13   -1    0    0    0    0  0.00000000000E+00  0.00000000000E+00  0.74505805969E-08  0.10566000000E+00  0.10566000000E+00 0. -1.
     999900   -1    0    0    0    0 -0.00000000000E+00 -0.00000000000E+00 -0.74505805969E-08  0.93827000000E+00  0.93827000000E+00 0.  1.
     999902    2    1    2    0    0  0.63630831798E-02  0.21760613366E-01  0.10833490855E-01  0.10188027708E+01  0.10184928611E+01 0.  0.
     999903    2    3    3    0    0 -0.97210348856E-01 -0.58037177382E-02  0.83729145313E-01  0.12930795656E+00  0.15048016191E-01 0.  0.
         14    1    1    2    0    0 -0.63630831798E-02 -0.21760613366E-01 -0.10833490855E-01  0.25127229169E-01  0.00000000000E+00 0. -1.
     999901    1    3    3    0    0  0.10357343204E+00  0.27564331104E-01 -0.72895654458E-01  0.88949481427E+00  0.88000000000E+00 0. -1.
        -11    1    4    4    0    0 -0.58530686119E-01  0.38523339419E-02  0.48957365056E-01  0.76405277361E-01  0.51100000000E-03 0.  1.
         11    1    4    4    0    0 -0.38679662736E-01 -0.96560516801E-02  0.34771780257E-01  0.52902679201E-01  0.51100000000E-03 0. -1.
</event>
<event>
 8    1  0.1030163E+005  0.1043930E+01  0.7957747E-01            NaN
         13   -1    0    0    0    0  0.00000000000E+00  0.00000000000E+00  0.74505805969E-08  0.10566000000E+00  0.10566000000E+00 0.  1.
     999900   -1    0    0    0    0 -0.00000000000E+00 -0.00000000000E+00 -0.74505805969E-08  0.93827000000E+00  0.93827000000E+00 0. -1.
     999902    2    1    2    0    0 -0.10305034273E-01 -0.17107456353E-01  0.12689460948E-01  0.10202681908E+01  0.10199937745E+01 0.  0.
     999903    2    3    3    0    0 -0.85237868747E-01 -0.90139023357E-01  0.44984820692E-01  0.13348099554E+00  0.20074966439E-01 0.  0.
         14    1    1    2    0    0  0.10305034273E-01  0.17107456353E-01 -0.12689460948E-01  0.23661809174E-01  0.00000000000E+00 0.  1.
     999901    1    3    3    0    0  0.74932834474E-01  0.73031567004E-01 -0.32295359744E-01  0.88678719529E+00  0.88000000000E+00 0. -1.
        -11    1    4    4    0    0 -0.54508685367E-01 -0.56515450098E-01  0.18077337714E-01  0.80574463325E-01  0.51100000000E-03 0.  1.
         11    1    4    4    0    0 -0.30729183380E-01 -0.33623573259E-01  0.26907482978E-01  0.52906532216E-01  0.51100000000E-03 0. -1.
</event>
<event>
 8    1  0.1030163E+005  0.1043930E+01  0.7957747E-01            NaN
         13   -1    0    0    0    0  0.00000000000E+00  0.00000000000E+00  0.74505805969E-08  0.10566000000E+00  0.10566000000E+00 0.  1.
     999900   -1    0    0    0    0 -0.00000000000E+00 -0.00000000000E+00 -0.74505805969E-08  0.93827000000E+00  0.93827000000E+00 0. -1.
     999902    2    1    2    0    0  0.26294684813E-02  0.17231262196E-02 -0.22710928468E-01  0.10210025156E+01  0.10207450550E+01 0.  0.
     999903    2    3    3    0    0  0.11614351240E-01 -0.24866978665E-01  0.12396362512E+00  0.12842132241E+00  0.19282010087E-01 0.  0.
         14    1    1    2    0    0 -0.26294684813E-02 -0.17231262196E-02  0.22710928468E-01  0.22927484388E-01  0.00000000000E+00 0.  1.
     999901    1    3    3    0    0 -0.89848827587E-02  0.26590104885E-01 -0.14667455359E+00  0.89258119321E+00  0.88000000000E+00 0. -1.
        -11    1    4    4    0    0  0.15979933946E-01 -0.18851192328E-01  0.10817438290E+00  0.11096253411E+00  0.51100000000E-03 0. -1.
         11    1    4    4    0    0 -0.43655827059E-02 -0.60157863370E-02  0.15789242223E-01  0.17458788291E-01  0.51100000000E-03 0.  1.
</event>
<event>
 8    1  0.1030163E+005  0.1043930E+01  0.7957747E-01            NaN
         13   -1    0    0    0    0  0.00000000000E+00  0.00000000000E+00  0.74505805969E-08  0.10566000000E+00  0.10566000000E+00 0.  1.
     999900   -1    0    0    0    0 -0.00000000000E+00 -0.00000000000E+00 -0.74505805969E-08  0.93827000000E+00  0.93827000000E+00 0.  1.
     999902    2    1    2    0    0  0.74912693908E-02  0.50986785001E-02 -0.70724710002E-02  0.10324349800E+01  0.10323709858E+01 0.  0.
     999903    2    3    3    0    0 -0.12806140755E+00 -0.40440668795E-02 -0.54779816596E-01  0.14073205363E+00  0.19713042181E-01 0.  0.
         14    1    1    2    0    0 -0.74912693908E-02 -0.50986785001E-02  0.70724710002E-02  0.11495020034E-01  0.00000000000E+00 0.  1.
     999901    1    3    3    0    0  0.13555267694E+00  0.91427453796E-02  0.47707345595E-01  0.89170292634E+00  0.88000000000E+00 0. -1.
        -11    1    4    4    0    0 -0.49329053620E-01  0.39273012946E-02 -0.12645895109E-01  0.51077969914E-01  0.51100000000E-03 0.  1.
         11    1    4    4    0    0 -0.78732353927E-01 -0.79713681741E-02 -0.42133921487E-01  0.89654083712E-01  0.51100000000E-03 0. -1.
</event>
<event>
 8    1  0.1030163E+005  0.1043930E+01  0.7957747E-01            NaN
         13   -1    0    0    0    0  0.00000000000E+00  0.00000000000E+00  0.74505805969E-08  0.10566000000E+00  0.10566000000E+00 0.  1.
     999900   -1    0    0    0    0 -0.00000000000E+00 -0.00000000000E+00 -0.74505805969E-08  0.93827000000E+00  0.93827000000E+00 0.  1.
     999902    2    1    2    0    0 -0.11899601112E-01  0.16706675196E-02  0.21723255449E-01  0.10191047817E+01  0.10188023678E+01 0.  0.
     999903    2    3    3    0    0 -0.73373001215E-01  0.36078833015E-01 -0.96967780144E-01  0.12834641788E+00  0.19615634017E-01 0.  0.
         14    1    1    2    0    0  0.11899601112E-01 -0.16706675196E-02 -0.21723255449E-01  0.24825218305E-01  0.00000000000E+00 0. -1.
     999901    1    3    3    0    0  0.61473400103E-01 -0.34408165496E-01  0.11869103559E+00  0.89075836381E+00  0.88000000000E+00 0. -1.
        -11    1    4    4    0    0 -0.47942781178E-01  0.12998889259E-01 -0.59726634905E-01  0.77685348857E-01  0.51100000000E-03 0. -1.
         11    1    4    4    0    0 -0.25430220038E-01  0.23079943757E-01 -0.37241145239E-01  0.50661069024E-01  0.51100000000E-03 0.  1.
</event>
<event>
 8    1  0.1030163E+005  0.1043930E+01  0.7957747E-01            NaN
         13   -1    0    0    0    0  0.00000000000E+00  0.00000000000E+00  0.74505805969E-08  0.10566000000E+00  0.10566000000E+00 0.  1.
     999900   -1    0    0    0    0 -0.00000000000E+00 -0.00000000000E+00 -0.74505805969E-08  0.93827000000E+00  0.93827000000E+00 0.  1.
     999902    2    1    2    0    0  0.10355934566E-01 -0.13406147245E-01  0.13206581159E-01  0.10224501501E+01  0.10222244986E+01 0.  0.
     999903    2    3    3    0    0  0.11685395352E+00  0.57699452811E-01  0.19458785051E-01  0.13316002623E+00  0.19206117833E-01 0.  0.
         14    1    1    2    0    0 -0.10355934566E-01  0.13406147245E-01 -0.13206581159E-01  0.21479849874E-01  0.00000000000E+00 0. -1.
     999901    1    3    3    0    0 -0.10649801896E+00 -0.71105600056E-01 -0.62522038910E-02  0.88929012389E+00  0.88000000000E+00 0. -1.
        -11    1    4    4    0    0  0.64345584389E-01  0.23194502203E-01  0.43642029296E-02  0.68539379563E-01  0.51100000000E-03 0. -1.
         11    1    4    4    0    0  0.52508369133E-01  0.34504950608E-01  0.15094582121E-01  0.64620646669E-01  0.51100000000E-03 0.  1.
</event>
<event>
 8    1  0.1030163E+005  0.1043930E+01  0.7957747E-01            NaN
         13   -1    0    0    0    0  0.00000000000E+00  0.00000000000E+00  0.74505805969E-08  0.10566000000E+00  0.10566000000E+00 0.  1.
     999900   -1    0    0    0    0 -0.00000000000E+00 -0.00000000000E+00 -0.74505805969E-08  0.93827000000E+00  0.93827000000E+00 0.  1.
     999902    2    1    2    0    0 -0.54084237901E-02  0.39642204971E-02  0.22517161165E-01  0.10204355615E+01  0.10201650585E+01 0.  0.
     999903    2    3    3    0    0 -0.18374015888E-01  0.99604853728E-01  0.83854708631E-01  0.13303625342E+00  0.20206464781E-01 0.  0.
         14    1    1    2    0    0  0.54084237901E-02 -0.39642204971E-02 -0.22517161165E-01  0.23494438469E-01  0.00000000000E+00 0. -1.
     999901    1    3    3    0    0  0.12965592098E-01 -0.95640633231E-01 -0.61337547467E-01  0.88739930811E+00  0.88000000000E+00 0.  1.
        -11    1    4    4    0    0 -0.71962124854E-03  0.32929441253E-01  0.17390932939E-01  0.37250122490E-01  0.51100000000E-03 0. -1.
         11    1    4    4    0    0 -0.17654394639E-01  0.66675412475E-01  0.66463775693E-01  0.95786130933E-01  0.51100000000E-03 0.  1.
</event>
<event>
 8    1  0.1030163E+005  0.1043930E+01  0.7957747E-01            NaN
         13   -1    0    0    0    0  0.00000000000E+00  0.00000000000E+00  0.74505805969E-08  0.10566000000E+00  0.10566000000E+00 0.  1.
     999900   -1    0    0    0    0 -0.00000000000E+00 -0.00000000000E+00 -0.74505805969E-08  0.93827000000E+00  0.93827000000E+00 0.  1.
     999902    2    1    2    0    0  0.17348463633E-01 -0.80294928590E-02  0.13500323780E-01  0.10205269940E+01  0.10202586167E+01 0.  0.
     999903    2    3    3    0    0 -0.11858586690E+00  0.37803142173E-01  0.26523300195E-01  0.12881607083E+00  0.19960191990E-01 0.  0.
         14    1    1    2    0    0 -0.17348463633E-01  0.80294928590E-02 -0.13500323780E-01  0.23403005965E-01  0.00000000000E+00 0. -1.
     999901    1    3    3    0    0  0.13593433053E+00 -0.45832635032E-01 -0.13022976415E-01  0.89171092321E+00  0.88000000000E+00 0.  1.
        -11    1    4    4    0    0 -0.87155337367E-01  0.31379102817E-01  0.11354955650E-01  0.93326829283E-01  0.51100000000E-03 0. -1.
         11    1    4    4    0    0 -0.31430529531E-01  0.64240393566E-02  0.15168344545E-01  0.35489241546E-01  0.51100000000E-03 0.  1.
</event>
<event>
 8    1  0.1030163E+005  0.1043930E+01  0.7957747E-01            NaN
         13   -1    0    0    0    0  0.00000000000E+00  0.00000000000E+00  0.74505805969E-08  0.10566000000E+00  0.10566000000E+00 0.  1.
     999900   -1    0    0    0    0 -0.00000000000E+00 -0.00000000000E+00 -0.74505805969E-08  0.93827000000E+00  0.93827000000E+00 0. -1.
     999902    2    1    2    0    0  0.13497763492E-01  0.20655380760E-01  0.56160830819E-02  0.10186243729E+01  0.10183099913E+01 0.  0.
     999903    2    3    3    0    0 -0.11238717143E+00 -0.34734786000E-01 -0.42403933161E-01  0.12664847111E+00  0.20108705264E-01 0.  0.
         14    1    1    2    0    0 -0.13497763492E-01 -0.20655380760E-01 -0.56160830819E-02  0.25305627098E-01  0.00000000000E+00 0.  1.
     999901    1    3    3    0    0  0.12588493492E+00  0.55390166760E-01  0.48020016243E-01  0.89197590179E+00  0.88000000000E+00 0.  1.
        -11    1    4    4    0    0 -0.25103772269E-01 -0.11352807694E-02 -0.36056330796E-02  0.25391926975E-01  0.51100000000E-03 0.  1.
         11    1    4    4    0    0 -0.87283399159E-01 -0.33599505231E-01 -0.38798300081E-01  0.10125654414E+00  0.51100000000E-03 0. -1.
</event>
<event>
 8    1  0.1030163E+005  0.1043930E+01  0.7957747E-01            NaN
         13   -1    0    0    0    0  0.00000000000E+00  0.00000000000E+00  0.74505805969E-08  0.10566000000E+00  0.10566000000E+00 0. -1.
     999900   -1    0    0    0    0 -0.00000000000E+00 -0.00000000000E+00 -0.74505805969E-08  0.93827000000E+00  0.93827000000E+00 0. -1.
     999902    2    1    2    0    0 -0.10716901039E-01 -0.13749382404E-01  0.14825136760E-01  0.10210458971E+01  0.10207894209E+01 0.  0.
     999903    2    3    3    0    0 -0.34278555164E-01  0.63734559427E-01  0.10897249252E+00  0.13232623526E+00  0.19952819411E-01 0.  0.
         14    1    1    2    0    0  0.10716901039E-01  0.13749382404E-01 -0.14825136760E-01  0.22884102873E-01  0.00000000000E+00 0.  1.
     999901    1    3    3    0    0  0.23561654125E-01 -0.77483941830E-01 -0.94147355764E-01  0.88871966186E+00  0.88000000000E+00 0. -1.
        -11    1    4    4    0    0 -0.11479672817E-02  0.14680017387E-01  0.13456867736E-01  0.19954176245E-01  0.51100000000E-03 0. -1.
         11    1    4    4    0    0 -0.33130587883E-01  0.49054542040E-01  0.95515624788E-01  0.11237205902E+00  0.51100000000E-03 0.  1.
</event>
<event>
 8    1  0.1030163E+005  0.1043930E+01  0.7957747E-01            NaN
         13   -1    0    0    0    0  0.00000000000E+00  0.00000000000E+00  0.74505805969E-08  0.10566000000E+00  0.10566000000E+00 0.  1.
     999900   -1    0    0    0    0 -0.00000000000E+00 -0.00000000000E+00 -0.74505805969E-08  0.93827000000E+00  0.93827000000E+00 0.  1.
     999902    2    1    2    0    0 -0.16163741250E-01 -0.18222217971E-01  0.51771028662E-03  0.10195664251E+01  0.10192752873E+01 0.  0.
     999903    2    3    3    0    0  0.67827252325E-01  0.99578898519E-01  0.35063063487E-01  0.12708394823E+00  0.20110153888E-01 0.  0.
         14    1    1    2    0    0  0.16163741250E-01  0.18222217971E-01 -0.51771028662E-03  0.24363574921E-01  0.00000000000E+00 0. -1.
     999901    1    3    3    0    0 -0.83990993575E-01 -0.11780111649E+00 -0.34545353201E-01  0.89248247685E+00  0.88000000000E+00 0.  1.
        -11    1    4    4    0    0  0.29856603610E-01  0.59409426113E-01  0.24134498728E-01  0.70736354444E-01  0.51100000000E-03 0.  1.
         11    1    4    4    0    0  0.37970648715E-01  0.40169472406E-01  0.10928564759E-01  0.56347593790E-01  0.51100000000E-03 0. -1.
</event>
<event>
 8    1  0.1030163E+005  0.1043930E+01  0.7957747E-01            NaN
         13   -1    0    0    0    0  0.00000000000E+00  0.00000000000E+00  0.74505805969E-08  0.10566000000E+00  0.10566000000E+00 0.  1.
     999900   -1    0    0    0    0 -0.00000000000E+00 -0.00000000000E+00 -0.74505805969E-08  0.93827000000E+00  0.93827000000E+00 0. -1.
     999902    2    1    2    0    0 -0.12293398547E-01 -0.14701654403E-01  0.13016320366E-01  0.10207634101E+01  0.10205004893E+01 0.  0.
     999903    2    3    3    0    0 -0.79232420401E-02  0.64848124163E-01 -0.10912647162E+00  0.12876221778E+00  0.20076477428E-01 0.  0.
         14    1    1    2    0    0  0.12293398547E-01  0.14701654403E-01 -0.13016320366E-01  0.23166589863E-01  0.00000000000E+00 0. -1.
     999901    1    3    3    0    0 -0.43701565073E-02 -0.79549778566E-01  0.12214279199E+00  0.89200119236E+00  0.88000000000E+00 0.  1.
        -11    1    4    4    0    0  0.49336039082E-02  0.12015081298E-01 -0.30598553723E-01  0.33245078389E-01  0.51100000000E-03 0. -1.
         11    1    4    4    0    0 -0.12856845948E-01  0.52833042865E-01 -0.78527917899E-01  0.95517139387E-01  0.51100000000E-03 0.  1.
</event>
<event>
 8    1  0.1030163E+005  0.1043930E+01  0.7957747E-01            NaN
         13   -1    0    0    0    0  0.00000000000E+00  0.00000000000E+00  0.74505805969E-08  0.10566000000E+00  0.10566000000E+00 0. -1.
     999900   -1    0    0    0    0 -0.00000000000E+00 -0.00000000000E+00 -0.74505805969E-08  0.93827000000E+00  0.93827000000E+00 0.  1.
     999902    2    1    2    0    0 -0.11525344729E-01 -0.15278368193E-01  0.13210780052E-01  0.10206751765E+01  0.10204102259E+01 0.  0.
     999903    2    3    3    0    0  0.99653724201E-01 -0.49611594602E-01 -0.63522568404E-01  0.12970516435E+00  0.19903213246E-01 0.  0.
         14    1    1    2    0    0  0.11525344729E-01  0.15278368193E-01 -0.13210780052E-01  0.23254823485E-01  0.00000000000E+00 0. -1.
     999901    1    3    3    0    0 -0.11117906893E+00  0.34333226409E-01  0.76733348456E-01  0.89097001216E+00  0.88000000000E+00 0. -1.
        -11    1    4    4    0    0  0.54704604341E-01 -0.16584440199E-01 -0.28932418553E-01  0.64070144039E-01  0.51100000000E-03 0.  1.
         11    1    4    4    0    0  0.44949119860E-01 -0.33027154402E-01 -0.34590149851E-01  0.65635020315E-01  0.51100000000E-03 0. -1.
</event>
<event>
 8    1  0.1030163E+005  0.1043930E+01  0.7957747E-01            NaN
         13   -1    0    0    0    0  0.00000000000E+00  0.00000000000E+00  0.74505805969E-08  0.10566000000E+00  0.10566000000E+00 0. -1.
     999900   -1    0    0    0    0 -0.00000000000E+00 -0.00000000000E+00 -0.74505805969E-08  0.93827000000E+00  0.93827000000E+00 0. -1.
     999902    2    1    2    0    0  0.28384329400E-02 -0.76989090797E-02  0.23496879526E-01  0.10190415840E+01  0.10187376094E+01 0.  0.
     999903    2    3    3    0    0 -0.57112587927E-01 -0.11411386184E+00 -0.11083508951E-01  0.12993300216E+00  0.21815584236E-01 0.  0.
         14    1    1    2    0    0 -0.28384329400E-02  0.76989090797E-02 -0.23496879526E-01  0.24888415981E-01  0.00000000000E+00 0.  1.
     999901    1    3    3    0    0  0.59951020867E-01  0.10641495276E+00  0.34580388477E-01  0.88910858186E+00  0.88000000000E+00 0.  1.
        -11    1    4    4    0    0 -0.25775606749E-01 -0.29410546841E-01 -0.19959696080E-02  0.39161297022E-01  0.51100000000E-03 0. -1.
         11    1    4    4    0    0 -0.31336981179E-01 -0.84703314997E-01 -0.90875393427E-02  0.90771705135E-01  0.51100000000E-03 0.  1.
</event>
<event>
 8    1  0.1030163E+005  0.1043930E+01  0.7957747E-01            NaN
         13   -1    0    0    0    0  0.00000000000E+00  0.00000000000E+00  0.74505805969E-08  0.10566000000E+00  0.10566000000E+00 0. -1.
     999900   -1    0    0    0    0 -0.00000000000E+00 -0.00000000000E+00 -0.74505805969E-08  0.93827000000E+00  0.93827000000E+00 0. -1.
     999902    2    1    2    0    0 -0.93472268550E-02 -0.19549272576E-01 -0.12414101877E-03  0.10222606641E+01  0.10220309708E+01 0.  0.
     999903    2    3    3    0    0  0.11280970958E+00 -0.62250901724E-01 -0.23285069177E-01  0.13249542828E+00  0.20288881858E-01 0.  0.
         14    1    1    2    0    0  0.93472268550E-02  0.19549272576E-01  0.12414101877E-03  0.21669335918E-01  0.00000000000E+00 0.  1.
     999901    1    3    3    0    0 -0.12215693644E+00  0.42701629148E-01  0.23160928158E-01  0.88976523580E+00  0.88000000000E+00 0.  1.
        -11    1    4    4    0    0  0.61786207259E-01 -0.43421865516E-01 -0.76664203082E-02  0.75908029442E-01  0.51100000000E-03 0.  1.
         11    1    4    4    0    0  0.51023502321E-01 -0.18829036209E-01 -0.15618648869E-01  0.56587398837E-01  0.51100000000E-03 0. -1.
</event>
<event>
 8    1  0.1030163E+005  0.1043930E+01  0.7957747E-01            NaN
         13   -1    0    0    0    0  0.00000000000E+00  0.00000000000E+00  0.74505805969E-08  0.10566000000E+00  0.10566000000E+00 0.  1.
     999900   -1    0    0    0    0 -0.00000000000E+00 -0.00000000000E+00 -0.74505805969E-08  0.93827000000E+00  0.93827000000E+00 0. -1.
     999902    2    1    2    0    0  0.63901170975E-02 -0.10105745932E-02 -0.20785684894E-01  0.10221607659E+01  0.10219289270E+01 0.  0.
     999903    2    3    3    0    0 -0.10458061885E+00  0.44652898321E-02  0.74813691403E-01  0.13003760730E+00  0.18858585290E-01 0.  0.
         14    1    1    2    0    0 -0.63901170975E-02  0.10105745932E-02  0.20785684894E-01  0.21769234117E-01  0.00000000000E+00 0.  1.
     999901    1    3    3    0    0  0.11097073595E+00 -0.54758644253E-02 -0.95599376297E-01  0.89212315858E+00  0.88000000000E+00 0. -1.
        -11    1    4    4    0    0 -0.69633259626E-01  0.63311015538E-02  0.39458151557E-01  0.80287486811E-01  0.51100000000E-03 0. -1.
         11    1    4    4    0    0 -0.34947359224E-01 -0.18658117217E-02  0.35355539846E-01  0.49750120492E-01  0.51100000000E-03 0.  1.
</event>
<event>
 8    1  0.1030163E+005  0.1043930E+01  0.7957747E-01            NaN
         13   -1    0    0    0    0  0.00000000000E+00  0.00000000000E+00  0.74505805969E-08  0.10566000000E+00  0.10566000000E+00 0.  1.
     999900   -1    0    0    0    0 -0.00000000000E+00 -0.00000000000E+00 -0.74505805969E-08  0.93827000000E+00  0.93827000000E+00 0. -1.
     999902    2    1    2    0    0 -0.20651807661E-01 -0.36237546000E-02 -0.12908104854E-01  0.10193078976E+01  0.10190104720E+01 0.  0.
     999903    2    3    3    0    0 -0.10667412266E-01 -0.16121412829E-01 -0.12853030739E+00  0.13160052837E+00  0.20614691684E-01 0.  0.
         14    1    1    2    0    0  0.20651807661E-01  0.36237546000E-02  0.12908104854E-01  0.24622102429E-01  0.00000000000E+00 0. -1.
     999901    1    3    3    0    0 -0.99843953948E-02  0.12497658229E-01  0.11562220254E+00  0.88770736920E+00  0.88000000000E+00 0.  1.
        -11    1    4    4    0    0 -0.11934650483E-02  0.19010021715E-02 -0.61527084676E-01  0.61570134300E-01  0.51100000000E-03 0.  1.
         11    1    4    4    0    0 -0.94739472182E-02 -0.18022415000E-01 -0.67003222716E-01  0.70030394071E-01  0.51100000000E-03 0. -1.
</event>
<event>
 8    1  0.1030163E+005  0.1043930E+01  0.7957747E-01            NaN
         13   -1    0    0    0    0  0.00000000000E+00  0.00000000000E+00  0.74505805969E-08  0.10566000000E+00  0.10566000000E+00 0.  1.
     999900   -1    0    0    0    0 -0.00000000000E+00 -0.00000000000E+00 -0.74505805969E-08  0.93827000000E+00  0.93827000000E+00 0.  1.
     999902    2    1    2    0    0  0.14176361867E-01  0.57270114307E-02  0.18249482933E-01  0.10201221962E+01  0.10198443428E+01 0.  0.
     999903    2    3    3    0    0  0.95021101368E-01 -0.92650844743E-02  0.88238905405E-01  0.13352242508E+00  0.30451306650E-01 0.  0.
         14    1    1    2    0    0 -0.14176361867E-01 -0.57270114307E-02 -0.18249482933E-01  0.23807803827E-01  0.00000000000E+00 0.  1.
     999901    1    3    3    0    0 -0.80844739501E-01  0.14992095905E-01 -0.69989422472E-01  0.88659977109E+00  0.88000000000E+00 0. -1.
        -11    1    4    4    0    0  0.23888656642E-01  0.10914983951E-01  0.23110437312E-01  0.34987972570E-01  0.51100000000E-03 0.  1.
         11    1    4    4    0    0  0.71132444727E-01 -0.20180068425E-01  0.65128468092E-01  0.98534452510E-01  0.51100000000E-03 0. -1.
</event>
<event>
 8    1  0.1030163E+005  0.1043930E+01  0.7957747E-01            NaN
         13   -1    0    0    0    0  0.00000000000E+00  0.00000000000E+00  0.74505805969E-08  0.10566000000E+00  0.10566000000E+00 0.  1.
     999900   -1    0    0    0    0 -0.00000000000E+00 -0.00000000000E+00 -0.74505805969E-08  0.93827000000E+00  0.93827000000E+00 0.  1.
     999902    2    1    2    0    0  0.15335212657E-01  0.59384371889E-02  0.16948455802E-01  0.10203146673E+01  0.10200413405E+01 0.  0.
     999903    2    3    3    0    0  0.51316192351E-01  0.32090837270E-01  0.11714260990E+00  0.13351285888E+00  0.20979013292E-01 0.  0.
         14    1    1    2    0    0 -0.15335212657E-01 -0.59384371889E-02 -0.16948455802E-01  0.23615332679E-01  0.00000000000E+00 0. -1.
     999901    1    3    3    0    0 -0.35980979695E-01 -0.26152400081E-01 -0.10019415410E+00  0.88680180844E+00  0.88000000000E+00 0.  1.
        -11    1    4    4    0    0  0.19540900035E-01  0.22890290029E-01  0.66842597566E-01  0.73307612989E-01  0.51100000000E-03 0. -1.
         11    1    4    4    0    0  0.31775292316E-01  0.92005472412E-02  0.50300012336E-01  0.60205245896E-01  0.51100000000E-03 0.  1.
</event>
<event>
 8    1  0.1030163E+005  0.1043930E+01  0.7957747E-01            NaN
         13   -1    0    0    0    0  0.00000000000E+00  0.00000000000E+00  0.74505805969E-08  0.10566000000E+00  0.10566000000E+00 0.  1.
     999900   -1    0    0    0    0 -0.00000000000E+00 -0.00000000000E+00 -0.74505805969E-08  0.93827000000E+00  0.93827000000E+00 0.  1.
     999902    2    1    2    0    0 -0.20609048655E-01  0.10144025729E-01 -0.58806225527E-02  0.10202189084E+01  0.10199433343E+01 0.  0.
     999903    2    3    3    0    0 -0.67504978269E-02  0.12189015482E+00  0.44797098579E-01  0.13159779214E+00  0.20209398580E-01 0.  0.
         14    1    1    2    0    0  0.20609048655E-01 -0.10144025729E-01  0.58806225527E-02  0.23711091625E-01  0.00000000000E+00 0. -1.
     999901    1    3    3    0    0 -0.13858550828E-01 -0.11174612910E+00 -0.50677721132E-01  0.88862111623E+00  0.88000000000E+00 0. -1.
        -11    1    4    4    0    0  0.52203543385E-02  0.10989451391E-01  0.37975320078E-02  0.12755489471E-01  0.51100000000E-03 0. -1.
         11    1    4    4    0    0 -0.11970852165E-01  0.11090070343E+00  0.40999566572E-01  0.11884230267E+00  0.51100000000E-03 0.  1.
</event>
<event>
 8    1  0.1030163E+005  0.1043930E+01  0.7957747E-01            NaN
         13   -1    0    0    0    0  0.00000000000E+00  0.00000000000E+00  0.74505805969E-08  0.10566000000E+00  0.10566000000E+00 0.  1.
     999900   -1    0    0    0    0 -0.00000000000E+00 -0.00000000000E+00 -0.74505805969E-08  0.93827000000E+00  0.93827000000E+00 0.  1.
     999902    2    1    2    0    0  0.75465083379E-03  0.22632166368E-01  0.72655901656E-02  0.10201482159E+01  0.10198709768E+01 0.  0.
     999903    2    3    3    0    0  0.12778158964E+00 -0.32372922895E-02 -0.23875288833E-02  0.13059874864E+00  0.26678046045E-01 0.  0.
         14    1    1    2    0    0 -0.75465083379E-03 -0.22632166368E-01 -0.72655901656E-02  0.23781784055E-01  0.00000000000E+00 0. -1.
     999901    1    3    3    0    0 -0.12702693880E+00  0.25869458658E-01  0.96531190489E-02  0.88954946730E+00  0.88000000000E+00 0. -1.
        -11    1    4    4    0    0  0.71087807819E-01 -0.63552972404E-02  0.11115498484E-01  0.72233521658E-01  0.51100000000E-03 0. -1.
         11    1    4    4    0    0  0.56693781819E-01  0.31180049508E-02 -0.13503027367E-01  0.58365226983E-01  0.51100000000E-03 0.  1.
</event>
<event>
 8    1  0.1030163E+005  0.1043930E+01  0.7957747E-01            NaN
         13   -1    0    0    0    0  0.00000000000E+00  0.00000000000E+00  0.74505805969E-08  0.10566000000E+00  0.10566000000E+00 0. -1.
     999900   -1    0    0    0    0 -0.00000000000E+00 -0.00000000000E+00 -0.74505805969E-08  0.93827000000E+00  0.93827000000E+00 0.  1.
     999902    2    1    2    0    0  0.25809059067E-02  0.31646425593E-02  0.23424853364E-01  0.10201518631E+01  0.10198747100E+01 0.  0.
     999903    2    3    3    0    0 -0.79948158575E-01  0.21312424386E-01 -0.95823550849E-01  0.12809773340E+00  0.19517912572E-01 0.  0.
         14    1    1    2    0    0 -0.25809059067E-02 -0.31646425593E-02 -0.23424853364E-01  0.23778136869E-01  0.00000000000E+00 0.  1.
     999901    1    3    3    0    0  0.82529064482E-01 -0.18147781827E-01  0.11924840421E+00  0.89205412973E+00  0.88000000000E+00 0. -1.
        -11    1    4    4    0    0 -0.37338996728E-01  0.11390155193E-02 -0.49353080145E-01  0.61898995742E-01  0.51100000000E-03 0. -1.
         11    1    4    4    0    0 -0.42609161847E-01  0.20173408867E-01 -0.46470470704E-01  0.66198737654E-01  0.51100000000E-03 0.  1.
</event>
<event>
 8    1  0.1030163E+005  0.1043930E+01  0.7957747E-01            NaN
         13   -1    0    0    0    0  0.00000000000E+00  0.00000000000E+00  0.74505805969E-08  0.10566000000E+00  0.10566000000E+00 0. -1.
     999900   -1    0    0    0    0 -0.00000000000E+00 -0.00000000000E+00 -0.74505805969E-08  0.93827000000E+00  0.93827000000E+00 0.  1.
     999902    2    1    2    0    0  0.30084410506E-02 -0.22511585553E-01 -0.67405413081E-02  0.10202391347E+01  0.10199640361E+01 0.  0.
     999903    2    3    3    0    0 -0.19167274179E-01  0.11636923108E+00  0.45504899572E-01  0.12754140889E+00  0.16939089530E-01 0.  0.
         14    1    1    2    0    0 -0.30084410506E-02  0.22511585553E-01  0.67405413081E-02  0.23690865302E-01  0.00000000000E+00 0. -1.
     999901    1    3    3    0    0  0.22175715229E-01 -0.13888081663E+00 -0.52245440880E-01  0.89269772581E+00  0.88000000000E+00 0. -1.
        -11    1    4    4    0    0 -0.74488531346E-02  0.40619702072E-01  0.74659607446E-02  0.41969599715E-01  0.51100000000E-03 0.  1.
         11    1    4    4    0    0 -0.11718421044E-01  0.75749529009E-01  0.38038938827E-01  0.85571809172E-01  0.51100000000E-03 0. -1.
</event>
<event>
 8    1  0.1030163E+005  0.1043930E+01  0.7957747E-01            NaN
         13   -1    0    0    0    0  0.00000000000E+00  0.00000000000E+00  0.74505805969E-08  0.10566000000E+00  0.10566000000E+00 0.  1.
     999900   -1    0    0    0    0 -0.00000000000E+00 -0.00000000000E+00 -0.74505805969E-08  0.93827000000E+00  0.93827000000E+00 0. -1.
     999902    2    1    2    0    0  0.19718210230E-01 -0.10664456718E-01  0.62277764178E-04  0.10215125441E+01  0.10212665349E+01 0.  0.
     999903    2    3    3    0    0 -0.31185853213E-01  0.66087515261E-01 -0.10599215669E+00  0.13037303090E+00  0.20559007568E-01 0.  0.
         14    1    1    2    0    0 -0.19718210230E-01  0.10664456718E-01 -0.62277764178E-04  0.22417455928E-01  0.00000000000E+00 0.  1.
     999901    1    3    3    0    0  0.50904063443E-01 -0.76751971979E-01  0.10605443445E+00  0.89113951318E+00  0.88000000000E+00 0.  1.
        -11    1    4    4    0    0 -0.30175703367E-01  0.43748902842E-01 -0.80458184549E-01  0.96427797629E-01  0.51100000000E-03 0. -1.
         11    1    4    4    0    0 -0.10101498458E-02  0.22338612418E-01 -0.25533972137E-01  0.33945233267E-01  0.51100000000E-03 0.  1.
</event>
<event>
 7    1  0.1030163E+005  0.1043930E+01  0.7957747E-01            NaN
         13   -1    0    0    0    0  0.00000000000E+00  0.00000000000E+00  0.74505805969E-08  0.10566000000E+00  0.10566000000E+00 0.  1.
     999900   -1    0    0    0    0 -0.00000000000E+00 -0.00000000000E+00 -0.74505805969E-08  0.93827000000E+00  0.93827000000E+00 0. -1.
     999902    2    1    2    0    0 -0.55564866022E-02 -0.14489569805E-02  0.22890011390E-01  0.10203307068E+01  0.10200577555E+01 0.  0.
         14    1    1    2    0    0  0.55564866022E-02  0.14489569805E-02 -0.22890011390E-01  0.23599293233E-01  0.00000000000E+00 0. -1.
     999901    1    3    3    0    0  0.18972853841E-01  0.24808704243E-01 -0.10024559446E+00  0.88624185198E+00  0.88000000000E+00 0. -1.
        -11    1    3    3    0    0 -0.37539513799E-02 -0.30944581923E-01  0.63009620515E-01  0.70300303696E-01  0.51100000000E-03 0. -1.
         11    1    3    3    0    0 -0.20775389063E-01  0.46869206992E-02  0.60125985339E-01  0.63788551092E-01  0.51100000000E-03 0.  1.
</event>
<event>
 8    1  0.1030163E+005  0.1043930E+01  0.7957747E-01            NaN
         13   -1    0    0    0    0  0.00000000000E+00  0.00000000000E+00  0.74505805969E-08  0.10566000000E+00  0.10566000000E+00 0.  1.
     999900   -1    0    0    0    0 -0.00000000000E+00 -0.00000000000E+00 -0.74505805969E-08  0.93827000000E+00  0.93827000000E+00 0.  1.
     999902    2    1    2    0    0  0.21477089021E-01  0.99291939521E-02  0.54007359266E-03  0.10202625978E+01  0.10199880502E+01 0.  0.
     999903    2    3    3    0    0 -0.72900140995E-01  0.94508984506E-01  0.45875426061E-01  0.13002886634E+00  0.23591792155E-01 0.  0.
         14    1    1    2    0    0 -0.21477089021E-01 -0.99291939521E-02 -0.54007359266E-03  0.23667402156E-01  0.00000000000E+00 0. -1.
     999901    1    3    3    0    0  0.94377230016E-01 -0.84579790554E-01 -0.45335352469E-01  0.89023373150E+00  0.88000000000E+00 0.  1.
        -11    1    4    4    0    0 -0.42084917428E-01  0.61137229007E-01  0.16820611958E-01  0.76105815502E-01  0.51100000000E-03 0.  1.
         11    1    4    4    0    0 -0.30815223567E-01  0.33371755499E-01  0.29054814103E-01  0.53923050842E-01  0.51100000000E-03 0. -1.
</event>
<event>
 8    1  0.1030163E+005  0.1043930E+01  0.7957747E-01            NaN
         13   -1    0    0    0    0  0.00000000000E+00  0.00000000000E+00  0.74505805969E-08  0.10566000000E+00  0.10566000000E+00 0. -1.
     999900   -1    0    0    0    0 -0.00000000000E+00 -0.00000000000E+00 -0.74505805969E-08  0.93827000000E+00  0.93827000000E+00 0.  1.
     999902    2    1    2    0    0  0.13991716202E-01  0.78537250872E-02  0.17315238404E-01  0.10203235051E+01  0.10200503853E+01 0.  0.
     999903    2    3    3    0    0 -0.48870720529E-01  0.11656668663E+00 -0.21157017921E-01  0.13057617667E+00  0.25027559819E-01 0.  0.
         14    1    1    2    0    0 -0.13991716202E-01 -0.78537250872E-02 -0.17315238404E-01  0.23606494891E-01  0.00000000000E+00 0.  1.
     999901    1    3    3    0    0  0.62862436732E-01 -0.10871296154E+00  0.38472256326E-01  0.88974732844E+00  0.88000000000E+00 0.  1.
        -11    1    4    4    0    0 -0.31195277925E-01  0.46503973183E-01 -0.30546604669E-02  0.56083482044E-01  0.51100000000E-03 0. -1.
         11    1    4    4    0    0 -0.17675442604E-01  0.70062713443E-01 -0.18102357455E-01  0.74492694626E-01  0.51100000000E-03 0.  1.
</event>
<event>
 8    1  0.1030163E+005  0.1043930E+01  0.7957747E-01            NaN
         13   -1    0    0    0    0  0.00000000000E+00  0.00000000000E+00  0.74505805969E-08  0.10566000000E+00  0.10566000000E+00 0. -1.
     999900   -1    0    0    0    0 -0.00000000000E+00 -0.00000000000E+00 -0.74505805969E-08  0.93827000000E+00  0.93827000000E+00 0.  1.
     999902    2    1    2    0    0  0.73499720592E-02  0.17620018412E-01  0.69239888928E-02  0.10236216579E+01  0.10234201824E+01 0.  0.
     999903    2    3    3    0    0 -0.10312276739E+00  0.81336763021E-01 -0.15465695906E-01  0.13414689842E+00  0.22499520719E-01 0.  0.
         14    1    1    2    0    0 -0.73499720592E-02 -0.17620018412E-01 -0.69239888928E-02  0.20308342135E-01  0.00000000000E+00 0.  1.
     999901    1    3    3    0    0  0.11047273945E+00 -0.63716744610E-01  0.22389684798E-01  0.88947475945E+00  0.88000000000E+00 0.  1.
        -11    1    4    4    0    0 -0.57809081910E-01  0.50600551098E-01  0.14339374477E-02  0.76841544885E-01  0.51100000000E-03 0.  1.
         11    1    4    4    0    0 -0.45313685481E-01  0.30736211924E-01 -0.16899633353E-01  0.57305353535E-01  0.51100000000E-03 0. -1.
</event>
<event>
 8    1  0.1030163E+005  0.1043930E+01  0.7957747E-01            NaN
         13   -1    0    0    0    0  0.00000000000E+00  0.00000000000E+00  0.74505805969E-08  0.10566000000E+00  0.10566000000E+00 0.  1.
     999900   -1    0    0    0    0 -0.00000000000E+00 -0.00000000000E+00 -0.74505805969E-08  0.93827000000E+00  0.93827000000E+00 0. -1.
     999902    2    1    2    0    0  0.59279543746E-02 -0.21819931178E-01  0.70811572890E-02  0.10202362703E+01  0.10199611043E+01 0.  0.
     999903    2    3    3    0    0  0.97220031684E-01 -0.51711614466E-01  0.71261331023E-01  0.13268522903E+00  0.20034147686E-01 0.  0.
         14    1    1    2    0    0 -0.59279543746E-02  0.21819931178E-01 -0.70811572890E-02  0.23693729724E-01  0.00000000000E+00 0. -1.
     999901    1    3    3    0    0 -0.91292077309E-01  0.29891683288E-01 -0.64180173734E-01  0.88755104124E+00  0.88000000000E+00 0. -1.
        -11    1    4    4    0    0  0.20822810047E-01 -0.16930254454E-01  0.25758770700E-01  0.37202127937E-01  0.51100000000E-03 0.  1.
         11    1    4    4    0    0  0.76397221637E-01 -0.34781360012E-01  0.45502560323E-01  0.95483101097E-01  0.51100000000E-03 0. -1.
</event>
<event>
 8    1  0.1030163E+005  0.1043930E+01  0.7957747E-01            NaN
         13   -1    0    0    0    0  0.00000000000E+00  0.00000000000E+00  0.74505805969E-08  0.10566000000E+00  0.10566000000E+00 0.  1.
     999900   -1    0    0    0    0 -0.00000000000E+00 -0.00000000000E+00 -0.74505805969E-08  0.93827000000E+00  0.93827000000E+00 0.  1.
     999902    2    1    2    0    0  0.20931413821E-01 -0.45244259845E-02 -0.13395834770E-01  0.10186704888E+01  0.10183572663E+01 0.  0.
     999903    2    3    3    0    0 -0.53881869711E-01 -0.27545913008E-01  0.10937072752E+00  0.12670712352E+00  0.20753455237E-01 0.  0.
         14    1    1    2    0    0 -0.20931413821E-01  0.45244259845E-02  0.13395834770E-01  0.25259511164E-01  0.00000000000E+00 0.  1.
     999901    1    3    3    0    0  0.74813283532E-01  0.23021487023E-01 -0.12276656229E+00  0.89196336532E+00  0.88000000000E+00 0.  1.
        -11    1    4    4    0    0 -0.48860796287E-01 -0.23787980139E-01  0.80290885690E-01  0.96954282312E-01  0.51100000000E-03 0. -1.
         11    1    4    4    0    0 -0.50210734246E-02 -0.37579328688E-02  0.29079841830E-01  0.29752841203E-01  0.51100000000E-03 0.  1.
</event>
<event>
 8    1  0.1030163E+005  0.1043930E+01  0.7957747E-01            NaN
         13   -1    0    0    0    0  0.00000000000E+00  0.00000000000E+00  0.74505805969E-08  0.10566000000E+00  0.10566000000E+00 0. -1.
     999900   -1    0    0    0    0 -0.00000000000E+00 -0.00000000000E+00 -0.74505805969E-08  0.93827000000E+00  0.93827000000E+00 0. -1.
     999902    2    1    2    0    0  0.16847059137E-01  0.16737053515E-01 -0.19317651721E-03  0.10201815331E+01  0.10199050793E+01 0.  0.
     999903    2    3    3    0    0 -0.27908179620E-02 -0.94599408522E-01  0.85226078809E-01  0.12884663356E+00  0.19522646157E-01 0.  0.
         14    1    1    2    0    0 -0.16847059137E-01 -0.16737053515E-01  0.19317651721E-03  0.23748466879E-01  0.00000000000E+00 0. -1.
     999901    1    3    3    0    0  0.19637877099E-01  0.11133646204E+00 -0.85419255326E-01  0.89133489956E+00  0.88000000000E+00 0. -1.
        -11    1    4    4    0    0 -0.75222850240E-02 -0.14088439058E-01  0.14447754831E-01  0.21542228941E-01  0.51100000000E-03 0.  1.
         11    1    4    4    0    0  0.47314670620E-02 -0.80510969464E-01  0.70778323978E-01  0.10730440462E+00  0.51100000000E-03 0. -1.
</event>
<event>
 8    1  0.1030163E+005  0.1043930E+01  0.7957747E-01            NaN
         13   -1    0    0    0    0  0.00000000000E+00  0.00000000000E+00  0.74505805969E-08  0.10566000000E+00  0.10566000000E+00 0.  1.
     999900   -1    0    0    0    0 -0.00000000000E+00 -0.00000000000E+00 -0.74505805969E-08  0.93827000000E+00  0.93827000000E+00 0.  1.
     999902    2    1    2    0    0 -0.16885717587E-01 -0.26180966381E-01  0.79389313870E-02  0.10117803952E+01  0.10112694848E+01 0.  0.
     999903    2    3    3    0    0  0.62994284291E-01  0.97152033314E-01 -0.19287995670E-01  0.11918129755E+00  0.20624196440E-01 0.  0.
         14    1    1    2    0    0  0.16885717587E-01  0.26180966381E-01 -0.79389313870E-02  0.32149604829E-01  0.00000000000E+00 0. -1.
     999901    1    3    3    0    0 -0.79880001879E-01 -0.12333299969E+00  0.27226927057E-01  0.89259909762E+00  0.88000000000E+00 0. -1.
        -11    1    4    4    0    0  0.35782704326E-01  0.53898728022E-01 -0.21084105640E-01  0.68046127317E-01  0.51100000000E-03 0. -1.
         11    1    4    4    0    0  0.27211579965E-01  0.43253305292E-01  0.17961099697E-02  0.51135170234E-01  0.51100000000E-03 0.  1.
</event>
<event>
 8    1  0.1030163E+005  0.1043930E+01  0.7957747E-01            NaN
         13   -1    0    0    0    0  0.00000000000E+00  0.00000000000E+00  0.74505805969E-08  0.10566000000E+00  0.10566000000E+00 0. -1.
     999900   -1    0    0    0    0 -0.00000000000E+00 -0.00000000000E+00 -0.74505805969E-08  0.93827000000E+00  0.93827000000E+00 0.  1.
     999902    2    1    2    0    0 -0.20829246259E-01 -0.33634196172E-02 -0.98164418531E-02  0.10206591465E+01  0.10203938263E+01 0.  0.
     999903    2    3    3    0    0  0.69015310358E-01  0.93510388858E-01 -0.55889046536E-01  0.12960400567E+00  0.12896002291E-01 0.  0.
         14    1    1    2    0    0  0.20829246259E-01  0.33634196172E-02  0.98164418531E-02  0.23270853485E-01  0.00000000000E+00 0. -1.
     999901    1    3    3    0    0 -0.89844556617E-01 -0.96873808476E-01  0.46072604683E-01  0.89105514084E+00  0.88000000000E+00 0.  1.
        -11    1    4    4    0    0  0.43477694372E-01  0.48187072065E-01 -0.31595203007E-01  0.72186022166E-01  0.51100000000E-03 0. -1.
         11    1    4    4    0    0  0.25537615986E-01  0.45323316793E-01 -0.24293843529E-01  0.57417983505E-01  0.51100000000E-03 0.  1.
</event>
<event>
 8    1  0.1030163E+005  0.1043930E+01  0.7957747E-01            NaN
         13   -1    0    0    0    0  0.00000000000E+00  0.00000000000E+00  0.74505805969E-08  0.10566000000E+00  0.10566000000E+00 0. -1.
     999900   -1    0    0    0    0 -0.00000000000E+00 -0.00000000000E+00 -0.74505805969E-08  0.93827000000E+00  0.93827000000E+00 0. -1.
     999902    2    1    2    0    0  0.16494908501E-01  0.84162853751E-02  0.13827222864E-01  0.10208192242E+01  0.10205575832E+01 0.  0.
     999903    2    3    3    0    0 -0.11370764000E+00  0.58377242586E-01  0.10345487659E-01  0.12983049062E+00  0.20287861744E-01 0.  0.
         14    1    1    2    0    0 -0.16494908501E-01 -0.84162853751E-02 -0.13827222864E-01  0.23110775801E-01  0.00000000000E+00 0.  1.
     999901    1    3    3    0    0  0.13020254850E+00 -0.49960957211E-01  0.34817352055E-02  0.89098873358E+00  0.88000000000E+00 0. -1.
        -11    1    4    4    0    0 -0.27117666653E-01  0.20107252628E-01  0.98041432012E-02  0.35157528324E-01  0.51100000000E-03 0. -1.
         11    1    4    4    0    0 -0.86589973345E-01  0.38269989959E-01  0.54134445757E-03  0.94672962298E-01  0.51100000000E-03 0.  1.
</event>
<event>
 8    1  0.1030163E+005  0.1043930E+01  0.7957747E-01            NaN
         13   -1    0    0    0    0  0.00000000000E+00  0.00000000000E+00  0.74505805969E-08  0.10566000000E+00  0.10566000000E+00 0. -1.
     999900   -1    0    0    0    0 -0.00000000000E+00 -0.00000000000E+00 -0.74505805969E-08  0.93827000000E+00  0.93827000000E+00 0. -1.
     999902    2    1    2    0    0 -0.19437246380E-02 -0.24144776982E-01  0.72531245231E-03  0.10196962549E+01  0.10194082489E+01 0.  0.
     999903    2    3    3    0    0 -0.51266339727E-01  0.32520894220E-01  0.11292375053E+00  0.12939731181E+00  0.17494133840E-01 0.  0.
         14    1    1    2    0    0  0.19437246380E-02  0.24144776982E-01 -0.72531245231E-03  0.24233745050E-01  0.00000000000E+00 0.  1.
     999901    1    3    3    0    0  0.49322615089E-01 -0.56665671202E-01 -0.11219843808E+00  0.89029894314E+00  0.88000000000E+00 0. -1.
        -11    1    4    4    0    0 -0.12173388937E-01  0.97349916722E-02  0.46323444808E-01  0.48878258162E-01  0.51100000000E-03 0.  1.
         11    1    4    4    0    0 -0.39092950790E-01  0.22785902548E-01  0.66600305725E-01  0.80519053646E-01  0.51100000000E-03 0. -1.
</event>
<event>
 8    1  0.1030163E+005  0.1043930E+01  0.7957747E-01            NaN
         13   -1    0    0    0    0  0.00000000000E+00  0.00000000000E+00  0.74505805969E-08  0.10566000000E+00  0.10566000000E+00 0. -1.
     999900   -1    0    0    0    0 -0.00000000000E+00 -0.00000000000E+00 -0.74505805969E-08  0.93827000000E+00  0.93827000000E+00 0. -1.
     999902    2    1    2    0    0 -0.80944621546E-02 -0.14923630764E-01  0.12207062201E-01  0.10230195375E+01  0.10228058109E+01 0.  0.
     999903    2    3    3    0    0 -0.11476678805E+00  0.60452352707E-01  0.23875700010E-01  0.13330234590E+00  0.19327798173E-01 0.  0.
         14    1    1    2    0    0  0.80944621546E-02  0.14923630764E-01 -0.12207062201E-01  0.20910462461E-01  0.00000000000E+00 0.  1.
     999901    1    3    3    0    0  0.10667232590E+00 -0.75375983471E-01 -0.11668637809E-01  0.88971719164E+00  0.88000000000E+00 0. -1.
        -11    1    4    4    0    0 -0.39997553422E-01  0.25155595332E-01  0.17439611396E-01  0.50368734577E-01  0.51100000000E-03 0.  1.
         11    1    4    4    0    0 -0.74769234633E-01  0.35296757375E-01  0.64360886138E-02  0.82933611319E-01  0.51100000000E-03 0. -1.
</event>
<event>
 8    1  0.1030163E+005  0.1043930E+01  0.7957747E-01            NaN
         13   -1    0    0    0    0  0.00000000000E+00  0.00000000000E+00  0.74505805969E-08  0.10566000000E+00  0.10566000000E+00 0.  1.
     999900   -1    0    0    0    0 -0.00000000000E+00 -0.00000000000E+00 -0.74505805969E-08  0.93827000000E+00  0.93827000000E+00 0.  1.
     999902    2    1    2    0    0  0.14304219083E-01 -0.16641209027E-03  0.20042334941E-01  0.10193061586E+01  0.10190086905E+01 0.  0.
     999903    2    3    3    0    0 -0.51114547770E-01  0.10204990939E+00 -0.53869571702E-01  0.12790795274E+00  0.20775769951E-01 0.  0.
         14    1    1    2    0    0 -0.14304219083E-01  0.16641209027E-03 -0.20042334941E-01  0.24623841424E-01  0.00000000000E+00 0. -1.
     999901    1    3    3    0    0  0.65418766854E-01 -0.10221632148E+00  0.73911906642E-01  0.89139820584E+00  0.88000000000E+00 0. -1.
        -11    1    4    4    0    0 -0.97280082700E-02  0.24654703712E-01 -0.35697730406E-02  0.26748700166E-01  0.51100000000E-03 0. -1.
         11    1    4    4    0    0 -0.41386539500E-01  0.77395205679E-01 -0.50299798661E-01  0.10115925257E+00  0.51100000000E-03 0.  1.
</event>
<event>
 8    1  0.1030163E+005  0.1043930E+01  0.7957747E-01            NaN
         13   -1    0    0    0    0  0.00000000000E+00  0.00000000000E+00  0.74505805969E-08  0.10566000000E+00  0.10566000000E+00 0.  1.
     999900   -1    0    0    0    0 -0.00000000000E+00 -0.00000000000E+00 -0.74505805969E-08  0.93827000000E+00  0.93827000000E+00 0. -1.
     999902    2    1    2    0    0  0.16523956948E-01 -0.11254004588E-01 -0.63514459035E-02  0.10229529974E+01  0.10227378942E+01 0.  0.
     999903    2    3    3    0    0 -0.63664779829E-01  0.26986118905E-01  0.10931857516E+00  0.13094846025E+00  0.20383659186E-01 0.  0.
         14    1    1    2    0    0 -0.16523956948E-01  0.11254004588E-01  0.63514459035E-02  0.20977002587E-01  0.00000000000E+00 0.  1.
     999901    1    3    3    0    0  0.80188736777E-01 -0.38240123492E-01 -0.11567002106E+00  0.89200453717E+00  0.88000000000E+00 0. -1.
        -11    1    4    4    0    0 -0.20387094054E-01  0.80445628843E-02  0.53518001917E-01  0.57834127003E-01  0.51100000000E-03 0. -1.
         11    1    4    4    0    0 -0.43277685775E-01  0.18941556021E-01  0.55800573244E-01  0.73114333245E-01  0.51100000000E-03 0.  1.
</event>
<event>
 8    1  0.1030163E+005  0.1043930E+01  0.7957747E-01            NaN
         13   -1    0    0    0    0  0.00000000000E+00  0.00000000000E+00  0.74505805969E-08  0.10566000000E+00  0.10566000000E+00 0.  1.
     999900   -1    0    0    0    0 -0.00000000000E+00 -0.00000000000E+00 -0.74505805969E-08  0.93827000000E+00  0.93827000000E+00 0. -1.
     999902    2    1    2    0    0 -0.23264273203E-01 -0.32703057769E-02 -0.24128471399E-02  0.10203134139E+01  0.10200400578E+01 0.  0.
     999903    2    3    3    0    0  0.55407832514E-01 -0.10959414680E+00 -0.36902772183E-01  0.12976099303E+00  0.19879532236E-01 0.  0.
         14    1    1    2    0    0  0.23264273203E-01  0.32703057769E-02  0.24128471399E-02  0.23616586097E-01  0.00000000000E+00 0.  1.
     999901    1    3    3    0    0 -0.78672105717E-01  0.10632384102E+00  0.34489925043E-01  0.89055242087E+00  0.88000000000E+00 0. -1.
        -11    1    4    4    0    0  0.22108812766E-01 -0.50122928613E-01 -0.66463049402E-02  0.55186430080E-01  0.51100000000E-03 0. -1.
         11    1    4    4    0    0  0.33299019748E-01 -0.59471218185E-01 -0.30256467243E-01  0.74574562953E-01  0.51100000000E-03 0.  1.
</event>
<event>
 8    1  0.1030163E+005  0.1043930E+01  0.7957747E-01            NaN
         13   -1    0    0    0    0  0.00000000000E+00  0.00000000000E+00  0.74505805969E-08  0.10566000000E+00  0.10566000000E+00 0.  1.
     999900   -1    0    0    0    0 -0.00000000000E+00 -0.00000000000E+00 -0.74505805969E-08  0.93827000000E+00  0.93827000000E+00 0.  1.
     999902    2    1    2    0    0 -0.34480128202E-02 -0.19873616479E-01 -0.89147866628E-02  0.10218772712E+01  0.10216392879E+01 0.  0.
     999903    2    3    3    0    0 -0.88195684006E-01 -0.65441919518E-01 -0.74610227705E-01  0.13419797725E+00  0.19526584755E-01 0.  0.
         14    1    1    2    0    0  0.34480128202E-02  0.19873616479E-01  0.89147866628E-02  0.22052728756E-01  0.00000000000E+00 0. -1.
     999901    1    3    3    0    0  0.84747671186E-01  0.45568303039E-01  0.65695441042E-01  0.88767929399E+00  0.88000000000E+00 0. -1.
        -11    1    4    4    0    0 -0.34751663768E-01 -0.16795691049E-01 -0.33136569716E-01  0.50873045378E-01  0.51100000000E-03 0.  1.
         11    1    4    4    0    0 -0.53444020238E-01 -0.48646228469E-01 -0.41473657988E-01  0.83324931871E-01  0.51100000000E-03 0. -1.
</event>
<event>
 8    1  0.1030163E+005  0.1043930E+01  0.7957747E-01            NaN
         13   -1    0    0    0    0  0.00000000000E+00  0.00000000000E+00  0.74505805969E-08  0.10566000000E+00  0.10566000000E+00 0.  1.
     999900   -1    0    0    0    0 -0.00000000000E+00 -0.00000000000E+00 -0.74505805969E-08  0.93827000000E+00  0.93827000000E+00 0.  1.
     999902    2    1    2    0    0 -0.10634890040E-01 -0.13364664283E-01  0.16145738410E-01  0.10204268086E+01  0.10201561016E+01 0.  0.
     999903    2    3    3    0    0  0.30692013727E-01 -0.12683444259E+00  0.35848414640E-02  0.13209067869E+00  0.20152438383E-01 0.  0.
         14    1    1    2    0    0  0.10634890040E-01  0.13364664283E-01 -0.16145738410E-01  0.23503191408E-01  0.00000000000E+00 0.  1.
     999901    1    3    3    0    0 -0.41326903766E-01  0.11346977831E+00  0.12560896946E-01  0.88833612991E+00  0.88000000000E+00 0.  1.
        -11    1    4    4    0    0  0.18848908611E-01 -0.39898933473E-01  0.43814290182E-02  0.44347088849E-01  0.51100000000E-03 0.  1.
         11    1    4    4    0    0  0.11843105116E-01 -0.86935509120E-01 -0.79658755418E-03  0.87743589837E-01  0.51100000000E-03 0. -1.
</event>
<event>
 7    1  0.1030163E+005  0.1043930E+01  0.7957747E-01            NaN
         13   -1    0    0    0    0  0.00000000000E+00  0.00000000000E+00  0.74505805969E-08  0.10566000000E+00  0.10566000000E+00 0.  1.
     999900   -1    0    0    0    0 -0.00000000000E+00 -0.00000000000E+00 -0.74505805969E-08  0.93827000000E+00  0.93827000000E+00 0.  1.
     999903    2    1    2    0    0  0.38915219052E-01  0.77658013892E-01  0.32103906954E-01  0.94753941650E-01  0.20062084162E-01 0.  0.
         14    1    1    2    0    0  0.24197476301E-01  0.40671876858E-01  0.31333435100E-01  0.56758290863E-01  0.00000000000E+00 0.  1.
     999901    1    1    2    0    0 -0.63112695353E-01 -0.11832989075E+00 -0.63437342055E-01  0.89241776749E+00  0.88000000000E+00 0.  1.
        -11    1    3    3    0    0  0.28508236015E-01  0.70659433042E-01  0.30608435828E-01  0.82113412201E-01  0.51100000000E-03 0.  1.
         11    1    3    3    0    0  0.10406983037E-01  0.69985808505E-02  0.14954711264E-02  0.12640529449E-01  0.51100000000E-03 0. -1.
</event>
<event>
 8    1  0.1158096E+005  0.1043930E+01  0.7957747E-01            NaN
         13   -1    0    0    0    0  0.00000000000E+00  0.00000000000E+00  0.74505805969E-08  0.10566000000E+00  0.10566000000E+00 0.  1.
     999900   -1    0    0    0    0 -0.00000000000E+00 -0.00000000000E+00 -0.74505805969E-08  0.93827000000E+00  0.93827000000E+00 0.  1.
     999902    2    1    2    0    0 -0.17900176272E-02  0.16765068464E-01 -0.17033358048E-01  0.10199632111E+01  0.10196815900E+01 0.  0.
     999903    2    3    3    0    0 -0.20156100214E-01 -0.29203066442E-01 -0.12512638228E+00  0.13196856905E+00  0.22360773903E-01 0.  0.
         14    1    1    2    0    0  0.17900176272E-02 -0.16765068464E-01  0.17033358048E-01  0.23966788898E-01  0.00000000000E+00 0.  1.
     999901    1    3    3    0    0  0.18366082587E-01  0.45968134907E-01  0.10809302424E+00  0.88799464205E+00  0.88000000000E+00 0. -1.
        -11    1    4    4    0    0  0.18403167028E-02 -0.15933001750E-01 -0.54507058635E-01  0.56820136152E-01  0.51100000000E-03 0. -1.
         11    1    4    4    0    0 -0.21996416917E-01 -0.13270064693E-01 -0.70619323648E-01  0.75148432902E-01  0.51100000000E-03 0.  1.
</event>
<event>
 8    1  0.1030163E+005  0.1043930E+01  0.7957747E-01            NaN
         13   -1    0    0    0    0  0.00000000000E+00  0.00000000000E+00  0.74505805969E-08  0.10566000000E+00  0.10566000000E+00 0.  1.
     999900   -1    0    0    0    0 -0.00000000000E+00 -0.00000000000E+00 -0.74505805969E-08  0.93827000000E+00  0.93827000000E+00 0. -1.
     999902    2    1    2    0    0  0.12422988126E-01  0.11636368732E-01  0.15732506264E-01  0.10207514007E+01  0.10204882041E+01 0.  0.
     999903    2    3    3    0    0  0.79236360365E-01  0.10477827857E+00 -0.77260969099E-02  0.13300721001E+00  0.19347787363E-01 0.  0.
         14    1    1    2    0    0 -0.12422988126E-01 -0.11636368732E-01 -0.15732506264E-01  0.23178599280E-01  0.00000000000E+00 0. -1.
     999901    1    3    3    0    0 -0.66813372239E-01 -0.93141909842E-01  0.23458603174E-01  0.88774419071E+00  0.88000000000E+00 0.  1.
        -11    1    4    4    0    0  0.37423853877E-01  0.34300869382E-01 -0.91650401862E-03  0.50775935048E-01  0.51100000000E-03 0.  1.
         11    1    4    4    0    0  0.41812506488E-01  0.70477409192E-01 -0.68095928913E-02  0.82231274960E-01  0.51100000000E-03 0. -1.
</event>
<event>
 8    1  0.1030163E+005  0.1043930E+01  0.7957747E-01            NaN
         13   -1    0    0    0    0  0.00000000000E+00  0.00000000000E+00  0.74505805969E-08  0.10566000000E+00  0.10566000000E+00 0. -1.
     999900   -1    0    0    0    0 -0.00000000000E+00 -0.00000000000E+00 -0.74505805969E-08  0.93827000000E+00  0.93827000000E+00 0.  1.
     999902    2    1    2    0    0  0.10588246316E-02 -0.35758283808E-02 -0.23393413215E-01  0.10202411959E+01  0.10199661457E+01 0.  0.
     999903    2    3    3    0    0  0.45119103817E-01 -0.11687560312E+00  0.29547676304E-01  0.13030810508E+00  0.20285387379E-01 0.  0.
         14    1    1    2    0    0 -0.10588246316E-02  0.35758283808E-02  0.23393413215E-01  0.23688804108E-01  0.00000000000E+00 0. -1.
     999901    1    3    3    0    0 -0.44060279185E-01  0.11329977474E+00 -0.52941089519E-01  0.88993309081E+00  0.88000000000E+00 0.  1.
        -11    1    4    4    0    0  0.36285377263E-01 -0.10425652357E+00  0.31436619969E-01  0.11478054498E+00  0.51100000000E-03 0. -1.
         11    1    4    4    0    0  0.88337265542E-02 -0.12619079550E-01 -0.18889436646E-02  0.15527560101E-01  0.51100000000E-03 0.  1.
</event>
<event>
 8    1  0.1030163E+005  0.1043930E+01  0.7957747E-01            NaN
         13   -1    0    0    0    0  0.00000000000E+00  0.00000000000E+00  0.74505805969E-08  0.10566000000E+00  0.10566000000E+00 0.  1.
     999900   -1    0    0    0    0 -0.00000000000E+00 -0.00000000000E+00 -0.74505805969E-08  0.93827000000E+00  0.93827000000E+00 0. -1.
     999902    2    1    2    0    0 -0.11387568425E-01  0.11565321936E-01 -0.16134617718E-01  0.10210442124E+01  0.10207876980E+01 0.  0.
     999903    2    3    3    0    0 -0.35370898339E-01 -0.10145802108E+00  0.68629009709E-01  0.12945330355E+00  0.22436272751E-01 0.  0.
         14    1    1    2    0    0  0.11387568425E-01 -0.11565321936E-01  0.16134617718E-01  0.22885787620E-01  0.00000000000E+00 0.  1.
     999901    1    3    3    0    0  0.23983329914E-01  0.11302334301E+00 -0.84763627427E-01  0.89159090883E+00  0.88000000000E+00 0. -1.
        -11    1    4    4    0    0 -0.35804625978E-01 -0.78754011246E-01  0.48953568462E-01  0.99402608190E-01  0.51100000000E-03 0.  1.
         11    1    4    4    0    0  0.43372763922E-03 -0.22704009832E-01  0.19675441248E-01  0.30050695357E-01  0.51100000000E-03 0. -1.
</event>
<event>
 8    1  0.1030163E+005  0.1043930E+01  0.7957747E-01            NaN
         13   -1    0    0    0    0  0.00000000000E+00  0.00000000000E+00  0.74505805969E-08  0.10566000000E+00  0.10566000000E+00 0.  1.
     999900   -1    0    0    0    0 -0.00000000000E+00 -0.00000000000E+00 -0.74505805969E-08  0.93827000000E+00  0.93827000000E+00 0. -1.
     999902    2    1    2    0    0  0.17154080722E-01  0.24863698166E-02 -0.16136636538E-01  0.10202480330E+01  0.10199731435E+01 0.  0.
     999903    2    3    3    0    0  0.85064922700E-01 -0.91479412389E-01 -0.39030207855E-01  0.13234850816E+00  0.19703972209E-01 0.  0.
         14    1    1    2    0    0 -0.17154080722E-01 -0.24863698166E-02  0.16136636538E-01  0.23681966959E-01  0.00000000000E+00 0.  1.
     999901    1    3    3    0    0 -0.67910841978E-01  0.93965782206E-01  0.22893571316E-01  0.88789952489E+00  0.88000000000E+00 0.  1.
        -11    1    4    4    0    0  0.40296364929E-01 -0.52479800868E-01 -0.28507890408E-01  0.72047813723E-01  0.51100000000E-03 0. -1.
         11    1    4    4    0    0  0.44768557771E-01 -0.38999611521E-01 -0.10522317447E-01  0.60300694433E-01  0.51100000000E-03 0.  1.
</event>
<event>
 8    1  0.1030163E+005  0.1043930E+01  0.7957747E-01            NaN
         13   -1    0    0    0    0  0.00000000000E+00  0.00000000000E+00  0.74505805969E-08  0.10566000000E+00  0.10566000000E+00 0.  1.
     999900   -1    0    0    0    0 -0.00000000000E+00 -0.00000000000E+00 -0.74505805969E-08  0.93827000000E+00  0.93827000000E+00 0.  1.
     999902    2    1    2    0    0  0.16819076519E-01  0.16117883992E-01  0.27949580352E-02  0.10204677045E+01  0.10201979497E+01 0.  0.
     999903    2    3    3    0    0 -0.48768859037E-01 -0.84776323701E-01 -0.80612057542E-01  0.12837009287E+00  0.20375236229E-01 0.  0.
         14    1    1    2    0    0 -0.16819076519E-01 -0.16117883992E-01 -0.27949580352E-02  0.23462295492E-01  0.00000000000E+00 0. -1.
     999901    1    3    3    0    0  0.65587935556E-01  0.10089420769E+00  0.83407015577E-01  0.89209761163E+00  0.88000000000E+00 0. -1.
        -11    1    4    4    0    0 -0.35965680689E-01 -0.42253323660E-01 -0.44448778437E-01  0.71097317624E-01  0.51100000000E-03 0. -1.
         11    1    4    4    0    0 -0.12803178348E-01 -0.42523000041E-01 -0.36163279105E-01  0.57272775250E-01  0.51100000000E-03 0.  1.
</event>
<event>
 8    1  0.1030163E+005  0.1043930E+01  0.7957747E-01            NaN
         13   -1    0    0    0    0  0.00000000000E+00  0.00000000000E+00  0.74505805969E-08  0.10566000000E+00  0.10566000000E+00 0.  1.
     999900   -1    0    0    0    0 -0.00000000000E+00 -0.00000000000E+00 -0.74505805969E-08  0.93827000000E+00  0.93827000000E+00 0. -1.
     999902    2    1    2    0    0 -0.25041903707E-01  0.27319901340E-03  0.77892193605E-02  0.10177032290E+01  0.10173652337E+01 0.  0.
     999903    2    3    3    0    0 -0.67312403208E-01  0.10940918772E+00  0.60679406844E-02  0.12995302654E+00  0.18698642197E-01 0.  0.
         14    1    1    2    0    0  0.25041903707E-01 -0.27319901340E-03 -0.77892193605E-02  0.26226771003E-01  0.00000000000E+00 0. -1.
     999901    1    3    3    0    0  0.42270499501E-01 -0.10913598871E+00  0.17212786761E-02  0.88775020246E+00  0.88000000000E+00 0. -1.
        -11    1    4    4    0    0 -0.47359784286E-01  0.59437699487E-01  0.33094892246E-02  0.76072354557E-01  0.51100000000E-03 0. -1.
         11    1    4    4    0    0 -0.19952618922E-01  0.49971488233E-01  0.27584514598E-02  0.53880671985E-01  0.51100000000E-03 0.  1.
</event>
<event>
 8    1  0.1030163E+005  0.1043930E+01  0.7957747E-01            NaN
         13   -1    0    0    0    0  0.00000000000E+00  0.00000000000E+00  0.74505805969E-08  0.10566000000E+00  0.10566000000E+00 0. -1.
     999900   -1    0    0    0    0 -0.00000000000E+00 -0.00000000000E+00 -0.74505805969E-08  0.93827000000E+00  0.93827000000E+00 0. -1.
     999902    2    1    2    0    0  0.54050661881E-02  0.22365406105E-01  0.11329451977E-01  0.10182827270E+01  0.10179596895E+01 0.  0.
     999903    2    3    3    0    0 -0.95445296802E-01 -0.51125443099E-01  0.65010491435E-01  0.12785959464E+00  0.19952351505E-01 0.  0.
         14    1    1    2    0    0 -0.54050661881E-02 -0.22365406105E-01 -0.11329451977E-01  0.25647273010E-01  0.00000000000E+00 0.  1.
     999901    1    3    3    0    0  0.10085036299E+00  0.73490849204E-01 -0.53681039458E-01  0.89042313235E+00  0.88000000000E+00 0. -1.
        -11    1    4    4    0    0 -0.30178335735E-01 -0.26007602305E-01  0.18951685681E-01  0.44119778292E-01  0.51100000000E-03 0. -1.
         11    1    4    4    0    0 -0.65266961067E-01 -0.25117840793E-01  0.46058805754E-01  0.83739816345E-01  0.51100000000E-03 0.  1.
</event>
<event>
 8    1  0.1030163E+005  0.1043930E+01  0.7957747E-01            NaN
         13   -1    0    0    0    0  0.00000000000E+00  0.00000000000E+00  0.74505805969E-08  0.10566000000E+00  0.10566000000E+00 0. -1.
     999900   -1    0    0    0    0 -0.00000000000E+00 -0.00000000000E+00 -0.74505805969E-08  0.93827000000E+00  0.93827000000E+00 0. -1.
     999902    2    1    2    0    0  0.17639375594E-01 -0.84119729744E-02 -0.14705485766E-01  0.10194726867E+01  0.10191792771E+01 0.  0.
     999903    2    3    3    0    0  0.77253366329E-02  0.12187613053E+00  0.34411005030E-01  0.12847004490E+00  0.20173327672E-01 0.  0.
         14    1    1    2    0    0 -0.17639375594E-01  0.84119729744E-02  0.14705485766E-01  0.24457313268E-01  0.00000000000E+00 0. -1.
     999901    1    3    3    0    0  0.99140389607E-02 -0.13028810351E+00 -0.49116490796E-01  0.89100264183E+00  0.88000000000E+00 0.  1.
        -11    1    4    4    0    0  0.14066059401E-01  0.64014964522E-01  0.17020447298E-01  0.67717992122E-01  0.51100000000E-03 0. -1.
         11    1    4    4    0    0 -0.63407227676E-02  0.57861166012E-01  0.17390557732E-01  0.60752052777E-01  0.51100000000E-03 0.  1.
</event>
<event>
 8    1  0.1030163E+005  0.1043930E+01  0.7957747E-01            NaN
         13   -1    0    0    0    0  0.00000000000E+00  0.00000000000E+00  0.74505805969E-08  0.10566000000E+00  0.10566000000E+00 0.  1.
     999900   -1    0    0    0    0 -0.00000000000E+00 -0.00000000000E+00 -0.74505805969E-08  0.93827000000E+00  0.93827000000E+00 0. -1.
     999902    2    1    2    0    0 -0.91591871924E-02  0.75204383183E-02  0.20217161675E-01  0.10204953818E+01  0.10202262705E+01 0.  0.
     999903    2    3    3    0    0 -0.36648877761E-01  0.40327124759E-01  0.12045787120E+00  0.13377098180E+00  0.20375465804E-01 0.  0.
         14    1    1    2    0    0  0.91591871924E-02 -0.75204383183E-02 -0.20217161675E-01  0.23434618169E-01  0.00000000000E+00 0. -1.
     999901    1    3    3    0    0  0.27489690568E-01 -0.32806686441E-01 -0.10024070952E+00  0.88672440003E+00  0.88000000000E+00 0. -1.
        -11    1    4    4    0    0 -0.13003880442E-01  0.21377149994E-02  0.24685761539E-01  0.27987830851E-01  0.51100000000E-03 0.  1.
         11    1    4    4    0    0 -0.23644997318E-01  0.38189409760E-01  0.95772109657E-01  0.10578315095E+00  0.51100000000E-03 0. -1.
</event>
<event>
 8    1  0.1030163E+005  0.1043930E+01  0.7957747E-01            NaN
         13   -1    0    0    0    0  0.00000000000E+00  0.00000000000E+00  0.74505805969E-08  0.10566000000E+00  0.10566000000E+00 0. -1.
     999900   -1    0    0    0    0 -0.00000000000E+00 -0.00000000000E+00 -0.74505805969E-08  0.93827000000E+00  0.93827000000E+00 0.  1.
     999902    2    1    2    0    0 -0.11362655300E-01  0.13860531013E-01  0.16037631807E-01  0.10198794306E+01  0.10195958136E+01 0.  0.
     999903    2    3    3    0    0 -0.12999311048E+00 -0.49703526560E-02  0.15458559625E-02  0.13160143432E+00  0.19840228490E-01 0.  0.
         14    1    1    2    0    0  0.11362655300E-01 -0.13860531013E-01 -0.16037631807E-01  0.24050569420E-01  0.00000000000E+00 0.  1.
     999901    1    3    3    0    0  0.11863045518E+00  0.18830883669E-01  0.14491775845E-01  0.88827799626E+00  0.88000000000E+00 0.  1.
        -11    1    4    4    0    0 -0.80729478884E-01 -0.12508266873E-01 -0.94184445175E-03  0.81699777803E-01  0.51100000000E-03 0.  1.
         11    1    4    4    0    0 -0.49263631595E-01  0.75379142171E-02  0.24877004143E-02  0.49901656516E-01  0.51100000000E-03 0. -1.
</event>
<event>
 8    1  0.1030163E+005  0.1043930E+01  0.7957747E-01            NaN
         13   -1    0    0    0    0  0.00000000000E+00  0.00000000000E+00  0.74505805969E-08  0.10566000000E+00  0.10566000000E+00 0. -1.
     999900   -1    0    0    0    0 -0.00000000000E+00 -0.00000000000E+00 -0.74505805969E-08  0.93827000000E+00  0.93827000000E+00 0. -1.
     999902    2    1    2    0    0 -0.24630547642E-01 -0.35582005544E-02 -0.38522593821E-02  0.10187473756E+01  0.10184360808E+01 0.  0.
     999903    2    3    3    0    0 -0.52570420446E-01  0.62461980625E-01  0.99038477856E-01  0.12985716607E+00  0.19726007084E-01 0.  0.
         14    1    1    2    0    0  0.24630547642E-01  0.35582005544E-02  0.38522593821E-02  0.25182624381E-01  0.00000000000E+00 0.  1.
     999901    1    3    3    0    0  0.27939872803E-01 -0.66020181179E-01 -0.10289073724E+00  0.88889020954E+00  0.88000000000E+00 0. -1.
        -11    1    4    4    0    0 -0.33822877690E-01  0.35279645034E-01  0.72764832478E-01  0.87656274022E-01  0.51100000000E-03 0.  1.
         11    1    4    4    0    0 -0.18747542755E-01  0.27182335591E-01  0.26273645378E-01  0.42200892052E-01  0.51100000000E-03 0. -1.
</event>
<event>
 8    1  0.1030163E+005  0.1043930E+01  0.7957747E-01            NaN
         13   -1    0    0    0    0  0.00000000000E+00  0.00000000000E+00  0.74505805969E-08  0.10566000000E+00  0.10566000000E+00 0. -1.
     999900   -1    0    0    0    0 -0.00000000000E+00 -0.00000000000E+00 -0.74505805969E-08  0.93827000000E+00  0.93827000000E+00 0. -1.
     999902    2    1    2    0    0  0.21938765084E-01 -0.73032241382E-02  0.99865316079E-03  0.10207860201E+01  0.10205236181E+01 0.  0.
     999903    2    3    3    0    0  0.11227352983E+00 -0.96509048991E-02 -0.68348889365E-01  0.13344450584E+00  0.20913631819E-01 0.  0.
         14    1    1    2    0    0 -0.21938765084E-01  0.73032241382E-02 -0.99865316079E-03  0.23143979873E-01  0.00000000000E+00 0.  1.
     999901    1    3    3    0    0 -0.90334764743E-01  0.23476807608E-02  0.69347542526E-01  0.88734151429E+00  0.88000000000E+00 0.  1.
        -11    1    4    4    0    0  0.75292135912E-01 -0.36537963391E-02 -0.56302306442E-01  0.94087548536E-01  0.51100000000E-03 0. -1.
         11    1    4    4    0    0  0.36981393915E-01 -0.59971085600E-02 -0.12046582924E-01  0.39356957303E-01  0.51100000000E-03 0.  1.
</event>
<event>
 8    1  0.1030163E+005  0.1043930E+01  0.7957747E-01            NaN
         13   -1    0    0    0    0  0.00000000000E+00  0.00000000000E+00  0.74505805969E-08  0.10566000000E+00  0.10566000000E+00 0. -1.
     999900   -1    0    0    0    0 -0.00000000000E+00 -0.00000000000E+00 -0.74505805969E-08  0.93827000000E+00  0.93827000000E+00 0.  1.
     999902    2    1    2    0    0 -0.94405110933E-02 -0.12498226739E-01 -0.17637382906E-01  0.10203417360E+01  0.10200690428E+01 0.  0.
     999903    2    3    3    0    0 -0.76770217209E-01  0.10015694631E+00 -0.26808523912E-01  0.13056165805E+00  0.20064133535E-01 0.  0.
         14    1    1    2    0    0  0.94405110933E-02  0.12498226739E-01  0.17637382906E-01  0.23588263969E-01  0.00000000000E+00 0.  1.
     999901    1    3    3    0    0  0.67329706116E-01 -0.11265517305E+00  0.91711410064E-02  0.88978007798E+00  0.88000000000E+00 0.  1.
        -11    1    4    4    0    0 -0.60508745520E-02  0.19578799740E-01 -0.58911398583E-02  0.21328598921E-01  0.51100000000E-03 0. -1.
         11    1    4    4    0    0 -0.70719342657E-01  0.80578146570E-01 -0.20917384054E-01  0.10923305913E+00  0.51100000000E-03 0.  1.
</event>
<event>
 8    1  0.1030163E+005  0.1043930E+01  0.7957747E-01            NaN
         13   -1    0    0    0    0  0.00000000000E+00  0.00000000000E+00  0.74505805969E-08  0.10566000000E+00  0.10566000000E+00 0.  1.
     999900   -1    0    0    0    0 -0.00000000000E+00 -0.00000000000E+00 -0.74505805969E-08  0.93827000000E+00  0.93827000000E+00 0. -1.
     999902    2    1    2    0    0  0.71422921975E-02  0.15600088807E-01 -0.14002225873E-01  0.10217841779E+01  0.10215441590E+01 0.  0.
     999903    2    3    3    0    0 -0.10663705258E+00 -0.48129951261E-01  0.52104478612E-01  0.12972064107E+00  0.20606184418E-01 0.  0.
         14    1    1    2    0    0 -0.71422921975E-02 -0.15600088807E-01  0.14002225873E-01  0.22145822135E-01  0.00000000000E+00 0. -1.
     999901    1    3    3    0    0  0.11377934478E+00  0.63730040068E-01 -0.66106704485E-01  0.89206353680E+00  0.88000000000E+00 0.  1.
        -11    1    4    4    0    0 -0.87487891121E-01 -0.46903299226E-01  0.39982677730E-01  0.10701834521E+00  0.51100000000E-03 0.  1.
         11    1    4    4    0    0 -0.19149161459E-01 -0.12266520354E-02  0.12121800882E-01  0.22702295863E-01  0.51100000000E-03 0. -1.
</event>
<event>
 8    1  0.1030163E+005  0.1043930E+01  0.7957747E-01            NaN
         13   -1    0    0    0    0  0.00000000000E+00  0.00000000000E+00  0.74505805969E-08  0.10566000000E+00  0.10566000000E+00 0. -1.
     999900   -1    0    0    0    0 -0.00000000000E+00 -0.00000000000E+00 -0.74505805969E-08  0.93827000000E+00  0.93827000000E+00 0. -1.
     999902    2    1    2    0    0  0.15078837322E-01 -0.74845733484E-02  0.17516151719E-01  0.10196358496E+01  0.10193463886E+01 0.  0.
     999903    2    3    3    0    0 -0.12403509162E-01  0.10173582364E+00  0.77849249183E-01  0.13040896227E+00  0.21023010931E-01 0.  0.
         14    1    1    2    0    0 -0.15078837322E-01  0.74845733484E-02 -0.17516151719E-01  0.24294150412E-01  0.00000000000E+00 0.  1.
     999901    1    3    3    0    0  0.27482346484E-01 -0.10922039699E+00 -0.60333097465E-01  0.88922688732E+00  0.88000000000E+00 0. -1.
        -11    1    4    4    0    0 -0.15762796884E-01  0.71389115614E-01  0.46498291781E-01  0.86644237277E-01  0.51100000000E-03 0.  1.
         11    1    4    4    0    0  0.33592877224E-02  0.30346708031E-01  0.31350957402E-01  0.43764724989E-01  0.51100000000E-03 0. -1.
</event>
<event>
 8    1  0.1030163E+005  0.1043930E+01  0.7957747E-01            NaN
         13   -1    0    0    0    0  0.00000000000E+00  0.00000000000E+00  0.74505805969E-08  0.10566000000E+00  0.10566000000E+00 0.  1.
     999900   -1    0    0    0    0 -0.00000000000E+00 -0.00000000000E+00 -0.74505805969E-08  0.93827000000E+00  0.93827000000E+00 0. -1.
     999902    2    1    2    0    0 -0.17597765732E-01 -0.14599604333E-01  0.56683027138E-02  0.10203724224E+01  0.10201004465E+01 0.  0.
     999903    2    3    3    0    0 -0.92041186140E-01 -0.94793254925E-01  0.66435400828E-02  0.13359522633E+00  0.18606631804E-01 0.  0.
         14    1    1    2    0    0  0.17597765732E-01  0.14599604333E-01 -0.56683027138E-02  0.23557577572E-01  0.00000000000E+00 0. -1.
     999901    1    3    3    0    0  0.74443420408E-01  0.80193650592E-01 -0.97523736901E-03  0.88677719610E+00  0.88000000000E+00 0. -1.
        -11    1    4    4    0    0 -0.35219600747E-01 -0.48267108769E-01  0.69298744950E-02  0.60153290410E-01  0.51100000000E-03 0. -1.
         11    1    4    4    0    0 -0.56821585393E-01 -0.46526146156E-01 -0.28633441212E-03  0.73441935916E-01  0.51100000000E-03 0.  1.
</event>
<event>
 8    1  0.1030163E+005  0.1043930E+01  0.7957747E-01            NaN
         13   -1    0    0    0    0  0.00000000000E+00  0.00000000000E+00  0.74505805969E-08  0.10566000000E+00  0.10566000000E+00 0.  1.
     999900   -1    0    0    0    0 -0.00000000000E+00 -0.00000000000E+00 -0.74505805969E-08  0.93827000000E+00  0.93827000000E+00 0. -1.
     999902    2    1    2    0    0  0.76278155969E-02  0.20856042533E-02  0.22983409492E-01  0.10196242306E+01  0.10193344893E+01 0.  0.
     999903    2    3    3    0    0 -0.54829457422E-01  0.10139380932E+00 -0.53175208888E-01  0.12857812306E+00  0.20439102702E-01 0.  0.
         14    1    1    2    0    0 -0.76278155969E-02 -0.20856042533E-02 -0.22983409492E-01  0.24305769433E-01  0.00000000000E+00 0. -1.
     999901    1    3    3    0    0  0.62457273019E-01 -0.99308205070E-01  0.76158618380E-01  0.89104610751E+00  0.88000000000E+00 0.  1.
        -11    1    4    4    0    0 -0.63702061738E-02  0.10133159714E-01 -0.13092240452E-01  0.17746220261E-01  0.51100000000E-03 0. -1.
         11    1    4    4    0    0 -0.48459251248E-01  0.91260649609E-01 -0.40082968436E-01  0.11083190280E+00  0.51100000000E-03 0.  1.
</event>
<event>
 8    1  0.1030163E+005  0.1043930E+01  0.7957747E-01            NaN
         13   -1    0    0    0    0  0.00000000000E+00  0.00000000000E+00  0.74505805969E-08  0.10566000000E+00  0.10566000000E+00 0.  1.
     999900   -1    0    0    0    0 -0.00000000000E+00 -0.00000000000E+00 -0.74505805969E-08  0.93827000000E+00  0.93827000000E+00 0.  1.
     999902    2    1    2    0    0 -0.11563035757E-01  0.10810615418E-01  0.18142626544E-01  0.10198524565E+01  0.10195681954E+01 0.  0.
     999903    2    3    3    0    0  0.24373243955E-01 -0.67473024555E-01 -0.10334920205E+00  0.12733914632E+00  0.19685948261E-01 0.  0.
         14    1    1    2    0    0  0.11563035757E-01 -0.10810615418E-01 -0.18142626544E-01  0.24077543470E-01  0.00000000000E+00 0. -1.
     999901    1    3    3    0    0 -0.35936279712E-01  0.78283639973E-01  0.12149182859E+00  0.89251331021E+00  0.88000000000E+00 0.  1.
        -11    1    4    4    0    0  0.14833828014E-01 -0.15792745367E-01 -0.34108034955E-01  0.40411290864E-01  0.51100000000E-03 0.  1.
         11    1    4    4    0    0  0.95394159419E-02 -0.51680279188E-01 -0.69241167090E-01  0.86927855457E-01  0.51100000000E-03 0. -1.
</event>
<event>
 8    1  0.1030163E+005  0.1043930E+01  0.7957747E-01            NaN
         13   -1    0    0    0    0  0.00000000000E+00  0.00000000000E+00  0.74505805969E-08  0.10566000000E+00  0.10566000000E+00 0. -1.
     999900   -1    0    0    0    0 -0.00000000000E+00 -0.00000000000E+00 -0.74505805969E-08  0.93827000000E+00  0.93827000000E+00 0.  1.
     999902    2    1    2    0    0  0.23741283101E-01  0.29103208098E-02 -0.56893558582E-02  0.10193436774E+01  0.10190471262E+01 0.  0.
     999903    2    3    3    0    0  0.55570899792E-01 -0.47403099851E-02 -0.11787984271E+00  0.13161716431E+00  0.17799583744E-01 0.  0.
         14    1    1    2    0    0 -0.23741283101E-01 -0.29103208098E-02  0.56893558582E-02  0.24586322633E-01  0.00000000000E+00 0. -1.
     999901    1    3    3    0    0 -0.31829616690E-01  0.76506307949E-02  0.11219048685E+00  0.88772651306E+00  0.88000000000E+00 0. -1.
        -11    1    4    4    0    0  0.13848615157E-01  0.42540842000E-02 -0.43601288037E-01  0.45947957665E-01  0.51100000000E-03 0. -1.
         11    1    4    4    0    0  0.41722284635E-01 -0.89943941851E-02 -0.74278554669E-01  0.85669206642E-01  0.51100000000E-03 0.  1.
</event>
<event>
 8    1  0.1030163E+005  0.1043930E+01  0.7957747E-01            NaN
         13   -1    0    0    0    0  0.00000000000E+00  0.00000000000E+00  0.74505805969E-08  0.10566000000E+00  0.10566000000E+00 0.  1.
     999900   -1    0    0    0    0 -0.00000000000E+00 -0.00000000000E+00 -0.74505805969E-08  0.93827000000E+00  0.93827000000E+00 0.  1.
     999902    2    1    2    0    0  0.14704741069E-01 -0.19824216981E-02 -0.10049548997E-01  0.10260092623E+01  0.10258527445E+01 0.  0.
     999903    2    3    3    0    0  0.49054357815E-01 -0.10515341961E+00  0.68043535041E-01  0.13588416951E+00  0.19261702595E-01 0.  0.
         14    1    1    2    0    0 -0.14704741069E-01  0.19824216981E-02  0.10049548997E-01  0.17920737728E-01  0.00000000000E+00 0.  1.
     999901    1    3    3    0    0 -0.34349616746E-01  0.10317099792E+00 -0.78093084038E-01  0.89012509276E+00  0.88000000000E+00 0.  1.
        -11    1    4    4    0    0  0.24172140374E-01 -0.32277141956E-01  0.27917454729E-01  0.49048462388E-01  0.51100000000E-03 0. -1.
         11    1    4    4    0    0  0.24882217440E-01 -0.72876277657E-01  0.40126080313E-01  0.86835707127E-01  0.51100000000E-03 0.  1.
</event>
<event>
 8    1  0.1030163E+005  0.1043930E+01  0.7957747E-01            NaN
         13   -1    0    0    0    0  0.00000000000E+00  0.00000000000E+00  0.74505805969E-08  0.10566000000E+00  0.10566000000E+00 0.  1.
     999900   -1    0    0    0    0 -0.00000000000E+00 -0.00000000000E+00 -0.74505805969E-08  0.93827000000E+00  0.93827000000E+00 0. -1.
     999902    2    1    2    0    0 -0.19707586984E-01  0.10670269809E-01  0.28195617137E-02  0.10213425351E+01  0.10210927384E+01 0.  0.
     999903    2    3    3    0    0  0.10898861619E+00  0.66753612304E-01 -0.13126866839E-01  0.13007246234E+00  0.20296985267E-01 0.  0.
         14    1    1    2    0    0  0.19707586984E-01 -0.10670269809E-01 -0.28195617137E-02  0.22587464903E-01  0.00000000000E+00 0. -1.
     999901    1    3    3    0    0 -0.12869620317E+00 -0.56083342495E-01  0.15946428553E-01  0.89127007276E+00  0.88000000000E+00 0. -1.
        -11    1    4    4    0    0  0.74984893453E-01  0.35527331855E-01 -0.44597282801E-02  0.83096786052E-01  0.51100000000E-03 0.  1.
         11    1    4    4    0    0  0.34003722735E-01  0.31226280448E-01 -0.86671385592E-02  0.46975676283E-01  0.51100000000E-03 0. -1.
</event>
<event>
 8    1  0.1030163E+005  0.1043930E+01  0.7957747E-01            NaN
         13   -1    0    0    0    0  0.00000000000E+00  0.00000000000E+00  0.74505805969E-08  0.10566000000E+00  0.10566000000E+00 0.  1.
     999900   -1    0    0    0    0 -0.00000000000E+00 -0.00000000000E+00 -0.74505805969E-08  0.93827000000E+00  0.93827000000E+00 0.  1.
     999902    2    1    2    0    0  0.60946494336E-03 -0.22183078466E-01 -0.83730342038E-02  0.10202114815E+01  0.10199357327E+01 0.  0.
     999903    2    3    3    0    0 -0.90875681841E-01 -0.51447158755E-01 -0.78214049458E-01  0.13223418118E+00  0.21523044548E-01 0.  0.
         14    1    1    2    0    0 -0.60946494336E-03  0.22183078466E-01  0.83730342038E-02  0.23718518494E-01  0.00000000000E+00 0.  1.
     999901    1    3    3    0    0  0.91485146784E-01  0.29264080289E-01  0.69841015254E-01  0.88797730032E+00  0.88000000000E+00 0. -1.
        -11    1    4    4    0    0 -0.35470071539E-01 -0.28896570056E-01 -0.24831413490E-01  0.52057640678E-01  0.51100000000E-03 0. -1.
         11    1    4    4    0    0 -0.55405610302E-01 -0.22550588699E-01 -0.53382635968E-01  0.80176540506E-01  0.51100000000E-03 0.  1.
</event>
<event>
 8    1  0.1030163E+005  0.1043930E+01  0.7957747E-01            NaN
         13   -1    0    0    0    0  0.00000000000E+00  0.00000000000E+00  0.74505805969E-08  0.10566000000E+00  0.10566000000E+00 0. -1.
     999900   -1    0    0    0    0 -0.00000000000E+00 -0.00000000000E+00 -0.74505805969E-08  0.93827000000E+00  0.93827000000E+00 0.  1.
     999902    2    1    2    0    0  0.10758186942E-01  0.93682595194E-02 -0.18407603240E-01  0.10206417470E+01  0.10203760252E+01 0.  0.
     999903    2    3    3    0    0 -0.37347951265E-01 -0.15519333456E-01 -0.12470643402E+00  0.13259161648E+00  0.19827327109E-01 0.  0.
         14    1    1    2    0    0 -0.10758186942E-01 -0.93682595194E-02  0.18407603240E-01  0.23288253042E-01  0.00000000000E+00 0. -1.
     999901    1    3    3    0    0  0.48106138207E-01  0.24887592975E-01  0.10629883078E+00  0.88805013048E+00  0.88000000000E+00 0. -1.
        -11    1    4    4    0    0 -0.25943471007E-01 -0.38040719673E-02 -0.54186919459E-01  0.60199817382E-01  0.51100000000E-03 0.  1.
         11    1    4    4    0    0 -0.11404480257E-01 -0.11715261489E-01 -0.70519514561E-01  0.72391799098E-01  0.51100000000E-03 0. -1.
</event>
<event>
 8    1  0.1030163E+005  0.1043930E+01  0.7957747E-01            NaN
         13   -1    0    0    0    0  0.00000000000E+00  0.00000000000E+00  0.74505805969E-08  0.10566000000E+00  0.10566000000E+00 0. -1.
     999900   -1    0    0    0    0 -0.00000000000E+00 -0.00000000000E+00 -0.74505805969E-08  0.93827000000E+00  0.93827000000E+00 0. -1.
     999902    2    1    2    0    0 -0.17913819141E-01  0.11115913937E-01  0.81445336726E-02  0.10213290733E+01  0.10210789754E+01 0.  0.
     999903    2    3    3    0    0  0.97395293046E-01 -0.14772202642E-01  0.82954711521E-01  0.13028308760E+00  0.19701209899E-01 0.  0.
         14    1    1    2    0    0  0.17913819141E-01 -0.11115913937E-01 -0.81445336726E-02  0.22600926698E-01  0.00000000000E+00 0. -1.
     999901    1    3    3    0    0 -0.11530911219E+00  0.25888116579E-01 -0.74810177848E-01  0.89104598571E+00  0.88000000000E+00 0. -1.
        -11    1    4    4    0    0  0.62582680438E-01 -0.56479633633E-03  0.47150340259E-01  0.78360236046E-01  0.51100000000E-03 0.  1.
         11    1    4    4    0    0  0.34812612609E-01 -0.14207406306E-01  0.35804371262E-01  0.51922851550E-01  0.51100000000E-03 0. -1.
</event>
<event>
 8    1  0.1030163E+005  0.1043930E+01  0.7957747E-01            NaN
         13   -1    0    0    0    0  0.00000000000E+00  0.00000000000E+00  0.74505805969E-08  0.10566000000E+00  0.10566000000E+00 0. -1.
     999900   -1    0    0    0    0 -0.00000000000E+00 -0.00000000000E+00 -0.74505805969E-08  0.93827000000E+00  0.93827000000E+00 0.  1.
     999902    2    1    2    0    0  0.12729508346E-01 -0.21297054186E-01  0.11245727594E-01  0.10166890145E+01  0.10163240039E+01 0.  0.
     999903    2    3    3    0    0  0.75868102172E-01 -0.95395049594E-01 -0.39960248242E-01  0.12984119957E+00  0.20142771708E-01 0.  0.
         14    1    1    2    0    0 -0.12729508346E-01  0.21297054186E-01 -0.11245727594E-01  0.27240985460E-01  0.00000000000E+00 0. -1.
     999901    1    3    3    0    0 -0.63138593826E-01  0.74097995408E-01  0.51205975836E-01  0.88684781497E+00  0.88000000000E+00 0. -1.
        -11    1    4    4    0    0  0.61697204311E-01 -0.76129073375E-01 -0.23401804317E-01  0.10074763719E+00  0.51100000000E-03 0. -1.
         11    1    4    4    0    0  0.14170897861E-01 -0.19265976219E-01 -0.16558443925E-01  0.29093562383E-01  0.51100000000E-03 0.  1.
</event>
<event>
 8    1  0.1030163E+005  0.1043930E+01  0.7957747E-01            NaN
         13   -1    0    0    0    0  0.00000000000E+00  0.00000000000E+00  0.74505805969E-08  0.10566000000E+00  0.10566000000E+00 0. -1.
     999900   -1    0    0    0    0 -0.00000000000E+00 -0.00000000000E+00 -0.74505805969E-08  0.93827000000E+00  0.93827000000E+00 0. -1.
     999902    2    1    2    0    0 -0.90641025621E-02  0.71523566007E-02  0.20697076470E-01  0.10202301448E+01  0.10199548349E+01 0.  0.
     999903    2    3    3    0    0  0.20855635041E-01 -0.77646195627E-01 -0.97107950732E-01  0.12783784905E+00  0.21181887194E-01 0.  0.
         14    1    1    2    0    0  0.90641025621E-02 -0.71523566007E-02 -0.20697076470E-01  0.23699855160E-01  0.00000000000E+00 0.  1.
     999901    1    3    3    0    0 -0.29919737603E-01  0.84798552227E-01  0.11780502720E+00  0.89239229579E+00  0.88000000000E+00 0. -1.
        -11    1    4    4    0    0  0.46330377134E-02 -0.54777173548E-01 -0.67552056957E-01  0.87095036027E-01  0.51100000000E-03 0.  1.
         11    1    4    4    0    0  0.16222597328E-01 -0.22869022078E-01 -0.29555893775E-01  0.40742813019E-01  0.51100000000E-03 0. -1.
</event>
<event>
 8    1  0.1030163E+005  0.1043930E+01  0.7957747E-01            NaN
         13   -1    0    0    0    0  0.00000000000E+00  0.00000000000E+00  0.74505805969E-08  0.10566000000E+00  0.10566000000E+00 0. -1.
     999900   -1    0    0    0    0 -0.00000000000E+00 -0.00000000000E+00 -0.74505805969E-08  0.93827000000E+00  0.93827000000E+00 0. -1.
     999902    2    1    2    0    0  0.32928823926E-01  0.43202534612E-03  0.97095523591E-02  0.10095967872E+01  0.10090128361E+01 0.  0.
     999903    2    3    3    0    0  0.16146611984E-01 -0.51245929177E-01  0.10806834943E+00  0.12245153049E+00  0.20706299383E-01 0.  0.
         14    1    1    2    0    0 -0.32928823926E-01 -0.43202534612E-03 -0.97095523591E-02  0.34333212755E-01  0.00000000000E+00 0.  1.
     999901    1    3    3    0    0  0.16782211942E-01  0.51677954523E-01 -0.98358797075E-01  0.88714525676E+00  0.88000000000E+00 0. -1.
        -11    1    4    4    0    0  0.18235155083E-01 -0.25212278433E-01  0.65307471858E-01  0.72342980766E-01  0.51100000000E-03 0.  1.
         11    1    4    4    0    0 -0.20885430984E-02 -0.26033650744E-01  0.42760877576E-01  0.50108549724E-01  0.51100000000E-03 0. -1.
</event>
<event>
 8    1  0.1030163E+005  0.1043930E+01  0.7957747E-01            NaN
         13   -1    0    0    0    0  0.00000000000E+00  0.00000000000E+00  0.74505805969E-08  0.10566000000E+00  0.10566000000E+00 0. -1.
     999900   -1    0    0    0    0 -0.00000000000E+00 -0.00000000000E+00 -0.74505805969E-08  0.93827000000E+00  0.93827000000E+00 0. -1.
     999902    2    1    2    0    0 -0.18365097436E-01 -0.85471046244E-02 -0.29157871775E-02  0.10234646240E+01  0.10232599889E+01 0.  0.
     999903    2    3    3    0    0 -0.27740466340E-01  0.66457324059E-01  0.11014620569E+00  0.13301722176E+00  0.19372280781E-01 0.  0.
         14    1    1    2    0    0  0.18365097436E-01  0.85471046244E-02  0.29157871775E-02  0.20465376033E-01  0.00000000000E+00 0.  1.
     999901    1    3    3    0    0  0.93753689041E-02 -0.75004428683E-01 -0.11306199287E+00  0.89044740221E+00  0.88000000000E+00 0. -1.
        -11    1    4    4    0    0 -0.65498328365E-02  0.67982354167E-02  0.26330978797E-01  0.27976738201E-01  0.51100000000E-03 0.  1.
         11    1    4    4    0    0 -0.21190633504E-01  0.59659088642E-01  0.83815226896E-01  0.10504048356E+00  0.51100000000E-03 0. -1.
</event>
<event>
 8    1  0.1030163E+005  0.1043930E+01  0.7957747E-01            NaN
         13   -1    0    0    0    0  0.00000000000E+00  0.00000000000E+00  0.74505805969E-08  0.10566000000E+00  0.10566000000E+00 0.  1.
     999900   -1    0    0    0    0 -0.00000000000E+00 -0.00000000000E+00 -0.74505805969E-08  0.93827000000E+00  0.93827000000E+00 0. -1.
     999902    2    1    2    0    0 -0.26574639564E-02  0.17989997246E-01 -0.14130007357E-01  0.10209004706E+01  0.10206406869E+01 0.  0.
     999903    2    3    3    0    0 -0.22811297593E-01  0.12970587593E+00  0.11035375757E-01  0.13325194160E+00  0.17039098344E-01 0.  0.
         14    1    1    2    0    0  0.26574639564E-02 -0.17989997246E-01  0.14130007357E-01  0.23029529381E-01  0.00000000000E+00 0.  1.
     999901    1    3    3    0    0  0.20153833637E-01 -0.11171587869E+00 -0.25165383114E-01  0.88764852902E+00  0.88000000000E+00 0. -1.
        -11    1    4    4    0    0 -0.26559802996E-02  0.92636115942E-02 -0.35137792739E-02  0.10270175116E-01  0.51100000000E-03 0. -1.
         11    1    4    4    0    0 -0.20155317294E-01  0.12044226434E+00  0.14549155031E-01  0.12298176648E+00  0.51100000000E-03 0.  1.
</event>
<event>
 8    1  0.1030163E+005  0.1043930E+01  0.7957747E-01            NaN
         13   -1    0    0    0    0  0.00000000000E+00  0.00000000000E+00  0.74505805969E-08  0.10566000000E+00  0.10566000000E+00 0. -1.
     999900   -1    0    0    0    0 -0.00000000000E+00 -0.00000000000E+00 -0.74505805969E-08  0.93827000000E+00  0.93827000000E+00 0. -1.
     999902    2    1    2    0    0 -0.15048401532E-01 -0.87742639691E-02 -0.11518626357E-01  0.10230464933E+01  0.10228333230E+01 0.  0.
     999903    2    3    3    0    0 -0.81105506798E-01  0.95210627964E-01  0.40463997336E-01  0.13294616638E+00  0.19853996179E-01 0.  0.
         14    1    1    2    0    0  0.15048401532E-01  0.87742639691E-02  0.11518626357E-01  0.20883506650E-01  0.00000000000E+00 0.  1.
     999901    1    3    3    0    0  0.66057105267E-01 -0.10398489193E+00 -0.51982623693E-01  0.89010032697E+00  0.88000000000E+00 0. -1.
        -11    1    4    4    0    0 -0.55588873306E-01  0.64871892521E-01  0.17758846928E-01  0.87258942464E-01  0.51100000000E-03 0. -1.
         11    1    4    4    0    0 -0.25516633492E-01  0.30338735442E-01  0.22705150408E-01  0.45687223915E-01  0.51100000000E-03 0.  1.
</event>
<event>
 8    1  0.1030163E+005  0.1043930E+01  0.7957747E-01            NaN
         13   -1    0    0    0    0  0.00000000000E+00  0.00000000000E+00  0.74505805969E-08  0.10566000000E+00  0.10566000000E+00 0.  1.
     999900   -1    0    0    0    0 -0.00000000000E+00 -0.00000000000E+00 -0.74505805969E-08  0.93827000000E+00  0.93827000000E+00 0. -1.
     999902    2    1    2    0    0  0.19381840384E-01  0.56177800252E-02  0.12221748290E-01  0.10203379183E+01  0.10200651357E+01 0.  0.
     999903    2    3    3    0    0  0.68255225643E-01  0.83626421119E-01 -0.72429754504E-01  0.13149606912E+00  0.19824043995E-01 0.  0.
         14    1    1    2    0    0 -0.19381840384E-01 -0.56177800252E-02 -0.12221748290E-01  0.23592081730E-01  0.00000000000E+00 0. -1.
     999901    1    3    3    0    0 -0.48873385259E-01 -0.78008641094E-01  0.84651502793E-01  0.88884184915E+00  0.88000000000E+00 0.  1.
        -11    1    4    4    0    0  0.52677084923E-01  0.66411232917E-01 -0.46488555092E-01  0.96678715388E-01  0.51100000000E-03 0. -1.
         11    1    4    4    0    0  0.15578140721E-01  0.17215188202E-01 -0.25941199411E-01  0.34817353734E-01  0.51100000000E-03 0.  1.
</event>
<event>
 8    1  0.1030163E+005  0.1043930E+01  0.7957747E-01            NaN
         13   -1    0    0    0    0  0.00000000000E+00  0.00000000000E+00  0.74505805969E-08  0.10566000000E+00  0.10566000000E+00 0.  1.
     999900   -1    0    0    0    0 -0.00000000000E+00 -0.00000000000E+00 -0.74505805969E-08  0.93827000000E+00  0.93827000000E+00 0.  1.
     999902    2    1    2    0    0  0.20708868844E-01  0.99397509073E-02 -0.22664208370E-02  0.10208477003E+01  0.10205867110E+01 0.  0.
     999903    2    3    3    0    0 -0.11324191801E+00 -0.17001157652E-01  0.54931032351E-01  0.12846875919E+00  0.19339917712E-01 0.  0.
         14    1    1    2    0    0 -0.20708868844E-01 -0.99397509073E-02  0.22664208370E-02  0.23082299719E-01  0.00000000000E+00 0. -1.
     999901    1    3    3    0    0  0.13395078685E+00  0.26940908559E-01 -0.57197453188E-01  0.89237894109E+00  0.88000000000E+00 0. -1.
        -11    1    4    4    0    0 -0.44499155941E-01 -0.64929297903E-02  0.11297923964E-01  0.46370650455E-01  0.51100000000E-03 0. -1.
         11    1    4    4    0    0 -0.68742762067E-01 -0.10508227862E-01  0.43633108387E-01  0.82098108735E-01  0.51100000000E-03 0.  1.
</event>
<event>
 8    1  0.1030163E+005  0.1043930E+01  0.7957747E-01            NaN
         13   -1    0    0    0    0  0.00000000000E+00  0.00000000000E+00  0.74505805969E-08  0.10566000000E+00  0.10566000000E+00 0.  1.
     999900   -1    0    0    0    0 -0.00000000000E+00 -0.00000000000E+00 -0.74505805969E-08  0.93827000000E+00  0.93827000000E+00 0.  1.
     999902    2    1    2    0    0 -0.14955475724E-01 -0.10129007049E-01 -0.15212883569E-01  0.10203144360E+01  0.10200411038E+01 0.  0.
     999903    2    3    3    0    0  0.29582413813E-01 -0.70019479966E-01 -0.10563788700E+00  0.13253790238E+00  0.25081579229E-01 0.  0.
         14    1    1    2    0    0  0.14955475724E-01  0.10129007049E-01  0.15212883569E-01  0.23615564029E-01  0.00000000000E+00 0.  1.
     999901    1    3    3    0    0 -0.44537889537E-01  0.59890472917E-01  0.90425003426E-01  0.88777653359E+00  0.88000000000E+00 0. -1.
        -11    1    4    4    0    0  0.32321162546E-01 -0.54359123089E-01 -0.91667112830E-01  0.11136737631E+00  0.51100000000E-03 0. -1.
         11    1    4    4    0    0 -0.27387487331E-02 -0.15660356877E-01 -0.13970774165E-01  0.21170526066E-01  0.51100000000E-03 0.  1.
</event>
<event>
 8    1  0.1030163E+005  0.1043930E+01  0.7957747E-01            NaN
         13   -1    0    0    0    0  0.00000000000E+00  0.00000000000E+00  0.74505805969E-08  0.10566000000E+00  0.10566000000E+00 0. -1.
     999900   -1    0    0    0    0 -0.00000000000E+00 -0.00000000000E+00 -0.74505805969E-08  0.93827000000E+00  0.93827000000E+00 0. -1.
     999902    2    1    2    0    0 -0.23276625138E-01  0.14183738623E-01 -0.96297622386E-02  0.10150213155E+01  0.10146095598E+01 0.  0.
     999903    2    3    3    0    0  0.33992412419E-01 -0.11699881020E+00  0.75493548630E-02  0.12329056810E+00  0.17302188686E-01 0.  0.
         14    1    1    2    0    0  0.23276625138E-01 -0.14183738623E-01  0.96297622386E-02  0.28908684506E-01  0.00000000000E+00 0. -1.
     999901    1    3    3    0    0 -0.57269037557E-01  0.13118254882E+00 -0.17179117102E-01  0.89173074739E+00  0.88000000000E+00 0. -1.
        -11    1    4    4    0    0  0.23380493750E-01 -0.70420888190E-01 -0.33900087414E-02  0.74279891369E-01  0.51100000000E-03 0.  1.
         11    1    4    4    0    0  0.10611918669E-01 -0.46577922012E-01  0.10939363604E-01  0.49010676734E-01  0.51100000000E-03 0. -1.
</event>
<event>
 8    1  0.1030163E+005  0.1043930E+01  0.7957747E-01            NaN
         13   -1    0    0    0    0  0.00000000000E+00  0.00000000000E+00  0.74505805969E-08  0.10566000000E+00  0.10566000000E+00 0. -1.
     999900   -1    0    0    0    0 -0.00000000000E+00 -0.00000000000E+00 -0.74505805969E-08  0.93827000000E+00  0.93827000000E+00 0.  1.
     999902    2    1    2    0    0 -0.94530864800E-02  0.16281773200E-01  0.13198482345E-01  0.10209374595E+01  0.10206785191E+01 0.  0.
     999903    2    3    3    0    0 -0.12756054270E+00  0.30195978883E-01  0.11601541754E-01  0.13293659995E+00  0.18816339737E-01 0.  0.
         14    1    1    2    0    0  0.94530864800E-02 -0.16281773200E-01 -0.13198482345E-01  0.22992540502E-01  0.00000000000E+00 0.  1.
     999901    1    3    3    0    0  0.11810745622E+00 -0.13914205683E-01  0.15969405905E-02  0.88800085955E+00  0.88000000000E+00 0. -1.
        -11    1    4    4    0    0 -0.94354239545E-01  0.30647596908E-01  0.93218865739E-02  0.99645152449E-01  0.51100000000E-03 0. -1.
         11    1    4    4    0    0 -0.33206303156E-01 -0.45161802579E-03  0.22796551801E-02  0.33291447503E-01  0.51100000000E-03 0.  1.
</event>
<event>
 8    1  0.1030163E+005  0.1043930E+01  0.7957747E-01            NaN
         13   -1    0    0    0    0  0.00000000000E+00  0.00000000000E+00  0.74505805969E-08  0.10566000000E+00  0.10566000000E+00 0. -1.
     999900   -1    0    0    0    0 -0.00000000000E+00 -0.00000000000E+00 -0.74505805969E-08  0.93827000000E+00  0.93827000000E+00 0.  1.
     999902    2    1    2    0    0 -0.18385152006E-02 -0.20370788591E-01 -0.13808268620E-01  0.10192517211E+01  0.10189529202E+01 0.  0.
     999903    2    3    3    0    0 -0.12821643684E-01 -0.12240936143E+00 -0.45376008077E-01  0.13272534158E+00  0.20213556714E-01 0.  0.
         14    1    1    2    0    0  0.18385152006E-02  0.20370788591E-01  0.13808268620E-01  0.24678278875E-01  0.00000000000E+00 0. -1.
     999901    1    3    3    0    0  0.10983128484E-01  0.10203857284E+00  0.31567739457E-01  0.88652637955E+00  0.88000000000E+00 0.  1.
        -11    1    4    4    0    0 -0.40883208904E-02 -0.73281553195E-01 -0.17072525467E-01  0.75356702776E-01  0.51100000000E-03 0.  1.
         11    1    4    4    0    0 -0.87333227940E-02 -0.49127808236E-01 -0.28303482610E-01  0.57368638802E-01  0.51100000000E-03 0. -1.
</event>
<event>
 8    1  0.1030163E+005  0.1043930E+01  0.7957747E-01            NaN
         13   -1    0    0    0    0  0.00000000000E+00  0.00000000000E+00  0.74505805969E-08  0.10566000000E+00  0.10566000000E+00 0. -1.
     999900   -1    0    0    0    0 -0.00000000000E+00 -0.00000000000E+00 -0.74505805969E-08  0.93827000000E+00  0.93827000000E+00 0. -1.
     999902    2    1    2    0    0  0.12650810791E-02 -0.16461450093E-01  0.17609937455E-01  0.10197910343E+01  0.10195053035E+01 0.  0.
     999903    2    3    3    0    0 -0.54572293552E-02 -0.10720499672E-01  0.13028005523E+00  0.13256349671E+00  0.21341916607E-01 0.  0.
         14    1    1    2    0    0 -0.12650810791E-02  0.16461450093E-01 -0.17609937455E-01  0.24138965729E-01  0.00000000000E+00 0.  1.
     999901    1    3    3    0    0  0.67223104343E-02 -0.57409504208E-02 -0.11267011777E+00  0.88722753756E+00  0.88000000000E+00 0. -1.
        -11    1    4    4    0    0  0.61828477578E-02 -0.87027338371E-02  0.36245661243E-01  0.37788546712E-01  0.51100000000E-03 0.  1.
         11    1    4    4    0    0 -0.11640077113E-01 -0.20177658351E-02  0.94034393983E-01  0.94774949997E-01  0.51100000000E-03 0. -1.
</event>
<event>
 8    1  0.1030163E+005  0.1043930E+01  0.7957747E-01            NaN
         13   -1    0    0    0    0  0.00000000000E+00  0.00000000000E+00  0.74505805969E-08  0.10566000000E+00  0.10566000000E+00 0. -1.
     999900   -1    0    0    0    0 -0.00000000000E+00 -0.00000000000E+00 -0.74505805969E-08  0.93827000000E+00  0.93827000000E+00 0. -1.
     999902    2    1    2    0    0  0.19252843872E-01  0.13728932036E-01 -0.14161711369E-02  0.10202411606E+01  0.10199661096E+01 0.  0.
     999903    2    3    3    0    0 -0.12445832026E+00 -0.16274151263E-01  0.81802188105E-02  0.12802752339E+00  0.23862298410E-01 0.  0.
         14    1    1    2    0    0 -0.19252843872E-01 -0.13728932036E-01  0.14161711369E-02  0.23688839412E-01  0.00000000000E+00 0. -1.
     999901    1    3    3    0    0  0.14371116413E+00  0.30003083299E-01 -0.95963899474E-02  0.89221363720E+00  0.88000000000E+00 0.  1.
        -11    1    4    4    0    0 -0.99046604888E-01 -0.18431633042E-01  0.14399314081E-01  0.10177208067E+00  0.51100000000E-03 0.  1.
         11    1    4    4    0    0 -0.25411715368E-01  0.21574817789E-02 -0.62190952710E-02  0.26255442722E-01  0.51100000000E-03 0. -1.
</event>
<event>
 8    1  0.1030163E+005  0.1043930E+01  0.7957747E-01            NaN
         13   -1    0    0    0    0  0.00000000000E+00  0.00000000000E+00  0.74505805969E-08  0.10566000000E+00  0.10566000000E+00 0.  1.
     999900   -1    0    0    0    0 -0.00000000000E+00 -0.00000000000E+00 -0.74505805969E-08  0.93827000000E+00  0.93827000000E+00 0. -1.
     999902    2    1    2    0    0 -0.74494074623E-03  0.60688515183E-03 -0.19061456419E-01  0.10248443413E+01  0.10246666100E+01 0.  0.
     999903    2    3    3    0    0 -0.12460792841E+00 -0.15999914172E-01  0.41944925203E-01  0.13392369160E+00  0.19825371248E-01 0.  0.
         14    1    1    2    0    0  0.74494074623E-03 -0.60688515183E-03  0.19061456419E-01  0.19085658677E-01  0.00000000000E+00 0.  1.
     999901    1    3    3    0    0  0.12386298767E+00  0.16606799324E-01 -0.61006381622E-01  0.89092064972E+00  0.88000000000E+00 0.  1.
        -11    1    4    4    0    0 -0.71913856399E-01 -0.15640553415E-02  0.17295299950E-01  0.73982684005E-01  0.51100000000E-03 0.  1.
         11    1    4    4    0    0 -0.52694072016E-01 -0.14435858831E-01  0.24649625252E-01  0.59941007599E-01  0.51100000000E-03 0. -1.
</event>
<event>
 8    1  0.1030163E+005  0.1043930E+01  0.7957747E-01            NaN
         13   -1    0    0    0    0  0.00000000000E+00  0.00000000000E+00  0.74505805969E-08  0.10566000000E+00  0.10566000000E+00 0. -1.
     999900   -1    0    0    0    0 -0.00000000000E+00 -0.00000000000E+00 -0.74505805969E-08  0.93827000000E+00  0.93827000000E+00 0.  1.
     999902    2    1    2    0    0  0.12765682195E-01 -0.79467833691E-02  0.17820953236E-01  0.10206126163E+01  0.10203462217E+01 0.  0.
     999903    2    3    3    0    0 -0.12122159813E+00 -0.39235143538E-01 -0.11503667836E-01  0.12943839868E+00  0.19694982553E-01 0.  0.
         14    1    1    2    0    0 -0.12765682195E-01  0.79467833691E-02 -0.17820953236E-01  0.23317383688E-01  0.00000000000E+00 0.  1.
     999901    1    3    3    0    0  0.13398728032E+00  0.31288360169E-01  0.29324621072E-01  0.89117421763E+00  0.88000000000E+00 0. -1.
        -11    1    4    4    0    0 -0.62695992405E-01 -0.30539256018E-01 -0.52170855829E-02  0.69935060769E-01  0.51100000000E-03 0.  1.
         11    1    4    4    0    0 -0.58525605724E-01 -0.86958875202E-02 -0.62865822535E-02  0.59503337911E-01  0.51100000000E-03 0. -1.
</event>
<event>
 8    1  0.1030163E+005  0.1043930E+01  0.7957747E-01            NaN
         13   -1    0    0    0    0  0.00000000000E+00  0.00000000000E+00  0.74505805969E-08  0.10566000000E+00  0.10566000000E+00 0. -1.
     999900   -1    0    0    0    0 -0.00000000000E+00 -0.00000000000E+00 -0.74505805969E-08  0.93827000000E+00  0.93827000000E+00 0. -1.
     999902    2    1    2    0    0 -0.19845699584E-01 -0.60960525093E-02 -0.10350725140E-01  0.10207319148E+01  0.10204682703E+01 0.  0.
     999903    2    3    3    0    0  0.81776093654E-01  0.97543018838E-01 -0.19273579565E-02  0.12880198528E+00  0.19602721411E-01 0.  0.
         14    1    1    2    0    0  0.19845699584E-01  0.60960525093E-02  0.10350725140E-01  0.23198085247E-01  0.00000000000E+00 0.  1.
     999901    1    3    3    0    0 -0.10162179324E+00 -0.10363907135E+00 -0.84233671831E-02  0.89192992947E+00  0.88000000000E+00 0. -1.
        -11    1    4    4    0    0  0.23850925841E-01  0.40521116943E-01  0.46542623815E-02  0.47251993197E-01  0.51100000000E-03 0.  1.
         11    1    4    4    0    0  0.57925167813E-01  0.57021901895E-01 -0.65816203380E-02  0.81549992086E-01  0.51100000000E-03 0. -1.
</event>
<event>
 8    1  0.1030163E+005  0.1043930E+01  0.7957747E-01            NaN
         13   -1    0    0    0    0  0.00000000000E+00  0.00000000000E+00  0.74505805969E-08  0.10566000000E+00  0.10566000000E+00 0.  1.
     999900   -1    0    0    0    0 -0.00000000000E+00 -0.00000000000E+00 -0.74505805969E-08  0.93827000000E+00  0.93827000000E+00 0.  1.
     999902    2    1    2    0    0  0.12037184517E-01 -0.29470335096E-01  0.12277621099E-01  0.10098105856E+01  0.10092340087E+01 0.  0.
     999903    2    3    3    0    0 -0.10850258507E+00  0.43000868428E-01  0.86051282461E-02  0.11863417284E+00  0.19445644253E-01 0.  0.
         14    1    1    2    0    0 -0.12037184517E-01  0.29470335096E-01 -0.12277621099E-01  0.34119414439E-01  0.00000000000E+00 0. -1.
     999901    1    3    3    0    0  0.12053976959E+00 -0.72471203525E-01  0.36724928533E-02  0.89117641272E+00  0.88000000000E+00 0.  1.
        -11    1    4    4    0    0 -0.15960707921E-01  0.76115483190E-03 -0.29355239556E-02  0.16254291000E-01  0.51100000000E-03 0. -1.
         11    1    4    4    0    0 -0.92541877148E-01  0.42239713597E-01  0.11540652202E-01  0.10237988184E+00  0.51100000000E-03 0.  1.
</event>
<event>
 8    1  0.1030163E+005  0.1043930E+01  0.7957747E-01            NaN
         13   -1    0    0    0    0  0.00000000000E+00  0.00000000000E+00  0.74505805969E-08  0.10566000000E+00  0.10566000000E+00 0.  1.
     999900   -1    0    0    0    0 -0.00000000000E+00 -0.00000000000E+00 -0.74505805969E-08  0.93827000000E+00  0.93827000000E+00 0. -1.
     999902    2    1    2    0    0 -0.13836088316E-02  0.59721520643E-02  0.22504760325E-01  0.10206052232E+01  0.10203386577E+01 0.  0.
     999903    2    3    3    0    0  0.64161062434E-01 -0.19882603884E-01 -0.10749902595E+00  0.12826809144E+00  0.19613842892E-01 0.  0.
         14    1    1    2    0    0  0.13836088316E-02 -0.59721520643E-02 -0.22504760325E-01  0.23324776761E-01  0.00000000000E+00 0.  1.
     999901    1    3    3    0    0 -0.65544671266E-01  0.25854755949E-01  0.13000378627E+00  0.89233713180E+00  0.88000000000E+00 0.  1.
        -11    1    4    4    0    0  0.56606495779E-01 -0.23563960678E-01 -0.97712628543E-01  0.11535846092E+00  0.51100000000E-03 0. -1.
         11    1    4    4    0    0  0.75545666547E-02  0.36813567934E-02 -0.97863974036E-02  0.12909630526E-01  0.51100000000E-03 0.  1.
</event>
<event>
 8    1  0.1030163E+005  0.1043930E+01  0.7957747E-01            NaN
         13   -1    0    0    0    0  0.00000000000E+00  0.00000000000E+00  0.74505805969E-08  0.10566000000E+00  0.10566000000E+00 0.  1.
     999900   -1    0    0    0    0 -0.00000000000E+00 -0.00000000000E+00 -0.74505805969E-08  0.93827000000E+00  0.93827000000E+00 0. -1.
     999902    2    1    2    0    0 -0.94824425805E-02  0.21656396435E-01  0.10157981009E-01  0.10181986805E+01  0.10178734952E+01 0.  0.
     999903    2    3    3    0    0 -0.20828671473E-02 -0.91499335490E-01 -0.80557851305E-01  0.12629715254E+00  0.32938375833E-01 0.  0.
         14    1    1    2    0    0  0.94824425805E-02 -0.21656396435E-01 -0.10157981009E-01  0.25731319477E-01  0.00000000000E+00 0. -1.
     999901    1    3    3    0    0 -0.73995754332E-02  0.11315573192E+00  0.90715832314E-01  0.89190152798E+00  0.88000000000E+00 0.  1.
        -11    1    4    4    0    0  0.11748031397E-01 -0.42937995285E-01 -0.51356258474E-01  0.67966271682E-01  0.51100000000E-03 0. -1.
         11    1    4    4    0    0 -0.13830898545E-01 -0.48561340205E-01 -0.29201592831E-01  0.58330880860E-01  0.51100000000E-03 0.  1.
</event>
<event>
 8    1  0.1030163E+005  0.1043930E+01  0.7957747E-01            NaN
         13   -1    0    0    0    0  0.00000000000E+00  0.00000000000E+00  0.74505805969E-08  0.10566000000E+00  0.10566000000E+00 0. -1.
     999900   -1    0    0    0    0 -0.00000000000E+00 -0.00000000000E+00 -0.74505805969E-08  0.93827000000E+00  0.93827000000E+00 0.  1.
     999902    2    1    2    0    0 -0.12073914071E-01 -0.75759646546E-02 -0.21220962137E-01  0.10183662781E+01  0.10180453686E+01 0.  0.
     999903    2    3    3    0    0 -0.11318276530E+00  0.14884869519E-01  0.56460091290E-01  0.12889349332E+00  0.19846738006E-01 0.  0.
         14    1    1    2    0    0  0.12073914071E-01  0.75759646546E-02  0.21220962137E-01  0.25563721863E-01  0.00000000000E+00 0. -1.
     999901    1    3    3    0    0  0.10110885123E+00 -0.22460834173E-01 -0.77681053427E-01  0.88947278482E+00  0.88000000000E+00 0.  1.
        -11    1    4    4    0    0 -0.70268292587E-01 -0.38922125289E-04  0.30950951880E-01  0.76784484118E-01  0.51100000000E-03 0. -1.
         11    1    4    4    0    0 -0.42914472716E-01  0.14923791644E-01  0.25509139410E-01  0.52109009202E-01  0.51100000000E-03 0.  1.
</event>
<event>
 7    1  0.1030163E+005  0.1043930E+01  0.7957747E-01            NaN
         13   -1    0    0    0    0  0.00000000000E+00  0.00000000000E+00  0.74505805969E-08  0.10566000000E+00  0.10566000000E+00 0. -1.
     999900   -1    0    0    0    0 -0.00000000000E+00 -0.00000000000E+00 -0.74505805969E-08  0.93827000000E+00  0.93827000000E+00 0.  1.
     999903    2    1    2    0    0  0.40353547294E-01  0.42516487551E-01 -0.34964471751E-01  0.71159383419E-01  0.20126675604E-01 0.  0.
         14    1    1    2    0    0  0.24402626798E-01  0.73781464013E-01 -0.22508969861E-01  0.80906404881E-01  0.00000000000E+00 0.  1.
     999901    1    1    2    0    0 -0.64756174093E-01 -0.11629795156E+00  0.57473441612E-01  0.89186421170E+00  0.88000000000E+00 0. -1.
        -11    1    3    3    0    0  0.27125242549E-01  0.38185899166E-01 -0.20667007286E-01  0.51198906137E-01  0.51100000000E-03 0.  1.
         11    1    3    3    0    0  0.13228304745E-01  0.43305883845E-02 -0.14297464465E-01  0.19960477282E-01  0.51100000000E-03 0. -1.
</event>
<event>
 8    1  0.1030163E+005  0.1043930E+01  0.7957747E-01            NaN
         13   -1    0    0    0    0  0.00000000000E+00  0.00000000000E+00  0.74505805969E-08  0.10566000000E+00  0.10566000000E+00 0.  1.
     999900   -1    0    0    0    0 -0.00000000000E+00 -0.00000000000E+00 -0.74505805969E-08  0.93827000000E+00  0.93827000000E+00 0. -1.
     999902    2    1    2    0    0  0.90417625190E-02  0.14657674649E-01  0.15980590024E-01  0.10204357421E+01  0.10201652433E+01 0.  0.
     999903    2    3    3    0    0 -0.12554189383E+00 -0.21752063321E-01 -0.64018411321E-02  0.12917853862E+00  0.20302509837E-01 0.  0.
         14    1    1    2    0    0 -0.90417625190E-02 -0.14657674649E-01 -0.15980590024E-01  0.23494257875E-01  0.00000000000E+00 0. -1.
     999901    1    3    3    0    0  0.13458365635E+00  0.36409737970E-01  0.22382431157E-01  0.89125720350E+00  0.88000000000E+00 0. -1.
        -11    1    4    4    0    0 -0.10295790179E+00 -0.15764876008E-01 -0.12815865549E-01  0.10494459675E+00  0.51100000000E-03 0.  1.
         11    1    4    4    0    0 -0.22583992034E-01 -0.59871873137E-02  0.64140244168E-02  0.24233941866E-01  0.51100000000E-03 0. -1.
</event>
<event>
 8    1  0.1030163E+005  0.1043930E+01  0.7957747E-01            NaN
         13   -1    0    0    0    0  0.00000000000E+00  0.00000000000E+00  0.74505805969E-08  0.10566000000E+00  0.10566000000E+00 0. -1.
     999900   -1    0    0    0    0 -0.00000000000E+00 -0.00000000000E+00 -0.74505805969E-08  0.93827000000E+00  0.93827000000E+00 0.  1.
     999902    2    1    2    0    0 -0.21383829114E-01 -0.61802124223E-02 -0.26588896960E-02  0.10215127551E+01  0.10212667507E+01 0.  0.
     999903    2    3    3    0    0 -0.23570581108E-01 -0.11760178179E+00 -0.53885331329E-01  0.13300631378E+00  0.20032453624E-01 0.  0.
         14    1    1    2    0    0  0.21383829114E-01  0.61802124223E-02  0.26588896960E-02  0.22417244870E-01  0.00000000000E+00 0. -1.
     999901    1    3    3    0    0  0.21867519943E-02  0.11142156937E+00  0.51226441633E-01  0.88850644135E+00  0.88000000000E+00 0. -1.
        -11    1    4    4    0    0 -0.16896746366E-01 -0.42505275449E-01 -0.26029481438E-01  0.52630727752E-01  0.51100000000E-03 0.  1.
         11    1    4    4    0    0 -0.66738347416E-02 -0.75096506340E-01 -0.27855849892E-01  0.80375586025E-01  0.51100000000E-03 0. -1.
</event>
<event>
 8    1  0.1030163E+005  0.1043930E+01  0.7957747E-01            NaN
         13   -1    0    0    0    0  0.00000000000E+00  0.00000000000E+00  0.74505805969E-08  0.10566000000E+00  0.10566000000E+00 0. -1.
     999900   -1    0    0    0    0 -0.00000000000E+00 -0.00000000000E+00 -0.74505805969E-08  0.93827000000E+00  0.93827000000E+00 0.  1.
     999902    2    1    2    0    0 -0.63116881028E-02  0.18084942941E-01 -0.54743513598E-02  0.10240083763E+01  0.10238145748E+01 0.  0.
     999903    2    3    3    0    0 -0.85346191422E-01  0.51907325092E-01  0.88249834123E-01  0.13486573916E+00  0.20552167451E-01 0.  0.
         14    1    1    2    0    0  0.63116881028E-02 -0.18084942941E-01  0.54743513598E-02  0.19921623696E-01  0.00000000000E+00 0.  1.
     999901    1    3    3    0    0  0.79034503319E-01 -0.33822382151E-01 -0.93724185483E-01  0.88914263715E+00  0.88000000000E+00 0.  1.
        -11    1    4    4    0    0 -0.31445674557E-01  0.16661990758E-01  0.44618162098E-01  0.57074459212E-01  0.51100000000E-03 0.  1.
         11    1    4    4    0    0 -0.53900516865E-01  0.35245334334E-01  0.43631672025E-01  0.77791279944E-01  0.51100000000E-03 0. -1.
</event>
<event>
 8    1  0.1030163E+005  0.1043930E+01  0.7957747E-01            NaN
         13   -1    0    0    0    0  0.00000000000E+00  0.00000000000E+00  0.74505805969E-08  0.10566000000E+00  0.10566000000E+00 0. -1.
     999900   -1    0    0    0    0 -0.00000000000E+00 -0.00000000000E+00 -0.74505805969E-08  0.93827000000E+00  0.93827000000E+00 0. -1.
     999902    2    1    2    0    0  0.47701957631E-02 -0.17717342357E-01 -0.14588730891E-01  0.10204887957E+01  0.10202195314E+01 0.  0.
     999903    2    3    3    0    0 -0.38226251459E-01  0.11593804919E+00 -0.29347375391E-01  0.12923671258E+00  0.30626489926E-01 0.  0.
         14    1    1    2    0    0 -0.47701957631E-02  0.17717342357E-01  0.14588730891E-01  0.23441204253E-01  0.00000000000E+00 0. -1.
     999901    1    3    3    0    0  0.42996447222E-01 -0.13365539155E+00  0.14758644500E-01  0.89125208317E+00  0.88000000000E+00 0.  1.
        -11    1    4    4    0    0 -0.34265259834E-01  0.74188989835E-01 -0.78195944570E-02  0.82094588267E-01  0.51100000000E-03 0.  1.
         11    1    4    4    0    0 -0.39609916245E-02  0.41749059355E-01 -0.21527780934E-01  0.47142124312E-01  0.51100000000E-03 0. -1.
</event>
<event>
 8    1  0.1030163E+005  0.1043930E+01  0.7957747E-01            NaN
         13   -1    0    0    0    0  0.00000000000E+00  0.00000000000E+00  0.74505805969E-08  0.10566000000E+00  0.10566000000E+00 0. -1.
     999900   -1    0    0    0    0 -0.00000000000E+00 -0.00000000000E+00 -0.74505805969E-08  0.93827000000E+00  0.93827000000E+00 0.  1.
     999902    2    1    2    0    0  0.16692226885E-01  0.14459355413E-01 -0.87540781718E-02  0.10201742158E+01  0.10198975896E+01 0.  0.
     999903    2    3    3    0    0  0.44176917391E-01 -0.11565833375E+00 -0.34057699499E-01  0.12982243450E+00  0.19117724961E-01 0.  0.
         14    1    1    2    0    0 -0.16692226885E-01 -0.14459355413E-01  0.87540781718E-02  0.23755784179E-01  0.00000000000E+00 0.  1.
     999901    1    3    3    0    0 -0.27484690506E-01  0.13011768917E+00  0.25303621327E-01  0.89035178132E+00  0.88000000000E+00 0.  1.
        -11    1    4    4    0    0  0.10969726492E-01 -0.46863914612E-01 -0.62983816565E-02  0.48543713543E-01  0.51100000000E-03 0.  1.
         11    1    4    4    0    0  0.33207190899E-01 -0.68794419142E-01 -0.27759317843E-01  0.81278720958E-01  0.51100000000E-03 0. -1.
</event>
<event>
 8    1  0.1030163E+005  0.1043930E+01  0.7957747E-01            NaN
         13   -1    0    0    0    0  0.00000000000E+00  0.00000000000E+00  0.74505805969E-08  0.10566000000E+00  0.10566000000E+00 0.  1.
     999900   -1    0    0    0    0 -0.00000000000E+00 -0.00000000000E+00 -0.74505805969E-08  0.93827000000E+00  0.93827000000E+00 0. -1.
     999902    2    1    2    0    0 -0.91211989987E-02  0.16587720345E-02  0.21061507966E-01  0.10209183744E+01  0.10206589990E+01 0.  0.
     999903    2    3    3    0    0  0.22612206884E-02  0.32569492569E-01  0.12816946186E+00  0.13381232327E+00  0.20308666629E-01 0.  0.
         14    1    1    2    0    0  0.91211989987E-02 -0.16587720345E-02 -0.21061507966E-01  0.23011625619E-01  0.00000000000E+00 0. -1.
     999901    1    3    3    0    0 -0.11382419687E-01 -0.30910720535E-01 -0.10710795390E+00  0.88710605111E+00  0.88000000000E+00 0. -1.
        -11    1    4    4    0    0  0.81004785563E-02  0.23841465170E-01  0.10975824189E+00  0.11261068333E+00  0.51100000000E-03 0. -1.
         11    1    4    4    0    0 -0.58392578680E-02  0.87280273993E-02  0.18411219970E-01  0.21201639948E-01  0.51100000000E-03 0.  1.
</event>
<event>
 8    1  0.1030163E+005  0.1043930E+01  0.7957747E-01            NaN
         13   -1    0    0    0    0  0.00000000000E+00  0.00000000000E+00  0.74505805969E-08  0.10566000000E+00  0.10566000000E+00 0.  1.
     999900   -1    0    0    0    0 -0.00000000000E+00 -0.00000000000E+00 -0.74505805969E-08  0.93827000000E+00  0.93827000000E+00 0. -1.
     999902    2    1    2    0    0 -0.18805664395E-01  0.27824596495E-02  0.14041255056E-01  0.10202962966E+01  0.10200225394E+01 0.  0.
     999903    2    3    3    0    0 -0.86454154755E-01 -0.78751594169E-01  0.59815176598E-01  0.13276073553E+00  0.19272340017E-01 0.  0.
         14    1    1    2    0    0  0.18805664395E-01 -0.27824596495E-02 -0.14041255056E-01  0.23633703446E-01  0.00000000000E+00 0. -1.
     999901    1    3    3    0    0  0.67648490361E-01  0.81534053819E-01 -0.45773921542E-01  0.88753556102E+00  0.88000000000E+00 0. -1.
        -11    1    4    4    0    0 -0.54467744031E-01 -0.53931000097E-01  0.48545194299E-01  0.90731388846E-01  0.51100000000E-03 0.  1.
         11    1    4    4    0    0 -0.31986410725E-01 -0.24820594072E-01  0.11269982298E-01  0.42029346689E-01  0.51100000000E-03 0. -1.
</event>
<event>
 8    1  0.1030163E+005  0.1043930E+01  0.7957747E-01            NaN
         13   -1    0    0    0    0  0.00000000000E+00  0.00000000000E+00  0.74505805969E-08  0.10566000000E+00  0.10566000000E+00 0. -1.
     999900   -1    0    0    0    0 -0.00000000000E+00 -0.00000000000E+00 -0.74505805969E-08  0.93827000000E+00  0.93827000000E+00 0. -1.
     999902    2    1    2    0    0 -0.20793300394E-01 -0.14810388023E-02  0.24740176796E-01  0.10115783205E+01  0.10110608624E+01 0.  0.
     999903    2    3    3    0    0  0.35130736322E-01 -0.54211566681E-01 -0.98663493756E-01  0.11964980749E+00  0.20212096267E-01 0.  0.
         14    1    1    2    0    0  0.20793300394E-01  0.14810388023E-02 -0.24740176796E-01  0.32351679479E-01  0.00000000000E+00 0.  1.
     999901    1    3    3    0    0 -0.55924036716E-01  0.52730527879E-01  0.12340367055E+00  0.89192851303E+00  0.88000000000E+00 0.  1.
        -11    1    4    4    0    0  0.92968573374E-02 -0.32126660769E-01 -0.43824857841E-01  0.55131054537E-01  0.51100000000E-03 0.  1.
         11    1    4    4    0    0  0.25833878985E-01 -0.22084905912E-01 -0.54838635915E-01  0.64518752952E-01  0.51100000000E-03 0. -1.
</event>
<event>
 8    1  0.1399095E+005  0.1043930E+01  0.7957747E-01            NaN
         13   -1    0    0    0    0  0.00000000000E+00  0.00000000000E+00  0.74505805969E-08  0.10566000000E+00  0.10566000000E+00 0.  1.
     999900   -1    0    0    0    0 -0.00000000000E+00 -0.00000000000E+00 -0.74505805969E-08  0.93827000000E+00  0.93827000000E+00 0. -1.
     999902    2    1    2    0    0  0.96359725519E-02 -0.12524957920E-01  0.18511651727E-01  0.10195905713E+01  0.10193000174E+01 0.  0.
     999903    2    3    3    0    0  0.15302739469E-01  0.63598183678E-01 -0.10694503902E+00  0.12742117812E+00  0.22803781742E-01 0.  0.
         14    1    1    2    0    0 -0.96359725519E-02  0.12524957920E-01 -0.18511651727E-01  0.24339428662E-01  0.00000000000E+00 0.  1.
     999901    1    3    3    0    0 -0.56667669170E-02 -0.76123141599E-01  0.12545669074E+00  0.89216939321E+00  0.88000000000E+00 0.  1.
        -11    1    4    4    0    0  0.20120128784E-01  0.37153443812E-01 -0.69185669718E-01  0.81068588150E-01  0.51100000000E-03 0. -1.
         11    1    4    4    0    0 -0.48173893151E-02  0.26444739866E-01 -0.37759369300E-01  0.46352589975E-01  0.51100000000E-03 0.  1.
</event>
<event>
 8    1  0.1030163E+005  0.1043930E+01  0.7957747E-01            NaN
         13   -1    0    0    0    0  0.00000000000E+00  0.00000000000E+00  0.74505805969E-08  0.10566000000E+00  0.10566000000E+00 0. -1.
     999900   -1    0    0    0    0 -0.00000000000E+00 -0.00000000000E+00 -0.74505805969E-08  0.93827000000E+00  0.93827000000E+00 0.  1.
     999902    2    1    2    0    0 -0.55676322770E-02  0.16664764008E-01  0.15712649942E-01  0.10203588257E+01  0.10200865321E+01 0.  0.
     999903    2    3    3    0    0 -0.21075449917E-02 -0.15168732053E-01  0.12997002947E+00  0.13239481043E+00  0.20041085044E-01 0.  0.
         14    1    1    2    0    0  0.55676322770E-02 -0.16664764008E-01 -0.15712649942E-01  0.23571174278E-01  0.00000000000E+00 0.  1.
     999901    1    3    3    0    0 -0.34600872853E-02  0.31833496061E-01 -0.11425737953E+00  0.88796401529E+00  0.88000000000E+00 0.  1.
        -11    1    4    4    0    0 -0.60054844227E-02 -0.87994862201E-02  0.11648132461E+00  0.11696861504E+00  0.51100000000E-03 0.  1.
         11    1    4    4    0    0  0.38979394311E-02 -0.63692458324E-02  0.13488704860E-01  0.15426195386E-01  0.51100000000E-03 0. -1.
</event>
<event>
 8    1  0.1030163E+005  0.1043930E+01  0.7957747E-01            NaN
         13   -1    0    0    0    0  0.00000000000E+00  0.00000000000E+00  0.74505805969E-08  0.10566000000E+00  0.10566000000E+00 0. -1.
     999900   -1    0    0    0    0 -0.00000000000E+00 -0.00000000000E+00 -0.74505805969E-08  0.93827000000E+00  0.93827000000E+00 0. -1.
     999902    2    1    2    0    0  0.14664973174E-01 -0.82110099649E-02 -0.17144578232E-01  0.10199212790E+01  0.10196386598E+01 0.  0.
     999903    2    3    3    0    0  0.73415834435E-01  0.12752470576E-01  0.10397783735E+00  0.12943726969E+00  0.19751098066E-01 0.  0.
         14    1    1    2    0    0 -0.14664973174E-01  0.82110099649E-02  0.17144578232E-01  0.24008721032E-01  0.00000000000E+00 0. -1.
     999901    1    3    3    0    0 -0.58750861260E-01 -0.20963480541E-01 -0.12112241558E+00  0.89048400927E+00  0.88000000000E+00 0. -1.
        -11    1    4    4    0    0  0.48066289496E-01  0.14763705569E-01  0.56956939500E-01  0.75978215735E-01  0.51100000000E-03 0. -1.
         11    1    4    4    0    0  0.25349544938E-01 -0.20112349931E-02  0.47020897848E-01  0.53459053960E-01  0.51100000000E-03 0.  1.
</event>
<event>
 8    1  0.1030163E+005  0.1043930E+01  0.7957747E-01            NaN
         13   -1    0    0    0    0  0.00000000000E+00  0.00000000000E+00  0.74505805969E-08  0.10566000000E+00  0.10566000000E+00 0. -1.
     999900   -1    0    0    0    0 -0.00000000000E+00 -0.00000000000E+00 -0.74505805969E-08  0.93827000000E+00  0.93827000000E+00 0.  1.
     999902    2    1    2    0    0 -0.26761158137E-02 -0.67385206087E-02  0.22317336703E-01  0.10204644343E+01  0.10201946035E+01 0.  0.
     999903    2    3    3    0    0 -0.12778495104E+00 -0.11468959334E-01 -0.18768744187E-01  0.13065396924E+00  0.16051890229E-01 0.  0.
         14    1    1    2    0    0  0.26761158137E-02  0.67385206087E-02 -0.22317336703E-01  0.23465565695E-01  0.00000000000E+00 0.  1.
     999901    1    3    3    0    0  0.12510883522E+00  0.47304387248E-02  0.41086080890E-01  0.88981046507E+00  0.88000000000E+00 0. -1.
        -11    1    4    4    0    0 -0.63301118667E-01  0.21660912577E-02 -0.10958992053E-01  0.64281289686E-01  0.51100000000E-03 0.  1.
         11    1    4    4    0    0 -0.64483832368E-01 -0.13635050591E-01 -0.78097521335E-02  0.66372679552E-01  0.51100000000E-03 0. -1.
</event>
<event>
 8    1  0.1030163E+005  0.1043930E+01  0.7957747E-01            NaN
         13   -1    0    0    0    0  0.00000000000E+00  0.00000000000E+00  0.74505805969E-08  0.10566000000E+00  0.10566000000E+00 0. -1.
     999900   -1    0    0    0    0 -0.00000000000E+00 -0.00000000000E+00 -0.74505805969E-08  0.93827000000E+00  0.93827000000E+00 0.  1.
     999902    2    1    2    0    0  0.14492573722E-01  0.16869005972E-01  0.15073489087E-02  0.10216394155E+01  0.10213962136E+01 0.  0.
     999903    2    3    3    0    0  0.96063637132E-01 -0.87704236329E-01  0.58743421811E-02  0.13169083722E+00  0.19690435827E-01 0.  0.
         14    1    1    2    0    0 -0.14492573722E-01 -0.16869005972E-01 -0.15073489087E-02  0.22290584476E-01  0.00000000000E+00 0.  1.
     999901    1    3    3    0    0 -0.81571063410E-01  0.10457324230E+00 -0.43669932724E-02  0.88994857830E+00  0.88000000000E+00 0.  1.
        -11    1    4    4    0    0  0.46726701572E-01 -0.53114778415E-01  0.92125693026E-02  0.71342111548E-01  0.51100000000E-03 0. -1.
         11    1    4    4    0    0  0.49336935559E-01 -0.34589457914E-01 -0.33382271214E-02  0.60348725674E-01  0.51100000000E-03 0.  1.
</event>
<event>
 8    1  0.1030163E+005  0.1043930E+01  0.7957747E-01            NaN
         13   -1    0    0    0    0  0.00000000000E+00  0.00000000000E+00  0.74505805969E-08  0.10566000000E+00  0.10566000000E+00 0.  1.
     999900   -1    0    0    0    0 -0.00000000000E+00 -0.00000000000E+00 -0.74505805969E-08  0.93827000000E+00  0.93827000000E+00 0.  1.
     999902    2    1    2    0    0  0.14509130351E-01  0.41069797588E-02 -0.19247595048E-01  0.10194789865E+01  0.10191857298E+01 0.  0.
     999903    2    3    3    0    0 -0.78144229994E-01  0.59902014928E-01  0.78401870699E-01  0.12749627966E+00  0.20339024664E-01 0.  0.
         14    1    1    2    0    0 -0.14509130351E-01 -0.41069797588E-02  0.19247595048E-01  0.24451013505E-01  0.00000000000E+00 0.  1.
     999901    1    3    3    0    0  0.92653360344E-01 -0.55795035169E-01 -0.97649465747E-01  0.89198270684E+00  0.88000000000E+00 0.  1.
        -11    1    4    4    0    0 -0.20189368055E-01  0.93076543383E-02  0.93668327210E-02  0.24129684788E-01  0.51100000000E-03 0. -1.
         11    1    4    4    0    0 -0.57954861939E-01  0.50594360590E-01  0.69035037978E-01  0.10336659487E+00  0.51100000000E-03 0.  1.
</event>
<event>
 7    1  0.1030163E+005  0.1043930E+01  0.7957747E-01            NaN
         13   -1    0    0    0    0  0.00000000000E+00  0.00000000000E+00  0.74505805969E-08  0.10566000000E+00  0.10566000000E+00 0.  1.
     999900   -1    0    0    0    0 -0.00000000000E+00 -0.00000000000E+00 -0.74505805969E-08  0.93827000000E+00  0.93827000000E+00 0. -1.
     999902    2    1    2    0    0  0.94866728627E-02  0.16434270454E-01  0.13603489807E-01  0.10205818279E+01  0.10203147212E+01 0.  0.
         14    1    1    2    0    0 -0.94866728627E-02 -0.16434270454E-01 -0.13603489807E-01  0.23348172140E-01  0.00000000000E+00 0. -1.
     999901    1    3    3    0    0 -0.10875462355E+00 -0.17351468850E-01  0.60468041900E-01  0.88892352073E+00  0.88000000000E+00 0.  1.
        -11    1    3    3    0    0  0.60488447863E-01  0.16821744020E-01 -0.21974067345E-01  0.66520253708E-01  0.51100000000E-03 0.  1.
         11    1    3    3    0    0  0.57752848550E-01  0.16963995284E-01 -0.24890484748E-01  0.65138053422E-01  0.51100000000E-03 0. -1.
</event>
<event>
 8    1  0.1030163E+005  0.1043930E+01  0.7957747E-01            NaN
         13   -1    0    0    0    0  0.00000000000E+00  0.00000000000E+00  0.74505805969E-08  0.10566000000E+00  0.10566000000E+00 0. -1.
     999900   -1    0    0    0    0 -0.00000000000E+00 -0.00000000000E+00 -0.74505805969E-08  0.93827000000E+00  0.93827000000E+00 0. -1.
     999902    2    1    2    0    0  0.97863953167E-02 -0.55304672517E-02  0.19632419884E-01  0.10213071905E+01  0.10210566026E+01 0.  0.
     999903    2    3    3    0    0  0.27312913217E-01 -0.97003850762E-01 -0.80863406033E-01  0.13070404104E+00  0.19720892914E-01 0.  0.
         14    1    1    2    0    0 -0.97863953167E-02  0.55304672517E-02 -0.19632419884E-01  0.22622809548E-01  0.00000000000E+00 0.  1.
     999901    1    3    3    0    0 -0.17526517901E-01  0.91473383510E-01  0.10049582592E+00  0.89060314941E+00  0.88000000000E+00 0.  1.
        -11    1    4    4    0    0  0.38860657790E-02 -0.51086289624E-02 -0.11602443895E-01  0.13269416809E-01  0.51100000000E-03 0.  1.
         11    1    4    4    0    0  0.23426847438E-01 -0.91895221800E-01 -0.69260962137E-01  0.11743462423E+00  0.51100000000E-03 0. -1.
</event>
<event>
 8    1  0.1030163E+005  0.1043930E+01  0.7957747E-01            NaN
         13   -1    0    0    0    0  0.00000000000E+00  0.00000000000E+00  0.74505805969E-08  0.10566000000E+00  0.10566000000E+00 0. -1.
     999900   -1    0    0    0    0 -0.00000000000E+00 -0.00000000000E+00 -0.74505805969E-08  0.93827000000E+00  0.93827000000E+00 0. -1.
     999902    2    1    2    0    0 -0.14341651188E-01  0.91697923851E-02 -0.13181684714E-01  0.10224003724E+01  0.10221736627E+01 0.  0.
     999903    2    3    3    0    0  0.71178995881E-01 -0.91992062171E-01  0.54427473836E-01  0.12992152103E+00  0.19704384295E-01 0.  0.
         14    1    1    2    0    0  0.14341651188E-01 -0.91697923851E-02  0.13181684714E-01  0.21529627565E-01  0.00000000000E+00 0. -1.
     999901    1    3    3    0    0 -0.85520647069E-01  0.10116185456E+00 -0.67609158550E-01  0.89247885141E+00  0.88000000000E+00 0.  1.
        -11    1    4    4    0    0  0.33139586340E-01 -0.56709937636E-01  0.25070384009E-01  0.70306717210E-01  0.51100000000E-03 0.  1.
         11    1    4    4    0    0  0.38039409541E-01 -0.35282124535E-01  0.29357089826E-01  0.59614803816E-01  0.51100000000E-03 0. -1.
</event>
<event>
 8    1  0.1030163E+005  0.1043930E+01  0.7957747E-01            NaN
         13   -1    0    0    0    0  0.00000000000E+00  0.00000000000E+00  0.74505805969E-08  0.10566000000E+00  0.10566000000E+00 0. -1.
     999900   -1    0    0    0    0 -0.00000000000E+00 -0.00000000000E+00 -0.74505805969E-08  0.93827000000E+00  0.93827000000E+00 0.  1.
     999902    2    1    2    0    0 -0.21381968603E-01  0.55269843797E-02  0.71635159717E-02  0.10207125045E+01  0.10204484135E+01 0.  0.
     999903    2    3    3    0    0 -0.60521465282E-01 -0.30827560509E-01  0.11277137334E+00  0.13278988809E+00  0.17394984524E-01 0.  0.
         14    1    1    2    0    0  0.21381968603E-01 -0.55269843797E-02 -0.71635159717E-02  0.23217495532E-01  0.00000000000E+00 0. -1.
     999901    1    3    3    0    0  0.39139496679E-01  0.36354544889E-01 -0.10560785737E+00  0.88792261638E+00  0.88000000000E+00 0.  1.
        -11    1    4    4    0    0 -0.44173047461E-01 -0.29972558551E-01  0.91622495558E-01  0.10604034704E+00  0.51100000000E-03 0. -1.
         11    1    4    4    0    0 -0.16348417821E-01 -0.85500195765E-03  0.21148877787E-01  0.26749541047E-01  0.51100000000E-03 0.  1.
</event>
<event>
 8    1  0.1030163E+005  0.1043930E+01  0.7957747E-01            NaN
         13   -1    0    0    0    0  0.00000000000E+00  0.00000000000E+00  0.74505805969E-08  0.10566000000E+00  0.10566000000E+00 0.  1.
     999900   -1    0    0    0    0 -0.00000000000E+00 -0.00000000000E+00 -0.74505805969E-08  0.93827000000E+00  0.93827000000E+00 0. -1.
     999902    2    1    2    0    0 -0.17176039709E-01 -0.10840365543E-01  0.14935631737E-01  0.10187188326E+01  0.10184068229E+01 0.  0.
     999903    2    3    3    0    0 -0.91229928460E-01  0.29526544697E-01 -0.84032663342E-01  0.12916378131E+00  0.20665846357E-01 0.  0.
         14    1    1    2    0    0  0.17176039709E-01  0.10840365543E-01 -0.14935631737E-01  0.25211167378E-01  0.00000000000E+00 0. -1.
     999901    1    3    3    0    0  0.74053888751E-01 -0.40366910241E-01  0.98968295079E-01  0.88955505131E+00  0.88000000000E+00 0.  1.
        -11    1    4    4    0    0 -0.55551190904E-01  0.72557833429E-02 -0.47475129968E-01  0.73435211508E-01  0.51100000000E-03 0.  1.
         11    1    4    4    0    0 -0.35678737556E-01  0.22270761354E-01 -0.36557533374E-01  0.55728569803E-01  0.51100000000E-03 0. -1.
</event>
<event>
 8    1  0.1030163E+005  0.1043930E+01  0.7957747E-01            NaN
         13   -1    0    0    0    0  0.00000000000E+00  0.00000000000E+00  0.74505805969E-08  0.10566000000E+00  0.10566000000E+00 0. -1.
     999900   -1    0    0    0    0 -0.00000000000E+00 -0.00000000000E+00 -0.74505805969E-08  0.93827000000E+00  0.93827000000E+00 0.  1.
     999902    2    1    2    0    0  0.65306765652E-02 -0.16684618477E-01  0.15254134574E-01  0.10203988536E+01  0.10201274947E+01 0.  0.
     999903    2    3    3    0    0 -0.10224569066E-01 -0.13061465567E+00  0.86809721727E-02  0.13287195366E+00  0.20368276870E-01 0.  0.
         14    1    1    2    0    0 -0.65306765652E-02  0.16684618477E-01 -0.15254134574E-01  0.23531146417E-01  0.00000000000E+00 0.  1.
     999901    1    3    3    0    0  0.16755245631E-01  0.11393003719E+00  0.65731624015E-02  0.88752689993E+00  0.88000000000E+00 0. -1.
        -11    1    4    4    0    0  0.22767850533E-02 -0.62095411367E-01  0.11356038008E-01  0.63168382782E-01  0.51100000000E-03 0.  1.
         11    1    4    4    0    0 -0.12501354119E-01 -0.68519244300E-01 -0.26750658356E-02  0.69703570873E-01  0.51100000000E-03 0. -1.
</event>
<event>
 8    1  0.1030163E+005  0.1043930E+01  0.7957747E-01            NaN
         13   -1    0    0    0    0  0.00000000000E+00  0.00000000000E+00  0.74505805969E-08  0.10566000000E+00  0.10566000000E+00 0. -1.
     999900   -1    0    0    0    0 -0.00000000000E+00 -0.00000000000E+00 -0.74505805969E-08  0.93827000000E+00  0.93827000000E+00 0. -1.
     999902    2    1    2    0    0  0.22994734242E-01  0.43277154776E-02  0.41145817482E-02  0.10201725442E+01  0.10198958786E+01 0.  0.
     999903    2    3    3    0    0 -0.95939061312E-01  0.78338294030E-01  0.30267247796E-01  0.12870926653E+00  0.17572057463E-01 0.  0.
         14    1    1    2    0    0 -0.22994734242E-01 -0.43277154776E-02 -0.41145817482E-02  0.23757455821E-01  0.00000000000E+00 0.  1.
     999901    1    3    3    0    0  0.11893379555E+00 -0.74010578553E-01 -0.26152666048E-01  0.89146327765E+00  0.88000000000E+00 0.  1.
        -11    1    4    4    0    0 -0.39055156759E-01  0.25670375378E-01  0.42311700799E-02  0.46930132780E-01  0.51100000000E-03 0. -1.
         11    1    4    4    0    0 -0.56883904554E-01  0.52667918653E-01  0.26036077716E-01  0.81779133747E-01  0.51100000000E-03 0.  1.
</event>
<event>
 8    1  0.1030163E+005  0.1043930E+01  0.7957747E-01            NaN
         13   -1    0    0    0    0  0.00000000000E+00  0.00000000000E+00  0.74505805969E-08  0.10566000000E+00  0.10566000000E+00 0.  1.
     999900   -1    0    0    0    0 -0.00000000000E+00 -0.00000000000E+00 -0.74505805969E-08  0.93827000000E+00  0.93827000000E+00 0.  1.
     999902    2    1    2    0    0 -0.22038313569E-01  0.70982691544E-02  0.50640036180E-02  0.10202294341E+01  0.10199541075E+01 0.  0.
     999903    2    3    3    0    0 -0.80537507933E-01 -0.47643675397E-01 -0.90142383314E-01  0.13147576052E+00  0.20100157874E-01 0.  0.
         14    1    1    2    0    0  0.22038313569E-01 -0.70982691544E-02 -0.50640036180E-02  0.23700565870E-01  0.00000000000E+00 0. -1.
     999901    1    3    3    0    0  0.58499194365E-01  0.54741944551E-01  0.95206386932E-01  0.88875367361E+00  0.88000000000E+00 0. -1.
        -11    1    4    4    0    0 -0.53782804588E-01 -0.30457505194E-01 -0.45901340652E-01  0.76989894705E-01  0.51100000000E-03 0.  1.
         11    1    4    4    0    0 -0.26754703345E-01 -0.17186170203E-01 -0.44241042661E-01  0.54485865819E-01  0.51100000000E-03 0. -1.
</event>
<event>
 8    1  0.1030163E+005  0.1043930E+01  0.7957747E-01            NaN
         13   -1    0    0    0    0  0.00000000000E+00  0.00000000000E+00  0.74505805969E-08  0.10566000000E+00  0.10566000000E+00 0.  1.
     999900   -1    0    0    0    0 -0.00000000000E+00 -0.00000000000E+00 -0.74505805969E-08  0.93827000000E+00  0.93827000000E+00 0.  1.
     999902    2    1    2    0    0 -0.47514850744E-03  0.18072430194E-01 -0.13946855908E-01  0.10210968380E+01  0.10208415152E+01 0.  0.
     999903    2    3    3    0    0  0.95194124690E-01 -0.22985745846E-01  0.82453985329E-01  0.12973187014E+00  0.21010296199E-01 0.  0.
         14    1    1    2    0    0  0.47514850744E-03 -0.18072430194E-01  0.13946855908E-01  0.22833162044E-01  0.00000000000E+00 0.  1.
     999901    1    3    3    0    0 -0.95669273198E-01  0.41058176040E-01 -0.96400841236E-01  0.89136496781E+00  0.88000000000E+00 0.  1.
        -11    1    4    4    0    0  0.64805757902E-01 -0.74279772764E-02  0.46227984759E-01  0.79951540320E-01  0.51100000000E-03 0. -1.
         11    1    4    4    0    0  0.30388366788E-01 -0.15557768569E-01  0.36226000570E-01  0.49780329822E-01  0.51100000000E-03 0.  1.
</event>
<event>
 8    1  0.1030163E+005  0.1043930E+01  0.7957747E-01            NaN
         13   -1    0    0    0    0  0.00000000000E+00  0.00000000000E+00  0.74505805969E-08  0.10566000000E+00  0.10566000000E+00 0.  1.
     999900   -1    0    0    0    0 -0.00000000000E+00 -0.00000000000E+00 -0.74505805969E-08  0.93827000000E+00  0.93827000000E+00 0.  1.
     999902    2    1    2    0    0 -0.21119008315E-01  0.83846616660E-02  0.71682038145E-02  0.10201035817E+01  0.10198252886E+01 0.  0.
     999903    2    3    3    0    0  0.42074756504E-01 -0.30660086293E-02  0.12177970370E+00  0.13035060155E+00  0.19526841745E-01 0.  0.
         14    1    1    2    0    0  0.21119008315E-01 -0.83846616660E-02 -0.71682038145E-02  0.23826418308E-01  0.00000000000E+00 0. -1.
     999901    1    3    3    0    0 -0.63193764819E-01  0.11450670295E-01 -0.11461149988E+00  0.88975298014E+00  0.88000000000E+00 0.  1.
        -11    1    4    4    0    0  0.11753130475E-01  0.43328417321E-02  0.17696321768E-01  0.21687104891E-01  0.51100000000E-03 0. -1.
         11    1    4    4    0    0  0.30321626029E-01 -0.73988503615E-02  0.10408338193E+00  0.10866349666E+00  0.51100000000E-03 0.  1.
</event>
<event>
 8    1  0.1030163E+005  0.1043930E+01  0.7957747E-01            NaN
         13   -1    0    0    0    0  0.00000000000E+00  0.00000000000E+00  0.74505805969E-08  0.10566000000E+00  0.10566000000E+00 0.  1.
     999900   -1    0    0    0    0 -0.00000000000E+00 -0.00000000000E+00 -0.74505805969E-08  0.93827000000E+00  0.93827000000E+00 0.  1.
     999902    2    1    2    0    0 -0.18923280211E-01 -0.10146254572E-01 -0.95509308637E-02  0.10204298448E+01  0.10201592085E+01 0.  0.
     999903    2    3    3    0    0 -0.78106551526E-01  0.27543757663E-01  0.99455608581E-01  0.13093244608E+00  0.19814019791E-01 0.  0.
         14    1    1    2    0    0  0.18923280211E-01  0.10146254572E-01  0.95509308637E-02  0.23500155237E-01  0.00000000000E+00 0. -1.
     999901    1    3    3    0    0  0.59183271316E-01 -0.37690012236E-01 -0.10900653944E+00  0.88949739869E+00  0.88000000000E+00 0.  1.
        -11    1    4    4    0    0 -0.10582313022E-01 -0.18670418173E-02  0.74893246935E-02  0.13108100526E-01  0.51100000000E-03 0.  1.
         11    1    4    4    0    0 -0.67524238505E-01  0.29410799481E-01  0.91966283887E-01  0.11782434555E+00  0.51100000000E-03 0. -1.
</event>
<event>
 8    1  0.1030163E+005  0.1043930E+01  0.7957747E-01            NaN
         13   -1    0    0    0    0  0.00000000000E+00  0.00000000000E+00  0.74505805969E-08  0.10566000000E+00  0.10566000000E+00 0.  1.
     999900   -1    0    0    0    0 -0.00000000000E+00 -0.00000000000E+00 -0.74505805969E-08  0.93827000000E+00  0.93827000000E+00 0.  1.
     999902    2    1    2    0    0 -0.10867360560E-01  0.20291292225E-01  0.74222290044E-02  0.10197447659E+01  0.10194579256E+01 0.  0.
     999903    2    3    3    0    0 -0.43228053505E-01  0.11476628500E+00  0.48019417338E-01  0.13316658524E+00  0.19685278738E-01 0.  0.
         14    1    1    2    0    0  0.10867360560E-01 -0.20291292225E-01 -0.74222290044E-02  0.24185234113E-01  0.00000000000E+00 0. -1.
     999901    1    3    3    0    0  0.32360692945E-01 -0.94474992776E-01 -0.40597188334E-01  0.88657818065E+00  0.88000000000E+00 0.  1.
        -11    1    4    4    0    0 -0.21839630402E-01  0.67876641003E-01  0.37496573519E-01  0.80563403581E-01  0.51100000000E-03 0.  1.
         11    1    4    4    0    0 -0.21388423103E-01  0.46889643998E-01  0.10522843819E-01  0.52603181654E-01  0.51100000000E-03 0. -1.
</event>
<event>
 8    1  0.1030163E+005  0.1043930E+01  0.7957747E-01            NaN
         13   -1    0    0    0    0  0.00000000000E+00  0.00000000000E+00  0.74505805969E-08  0.10566000000E+00  0.10566000000E+00 0.  1.
     999900   -1    0    0    0    0 -0.00000000000E+00 -0.00000000000E+00 -0.74505805969E-08  0.93827000000E+00  0.93827000000E+00 0.  1.
     999902    2    1    2    0    0  0.11391342729E-03  0.22138251552E-01 -0.35039952906E-02  0.10215158718E+01  0.10212699365E+01 0.  0.
     999903    2    3    3    0    0  0.11122134929E+00  0.44095249551E-01 -0.53801215017E-01  0.13283326125E+00  0.20869235385E-01 0.  0.
         14    1    1    2    0    0 -0.11391342729E-03 -0.22138251552E-01  0.35039952906E-02  0.22414128157E-01  0.00000000000E+00 0.  1.
     999901    1    3    3    0    0 -0.11110743586E+00 -0.21956997999E-01  0.50297219726E-01  0.88868261060E+00  0.88000000000E+00 0. -1.
        -11    1    4    4    0    0  0.30048780877E-01  0.84338661998E-02 -0.23730634364E-01  0.39210501904E-01  0.51100000000E-03 0. -1.
         11    1    4    4    0    0  0.81172568411E-01  0.35661383351E-01 -0.30070580653E-01  0.93622759342E-01  0.51100000000E-03 0.  1.
</event>
<event>
 8    1  0.1030163E+005  0.1043930E+01  0.7957747E-01            NaN
         13   -1    0    0    0    0  0.00000000000E+00  0.00000000000E+00  0.74505805969E-08  0.10566000000E+00  0.10566000000E+00 0. -1.
     999900   -1    0    0    0    0 -0.00000000000E+00 -0.00000000000E+00 -0.74505805969E-08  0.93827000000E+00  0.93827000000E+00 0. -1.
     999902    2    1    2    0    0 -0.21709666660E-01  0.60124753379E-02  0.11161941630E-01  0.10187894267E+01  0.10184791836E+01 0.  0.
     999903    2    3    3    0    0 -0.10320352414E+00  0.35186408893E-01  0.72398289610E-01  0.13242479656E+00  0.20143575613E-01 0.  0.
         14    1    1    2    0    0  0.21709666660E-01 -0.60124753379E-02 -0.11161941630E-01  0.25140573326E-01  0.00000000000E+00 0.  1.
     999901    1    3    3    0    0  0.81493857484E-01 -0.29173933555E-01 -0.61236347980E-01  0.88636463012E+00  0.88000000000E+00 0. -1.
        -11    1    4    4    0    0 -0.60505607571E-01  0.12873947332E-01  0.48708567226E-01  0.78736603367E-01  0.51100000000E-03 0. -1.
         11    1    4    4    0    0 -0.42697916573E-01  0.22312461561E-01  0.23689722384E-01  0.53688193191E-01  0.51100000000E-03 0.  1.
</event>
<event>
 8    1  0.1030163E+005  0.1043930E+01  0.7957747E-01            NaN
         13   -1    0    0    0    0  0.00000000000E+00  0.00000000000E+00  0.74505805969E-08  0.10566000000E+00  0.10566000000E+00 0. -1.
     999900   -1    0    0    0    0 -0.00000000000E+00 -0.00000000000E+00 -0.74505805969E-08  0.93827000000E+00  0.93827000000E+00 0.  1.
     999902    2    1    2    0    0 -0.16859369167E-01  0.25361648233E-01  0.99324115368E-02  0.10118971367E+01  0.10113899896E+01 0.  0.
     999903    2    3    3    0    0 -0.46014433015E-01  0.11458685861E+00  0.13258544916E-01  0.12689870788E+00  0.26077132460E-01 0.  0.
         14    1    1    2    0    0  0.16859369167E-01 -0.25361648233E-01 -0.99324115368E-02  0.32032863261E-01  0.00000000000E+00 0.  1.
     999901    1    3    3    0    0  0.29155063848E-01 -0.89225210377E-01 -0.33261333794E-02  0.88499842886E+00  0.88000000000E+00 0. -1.
        -11    1    4    4    0    0 -0.34581071871E-01  0.60552939539E-01 -0.14229651787E-02  0.69748082192E-01  0.51100000000E-03 0. -1.
         11    1    4    4    0    0 -0.11433361144E-01  0.54033919070E-01  0.14681510095E-01  0.57150625690E-01  0.51100000000E-03 0.  1.
</event>
<event>
 8    1  0.1030163E+005  0.1043930E+01  0.7957747E-01            NaN
         13   -1    0    0    0    0  0.00000000000E+00  0.00000000000E+00  0.74505805969E-08  0.10566000000E+00  0.10566000000E+00 0.  1.
     999900   -1    0    0    0    0 -0.00000000000E+00 -0.00000000000E+00 -0.74505805969E-08  0.93827000000E+00  0.93827000000E+00 0.  1.
     999902    2    1    2    0    0 -0.18615378233E-01 -0.78849058617E-02 -0.10231362691E-01  0.10212720030E+01  0.10210206262E+01 0.  0.
     999903    2    3    3    0    0  0.10024577596E+00 -0.51367449712E-01  0.60522991302E-01  0.12940604655E+00  0.19876164661E-01 0.  0.
         14    1    1    2    0    0  0.18615378233E-01  0.78849058617E-02  0.10231362691E-01  0.22657997036E-01  0.00000000000E+00 0.  1.
     999901    1    3    3    0    0 -0.11886115419E+00  0.43482543850E-01 -0.70754353993E-01  0.89186595641E+00  0.88000000000E+00 0.  1.
        -11    1    4    4    0    0  0.42705441752E-01 -0.16395097475E-01  0.34154478865E-01  0.57090660568E-01  0.51100000000E-03 0.  1.
         11    1    4    4    0    0  0.57540334203E-01 -0.34972352236E-01  0.26368512437E-01  0.72315385986E-01  0.51100000000E-03 0. -1.
</event>
<event>
 8    1  0.1030163E+005  0.1043930E+01  0.7957747E-01            NaN
         13   -1    0    0    0    0  0.00000000000E+00  0.00000000000E+00  0.74505805969E-08  0.10566000000E+00  0.10566000000E+00 0. -1.
     999900   -1    0    0    0    0 -0.00000000000E+00 -0.00000000000E+00 -0.74505805969E-08  0.93827000000E+00  0.93827000000E+00 0. -1.
     999902    2    1    2    0    0  0.58838559353E-02  0.20588281209E-01  0.77601964698E-02  0.10211546244E+01  0.10209006069E+01 0.  0.
     999903    2    3    3    0    0 -0.12843975685E-02  0.45150089756E-01  0.12366611452E+00  0.13318567894E+00  0.20123044298E-01 0.  0.
         14    1    1    2    0    0 -0.58838559353E-02 -0.20588281209E-01 -0.77601964698E-02  0.22775375585E-01  0.00000000000E+00 0.  1.
     999901    1    3    3    0    0  0.71682535038E-02 -0.24561808547E-01 -0.11590591805E+00  0.88796894548E+00  0.88000000000E+00 0. -1.
        -11    1    4    4    0    0  0.91001463586E-02  0.25334906281E-01  0.72600047778E-01  0.77431893935E-01  0.51100000000E-03 0.  1.
         11    1    4    4    0    0 -0.10384543927E-01  0.19815183475E-01  0.51066066738E-01  0.55753785000E-01  0.51100000000E-03 0. -1.
</event>
<event>
 8    1  0.1030163E+005  0.1043930E+01  0.7957747E-01            NaN
         13   -1    0    0    0    0  0.00000000000E+00  0.00000000000E+00  0.74505805969E-08  0.10566000000E+00  0.10566000000E+00 0. -1.
     999900   -1    0    0    0    0 -0.00000000000E+00 -0.00000000000E+00 -0.74505805969E-08  0.93827000000E+00  0.93827000000E+00 0.  1.
     999902    2    1    2    0    0 -0.30714716250E-02  0.21769800025E-01  0.77862275022E-02  0.10206065468E+01  0.10203400119E+01 0.  0.
     999903    2    3    3    0    0  0.93403157194E-01 -0.73477774591E-01 -0.45146922317E-01  0.12865286367E+00  0.19753015038E-01 0.  0.
         14    1    1    2    0    0  0.30714716250E-02 -0.21769800025E-01 -0.77862275022E-02  0.23323453213E-01  0.00000000000E+00 0. -1.
     999901    1    3    3    0    0 -0.96474628819E-01  0.95247574616E-01  0.52933149820E-01  0.89195368312E+00  0.88000000000E+00 0.  1.
        -11    1    4    4    0    0  0.74964994886E-01 -0.63171408388E-01 -0.29550446098E-01  0.10239075779E+00  0.51100000000E-03 0.  1.
         11    1    4    4    0    0  0.18438162307E-01 -0.10306366204E-01 -0.15596476219E-01  0.26262105876E-01  0.51100000000E-03 0. -1.
</event>
<event>
 8    1  0.1030163E+005  0.1043930E+01  0.7957747E-01            NaN
         13   -1    0    0    0    0  0.00000000000E+00  0.00000000000E+00  0.74505805969E-08  0.10566000000E+00  0.10566000000E+00 0. -1.
     999900   -1    0    0    0    0 -0.00000000000E+00 -0.00000000000E+00 -0.74505805969E-08  0.93827000000E+00  0.93827000000E+00 0.  1.
     999902    2    1    2    0    0 -0.41453371758E-02  0.17999716293E-01  0.15189001821E-01  0.10200160003E+01  0.10197356331E+01 0.  0.
     999903    2    3    3    0    0  0.12500129336E+00  0.14681221059E-01 -0.24064990603E-01  0.12971788137E+00  0.20167879953E-01 0.  0.
         14    1    1    2    0    0  0.41453371758E-02 -0.17999716293E-01 -0.15189001821E-01  0.23913999734E-01  0.00000000000E+00 0.  1.
     999901    1    3    3    0    0 -0.12914663053E+00  0.33184952339E-02  0.39253992424E-01  0.89029811890E+00  0.88000000000E+00 0. -1.
        -11    1    4    4    0    0  0.77100583197E-01  0.60096194693E-02 -0.24205511347E-01  0.81035691865E-01  0.51100000000E-03 0. -1.
         11    1    4    4    0    0  0.47900710160E-01  0.86716015902E-02  0.14052074365E-03  0.48682189505E-01  0.51100000000E-03 0.  1.
</event>
<event>
 8    1  0.1030163E+005  0.1043930E+01  0.7957747E-01            NaN
         13   -1    0    0    0    0  0.00000000000E+00  0.00000000000E+00  0.74505805969E-08  0.10566000000E+00  0.10566000000E+00 0.  1.
     999900   -1    0    0    0    0 -0.00000000000E+00 -0.00000000000E+00 -0.74505805969E-08  0.93827000000E+00  0.93827000000E+00 0. -1.
     999902    2    1    2    0    0  0.13967873075E-01  0.13315100893E-01 -0.13881313838E-01  0.10201584989E+01  0.10198815023E+01 0.  0.
     999903    2    3    3    0    0 -0.85041652712E-01  0.76027414612E-01 -0.63326603774E-01  0.13101252823E+00  0.11906860997E-01 0.  0.
         14    1    1    2    0    0 -0.13967873075E-01 -0.13315100893E-01  0.13881313838E-01  0.23771501086E-01  0.00000000000E+00 0.  1.
     999901    1    3    3    0    0  0.99009525787E-01 -0.62712313719E-01  0.49445289937E-01  0.88914597068E+00  0.88000000000E+00 0. -1.
        -11    1    4    4    0    0 -0.26442016904E-01  0.23921397412E-01 -0.13643770072E-01  0.38181501999E-01  0.51100000000E-03 0.  1.
         11    1    4    4    0    0 -0.58599635807E-01  0.52106017200E-01 -0.49682833703E-01  0.92831026230E-01  0.51100000000E-03 0. -1.
</event>
<event>
 8    1  0.1030163E+005  0.1043930E+01  0.7957747E-01            NaN
         13   -1    0    0    0    0  0.00000000000E+00  0.00000000000E+00  0.74505805969E-08  0.10566000000E+00  0.10566000000E+00 0.  1.
     999900   -1    0    0    0    0 -0.00000000000E+00 -0.00000000000E+00 -0.74505805969E-08  0.93827000000E+00  0.93827000000E+00 0.  1.
     999902    2    1    2    0    0  0.11059831257E-01  0.18597973853E-01 -0.10350285425E-01  0.10199439018E+01  0.10196618213E+01 0.  0.
     999903    2    3    3    0    0  0.12347242601E+00 -0.27963540861E-01  0.26106946665E-01  0.13082428336E+00  0.20149959060E-01 0.  0.
         14    1    1    2    0    0 -0.11059831257E-01 -0.18597973853E-01  0.10350285425E-01  0.23986098209E-01  0.00000000000E+00 0.  1.
     999901    1    3    3    0    0 -0.11241259475E+00  0.46561514714E-01 -0.36457232090E-01  0.88911961843E+00  0.88000000000E+00 0.  1.
        -11    1    4    4    0    0  0.90526694742E-01 -0.29472913314E-01  0.18958379881E-01  0.97074282737E-01  0.51100000000E-03 0.  1.
         11    1    4    4    0    0  0.32945731266E-01  0.15093724533E-02  0.71485667839E-02  0.33750000621E-01  0.51100000000E-03 0. -1.
</event>
<event>
 8    1  0.1030163E+005  0.1043930E+01  0.7957747E-01            NaN
         13   -1    0    0    0    0  0.00000000000E+00  0.00000000000E+00  0.74505805969E-08  0.10566000000E+00  0.10566000000E+00 0.  1.
     999900   -1    0    0    0    0 -0.00000000000E+00 -0.00000000000E+00 -0.74505805969E-08  0.93827000000E+00  0.93827000000E+00 0. -1.
     999902    2    1    2    0    0  0.14259533880E-01  0.18256355320E-01  0.36916466752E-02  0.10204724411E+01  0.10202027965E+01 0.  0.
     999903    2    3    3    0    0  0.65897081555E-01  0.67570561559E-01  0.91840815954E-01  0.13319086044E+00  0.19921437779E-01 0.  0.
         14    1    1    2    0    0 -0.14259533880E-01 -0.18256355320E-01 -0.36916466752E-02  0.23457558936E-01  0.00000000000E+00 0. -1.
     999901    1    3    3    0    0 -0.51637547675E-01 -0.49314206239E-01 -0.88149169279E-01  0.88728158062E+00  0.88000000000E+00 0.  1.
        -11    1    4    4    0    0  0.26081228044E-01  0.19337015463E-01  0.42728569674E-01  0.53666958277E-01  0.51100000000E-03 0.  1.
         11    1    4    4    0    0  0.39815853511E-01  0.48233546097E-01  0.49112246280E-01  0.79523902165E-01  0.51100000000E-03 0. -1.
</event>
<event>
 8    1  0.1030163E+005  0.1043930E+01  0.7957747E-01            NaN
         13   -1    0    0    0    0  0.00000000000E+00  0.00000000000E+00  0.74505805969E-08  0.10566000000E+00  0.10566000000E+00 0. -1.
     999900   -1    0    0    0    0 -0.00000000000E+00 -0.00000000000E+00 -0.74505805969E-08  0.93827000000E+00  0.93827000000E+00 0.  1.
     999902    2    1    2    0    0 -0.14994996627E-01 -0.14390162831E-01  0.62759278487E-02  0.10222202331E+01  0.10219896726E+01 0.  0.
     999903    2    3    3    0    0  0.28521301685E-01  0.94399291895E-01 -0.83127133741E-01  0.12996369983E+00  0.15992246517E-01 0.  0.
         14    1    1    2    0    0  0.14994996627E-01  0.14390162831E-01 -0.62759278487E-02  0.21709766938E-01  0.00000000000E+00 0. -1.
     999901    1    3    3    0    0 -0.43516298312E-01 -0.10878945473E+00  0.89403061590E-01  0.89225653323E+00  0.88000000000E+00 0. -1.
        -11    1    4    4    0    0  0.14682537669E-01  0.70075970290E-01 -0.55022322920E-01  0.90299145428E-01  0.51100000000E-03 0.  1.
         11    1    4    4    0    0  0.13838764017E-01  0.24323321605E-01 -0.28104810821E-01  0.39664554399E-01  0.51100000000E-03 0. -1.
</event>
<event>
 8    1  0.1030163E+005  0.1043930E+01  0.7957747E-01            NaN
         13   -1    0    0    0    0  0.00000000000E+00  0.00000000000E+00  0.74505805969E-08  0.10566000000E+00  0.10566000000E+00 0. -1.
     999900   -1    0    0    0    0 -0.00000000000E+00 -0.00000000000E+00 -0.74505805969E-08  0.93827000000E+00  0.93827000000E+00 0.  1.
     999902    2    1    2    0    0  0.34160955760E-02  0.11930080720E-01 -0.20181042450E-01  0.10202388411E+01  0.10199637356E+01 0.  0.
     999903    2    3    3    0    0 -0.61025021463E-02 -0.15157652002E-01 -0.13038070942E+00  0.13290107252E+00  0.19914084028E-01 0.  0.
         14    1    1    2    0    0 -0.34160955760E-02 -0.11930080720E-01  0.20181042450E-01  0.23691158885E-01  0.00000000000E+00 0. -1.
     999901    1    3    3    0    0  0.95185977223E-02  0.27087732722E-01  0.11019966697E+00  0.88733776859E+00  0.88000000000E+00 0. -1.
        -11    1    4    4    0    0 -0.13261584506E-01 -0.81393635246E-02 -0.72044253352E-01  0.73707220978E-01  0.51100000000E-03 0. -1.
         11    1    4    4    0    0  0.71590823601E-02 -0.70182884777E-02 -0.58336456067E-01  0.59193851546E-01  0.51100000000E-03 0.  1.
</event>
<event>
 8    1  0.1030163E+005  0.1043930E+01  0.7957747E-01            NaN
         13   -1    0    0    0    0  0.00000000000E+00  0.00000000000E+00  0.74505805969E-08  0.10566000000E+00  0.10566000000E+00 0. -1.
     999900   -1    0    0    0    0 -0.00000000000E+00 -0.00000000000E+00 -0.74505805969E-08  0.93827000000E+00  0.93827000000E+00 0. -1.
     999902    2    1    2    0    0  0.25930814976E-02 -0.12500947827E-01  0.19066600192E-01  0.10209836929E+01  0.10207258046E+01 0.  0.
     999903    2    3    3    0    0 -0.74518342316E-01 -0.86023140415E-01  0.66442305915E-01  0.13329222508E+00  0.19981822321E-01 0.  0.
         14    1    1    2    0    0 -0.25930814976E-02  0.12500947827E-01 -0.19066600192E-01  0.22946307134E-01  0.00000000000E+00 0.  1.
     999901    1    3    3    0    0  0.77111423814E-01  0.73522192587E-01 -0.47375705724E-01  0.88769146778E+00  0.88000000000E+00 0. -1.
        -11    1    4    4    0    0 -0.29162794864E-01 -0.35502478072E-01  0.15790586043E-01  0.48584959423E-01  0.51100000000E-03 0. -1.
         11    1    4    4    0    0 -0.45355547452E-01 -0.50520662343E-01  0.50651719872E-01  0.84707265658E-01  0.51100000000E-03 0.  1.
</event>
<event>
 8    1  0.1030163E+005  0.1043930E+01  0.7957747E-01            NaN
         13   -1    0    0    0    0  0.00000000000E+00  0.00000000000E+00  0.74505805969E-08  0.10566000000E+00  0.10566000000E+00 0.  1.
     999900   -1    0    0    0    0 -0.00000000000E+00 -0.00000000000E+00 -0.74505805969E-08  0.93827000000E+00  0.93827000000E+00 0. -1.
     999902    2    1    2    0    0 -0.58972277402E-02  0.22058157759E-01 -0.10480386595E-01  0.10188067414E+01  0.10184969309E+01 0.  0.
     999903    2    3    3    0    0 -0.39216571729E-01  0.12420235101E+00  0.85186084252E-02  0.13206857447E+00  0.20134005542E-01 0.  0.
         14    1    1    2    0    0  0.58972277402E-02 -0.22058157759E-01  0.10480386595E-01  0.25123258585E-01  0.00000000000E+00 0.  1.
     999901    1    3    3    0    0  0.33319343989E-01 -0.10214419325E+00 -0.18998995021E-01  0.88673816694E+00  0.88000000000E+00 0. -1.
        -11    1    4    4    0    0 -0.15790200092E-01  0.82073146680E-01  0.60382103905E-02  0.83797690486E-01  0.51100000000E-03 0.  1.
         11    1    4    4    0    0 -0.23426371637E-01  0.42129204330E-01  0.24803980347E-02  0.48270883988E-01  0.51100000000E-03 0. -1.
</event>
<event>
 8    1  0.1030163E+005  0.1043930E+01  0.7957747E-01            NaN
         13   -1    0    0    0    0  0.00000000000E+00  0.00000000000E+00  0.74505805969E-08  0.10566000000E+00  0.10566000000E+00 0.  1.
     999900   -1    0    0    0    0 -0.00000000000E+00 -0.00000000000E+00 -0.74505805969E-08  0.93827000000E+00  0.93827000000E+00 0.  1.
     999902    2    1    2    0    0  0.17691815370E-01  0.15495883012E-01 -0.83084452587E-02  0.10189870053E+01  0.10186816794E+01 0.  0.
     999903    2    3    3    0    0  0.61437642047E-01  0.10465584137E+00  0.46841926558E-01  0.13168505049E+00  0.20478218778E-01 0.  0.
         14    1    1    2    0    0 -0.17691815370E-01 -0.15495883012E-01  0.83084452587E-02  0.24942994689E-01  0.00000000000E+00 0.  1.
     999901    1    3    3    0    0 -0.43745826677E-01 -0.89159958359E-01 -0.55150371817E-01  0.88730195483E+00  0.88000000000E+00 0. -1.
        -11    1    4    4    0    0  0.27160982940E-01  0.51536957821E-01  0.33042843402E-01  0.66976620076E-01  0.51100000000E-03 0.  1.
         11    1    4    4    0    0  0.34276659106E-01  0.53118883550E-01  0.13799083157E-01  0.64708430410E-01  0.51100000000E-03 0. -1.
</event>
<event>
 8    1  0.1030163E+005  0.1043930E+01  0.7957747E-01            NaN
         13   -1    0    0    0    0  0.00000000000E+00  0.00000000000E+00  0.74505805969E-08  0.10566000000E+00  0.10566000000E+00 0. -1.
     999900   -1    0    0    0    0 -0.00000000000E+00 -0.00000000000E+00 -0.74505805969E-08  0.93827000000E+00  0.93827000000E+00 0.  1.
     999902    2    1    2    0    0 -0.64741846787E-02 -0.20225660089E-01 -0.10102947295E-01  0.10204127311E+01  0.10201416960E+01 0.  0.
     999903    2    3    3    0    0  0.11319463469E+00  0.49838878329E-01 -0.32248214137E-01  0.12927857804E+00  0.19392377650E-01 0.  0.
         14    1    1    2    0    0  0.64741846787E-02  0.20225660089E-01  0.10102947295E-01  0.23517268918E-01  0.00000000000E+00 0.  1.
     999901    1    3    3    0    0 -0.11966881936E+00 -0.70064538418E-01  0.22145266841E-01  0.89113415304E+00  0.88000000000E+00 0. -1.
        -11    1    4    4    0    0  0.50171954150E-01  0.32449825341E-01 -0.17377812102E-01  0.62229138049E-01  0.51100000000E-03 0.  1.
         11    1    4    4    0    0  0.63022680535E-01  0.17389052988E-01 -0.14870402034E-01  0.67049439993E-01  0.51100000000E-03 0. -1.
</event>
<event>
 8    1  0.1030163E+005  0.1043930E+01  0.7957747E-01            NaN
         13   -1    0    0    0    0  0.00000000000E+00  0.00000000000E+00  0.74505805969E-08  0.10566000000E+00  0.10566000000E+00 0.  1.
     999900   -1    0    0    0    0 -0.00000000000E+00 -0.00000000000E+00 -0.74505805969E-08  0.93827000000E+00  0.93827000000E+00 0. -1.
     999902    2    1    2    0    0  0.19404408794E-01 -0.76201307453E-02 -0.99323930504E-02  0.10208377956E+01  0.10205765797E+01 0.  0.
     999903    2    3    3    0    0  0.16928539836E-01  0.12575832889E+00  0.21553320774E-01  0.13022716596E+00  0.19820100171E-01 0.  0.
         14    1    1    2    0    0 -0.19404408794E-01  0.76201307453E-02  0.99323930504E-02  0.23092204419E-01  0.00000000000E+00 0.  1.
     999901    1    3    3    0    0  0.24758689588E-02 -0.13337845964E+00 -0.31485713825E-01  0.89061062962E+00  0.88000000000E+00 0.  1.
        -11    1    4    4    0    0  0.21243132262E-01  0.96669772304E-01  0.18016529467E-01  0.10060403571E+00  0.51100000000E-03 0.  1.
         11    1    4    4    0    0 -0.43145924265E-02  0.29088556586E-01  0.35367913076E-02  0.29623130250E-01  0.51100000000E-03 0. -1.
</event>
<event>
 8    1  0.1030163E+005  0.1043930E+01  0.7957747E-01            NaN
         13   -1    0    0    0    0  0.00000000000E+00  0.00000000000E+00  0.74505805969E-08  0.10566000000E+00  0.10566000000E+00 0.  1.
     999900   -1    0    0    0    0 -0.00000000000E+00 -0.00000000000E+00 -0.74505805969E-08  0.93827000000E+00  0.93827000000E+00 0.  1.
     999902    2    1    2    0    0  0.77480654245E-03  0.18586028538E-01  0.16100237753E-01  0.10193279993E+01  0.10190310652E+01 0.  0.
     999903    2    3    3    0    0 -0.71349584979E-01  0.93694512814E-01  0.56136556221E-01  0.13228452853E+00  0.21873695081E-01 0.  0.
         14    1    1    2    0    0 -0.77480654245E-03 -0.18586028538E-01 -0.16100237753E-01  0.24602000685E-01  0.00000000000E+00 0. -1.
     999901    1    3    3    0    0  0.72124391521E-01 -0.75108484276E-01 -0.40036318467E-01  0.88704347078E+00  0.88000000000E+00 0.  1.
        -11    1    4    4    0    0 -0.34681132499E-01  0.63138823898E-01  0.32901412795E-01  0.79196313800E-01  0.51100000000E-03 0. -1.
         11    1    4    4    0    0 -0.36668452480E-01  0.30555688916E-01  0.23235143426E-01  0.53088214732E-01  0.51100000000E-03 0.  1.
</event>
<event>
 7    1  0.1030163E+005  0.1043930E+01  0.7957747E-01            NaN
         13   -1    0    0    0    0  0.00000000000E+00  0.00000000000E+00  0.74505805969E-08  0.10566000000E+00  0.10566000000E+00 0. -1.
     999900   -1    0    0    0    0 -0.00000000000E+00 -0.00000000000E+00 -0.74505805969E-08  0.93827000000E+00  0.93827000000E+00 0. -1.
     999902    2    1    2    0    0 -0.12779707625E-01 -0.53986085594E-02 -0.19662371660E-01  0.10198660277E+01  0.10195820908E+01 0.  0.
         14    1    1    2    0    0  0.12779707625E-01  0.53986085594E-02  0.19662371660E-01  0.24063972254E-01  0.00000000000E+00 0. -1.
     999901    1    3    3    0    0 -0.51573772802E-01  0.10323863409E+00  0.42872106004E-01  0.88856968612E+00  0.88000000000E+00 0.  1.
        -11    1    3    3    0    0  0.12877692433E-01 -0.42097009861E-01 -0.24736953845E-01  0.50499219877E-01  0.51100000000E-03 0.  1.
         11    1    3    3    0    0  0.25916372744E-01 -0.66540232789E-01 -0.37797523819E-01  0.80797121753E-01  0.51100000000E-03 0. -1.
</event>
<event>
 8    1  0.1030163E+005  0.1043930E+01  0.7957747E-01            NaN
         13   -1    0    0    0    0  0.00000000000E+00  0.00000000000E+00  0.74505805969E-08  0.10566000000E+00  0.10566000000E+00 0.  1.
     999900   -1    0    0    0    0 -0.00000000000E+00 -0.00000000000E+00 -0.74505805969E-08  0.93827000000E+00  0.93827000000E+00 0. -1.
     999902    2    1    2    0    0 -0.14137266789E-01 -0.22416710905E-02 -0.19303369742E-01  0.10198986146E+01  0.10196154552E+01 0.  0.
     999903    2    3    3    0    0 -0.49556484015E-02  0.80618296858E-01  0.97557289989E-01  0.12826725006E+00  0.20277928143E-01 0.  0.
         14    1    1    2    0    0  0.14137266789E-01  0.22416710905E-02  0.19303369742E-01  0.24031385415E-01  0.00000000000E+00 0.  1.
     999901    1    3    3    0    0 -0.91816183876E-02 -0.82859967948E-01 -0.11686065973E+00  0.89163136452E+00  0.88000000000E+00 0. -1.
        -11    1    4    4    0    0 -0.70507269973E-02  0.68475073712E-01  0.70514919756E-01  0.98545235807E-01  0.51100000000E-03 0.  1.
         11    1    4    4    0    0  0.20950785958E-02  0.12143223145E-01  0.27042370234E-01  0.29722014258E-01  0.51100000000E-03 0. -1.
</event>
<event>
 8    1  0.1030163E+005  0.1043930E+01  0.7957747E-01            NaN
         13   -1    0    0    0    0  0.00000000000E+00  0.00000000000E+00  0.74505805969E-08  0.10566000000E+00  0.10566000000E+00 0. -1.
     999900   -1    0    0    0    0 -0.00000000000E+00 -0.00000000000E+00 -0.74505805969E-08  0.93827000000E+00  0.93827000000E+00 0. -1.
     999902    2    1    2    0    0  0.66081514099E-02  0.20602043781E-01 -0.95300031932E-02  0.10202882396E+01  0.10200142936E+01 0.  0.
     999903    2    3    3    0    0  0.10333407706E+00 -0.73158257222E-01 -0.21300490291E-01  0.12995939975E+00  0.20141316116E-01 0.  0.
         14    1    1    2    0    0 -0.66081514099E-02 -0.20602043781E-01  0.95300031932E-02  0.23641760380E-01  0.00000000000E+00 0. -1.
     999901    1    3    3    0    0 -0.96725925651E-01  0.93760301003E-01  0.11770487098E-01  0.89032883987E+00  0.88000000000E+00 0.  1.
        -11    1    4    4    0    0  0.63263377912E-01 -0.32542916815E-01 -0.11888739819E-01  0.72131128337E-01  0.51100000000E-03 0.  1.
         11    1    4    4    0    0  0.40070699149E-01 -0.40615340407E-01 -0.94117504719E-02  0.57828271413E-01  0.51100000000E-03 0. -1.
</event>
<event>
 8    1  0.1030163E+005  0.1043930E+01  0.7957747E-01            NaN
         13   -1    0    0    0    0  0.00000000000E+00  0.00000000000E+00  0.74505805969E-08  0.10566000000E+00  0.10566000000E+00 0. -1.
     999900   -1    0    0    0    0 -0.00000000000E+00 -0.00000000000E+00 -0.74505805969E-08  0.93827000000E+00  0.93827000000E+00 0.  1.
     999902    2    1    2    0    0 -0.22598480095E-01  0.53489129143E-02  0.13377813069E-03  0.10207067343E+01  0.10204425106E+01 0.  0.
     999903    2    3    3    0    0  0.10883629883E-01 -0.85338599550E-01  0.95596082655E-01  0.13028080917E+00  0.20817018191E-01 0.  0.
         14    1    1    2    0    0  0.22598480095E-01 -0.53489129143E-02 -0.13377813069E-03  0.23223265674E-01  0.00000000000E+00 0.  1.
     999901    1    3    3    0    0 -0.33482109978E-01  0.90687512465E-01 -0.95462304524E-01  0.89042592516E+00  0.88000000000E+00 0.  1.
        -11    1    4    4    0    0  0.58944142518E-02 -0.70054168335E-01  0.87582937924E-01  0.11230922828E+00  0.51100000000E-03 0. -1.
         11    1    4    4    0    0  0.49892156309E-02 -0.15284431216E-01  0.80131447304E-02  0.17971580890E-01  0.51100000000E-03 0.  1.
</event>
<event>
 7    1  0.1030163E+005  0.1043930E+01  0.7957747E-01            NaN
         13   -1    0    0    0    0  0.00000000000E+00  0.00000000000E+00  0.74505805969E-08  0.10566000000E+00  0.10566000000E+00 0. -1.
     999900   -1    0    0    0    0 -0.00000000000E+00 -0.00000000000E+00 -0.74505805969E-08  0.93827000000E+00  0.93827000000E+00 0. -1.
     999903    2    1    2    0    0 -0.19362926719E-01 -0.29370988134E-02 -0.32901327171E-01  0.42369349258E-01  0.18141525471E-01 0.  0.
         14    1    1    2    0    0 -0.78886299316E-01  0.64515291887E-01  0.50598138342E-01  0.11377804143E+00  0.00000000000E+00 0.  1.
     999901    1    1    2    0    0  0.98249226035E-01 -0.61578193074E-01 -0.17696811171E-01  0.88778260932E+00  0.88000000000E+00 0. -1.
        -11    1    3    3    0    0 -0.16268522576E-01  0.52485928880E-02 -0.26401500722E-01  0.31456524212E-01  0.51100000000E-03 0.  1.
         11    1    3    3    0    0 -0.30944041427E-02 -0.81856917014E-02 -0.64998264484E-02  0.10912825046E-01  0.51100000000E-03 0. -1.
</event>
<event>
 8    1  0.1030163E+005  0.1043930E+01  0.7957747E-01            NaN
         13   -1    0    0    0    0  0.00000000000E+00  0.00000000000E+00  0.74505805969E-08  0.10566000000E+00  0.10566000000E+00 0. -1.
     999900   -1    0    0    0    0 -0.00000000000E+00 -0.00000000000E+00 -0.74505805969E-08  0.93827000000E+00  0.93827000000E+00 0.  1.
     999902    2    1    2    0    0  0.86200661558E-02 -0.22336499570E-01 -0.77291543766E-02  0.10187712126E+01  0.10184605143E+01 0.  0.
     999903    2    3    3    0    0 -0.10870730206E+00 -0.25060328931E-01  0.60445819878E-01  0.12836627236E+00  0.19465485643E-01 0.  0.
         14    1    1    2    0    0 -0.86200661558E-02  0.22336499570E-01  0.77291543766E-02  0.25158787350E-01  0.00000000000E+00 0. -1.
     999901    1    3    3    0    0  0.11732736822E+00  0.27238293611E-02 -0.68174974255E-01  0.89040494029E+00  0.88000000000E+00 0.  1.
        -11    1    4    4    0    0 -0.54244371366E-01 -0.20944542867E-01  0.37022322076E-01  0.68935035749E-01  0.51100000000E-03 0. -1.
         11    1    4    4    0    0 -0.54462930695E-01 -0.41157860637E-02  0.23423497802E-01  0.59431236611E-01  0.51100000000E-03 0.  1.
</event>
<event>
 8    1  0.1030163E+005  0.1043930E+01  0.7957747E-01            NaN
         13   -1    0    0    0    0  0.00000000000E+00  0.00000000000E+00  0.74505805969E-08  0.10566000000E+00  0.10566000000E+00 0.  1.
     999900   -1    0    0    0    0 -0.00000000000E+00 -0.00000000000E+00 -0.74505805969E-08  0.93827000000E+00  0.93827000000E+00 0. -1.
     999902    2    1    2    0    0  0.99569623138E-02  0.15000173861E-01 -0.85146235810E-02  0.10240140484E+01  0.10238203583E+01 0.  0.
     999903    2    3    3    0    0 -0.12073598910E+00  0.38348029246E-01 -0.37377265809E-01  0.13358784592E+00  0.20022541513E-01 0.  0.
         14    1    1    2    0    0 -0.99569623138E-02 -0.15000173861E-01  0.85146235810E-02  0.19915951625E-01  0.00000000000E+00 0.  1.
     999901    1    3    3    0    0  0.13069295141E+00 -0.23347855385E-01  0.28862642228E-01  0.89042620245E+00  0.88000000000E+00 0.  1.
        -11    1    4    4    0    0 -0.10656179446E+00  0.28380313465E-01 -0.36753945195E-01  0.11624100756E+00  0.51100000000E-03 0.  1.
         11    1    4    4    0    0 -0.14174194639E-01  0.99677157809E-02 -0.62332061413E-03  0.17346838362E-01  0.51100000000E-03 0. -1.
</event>
<event>
 8    1  0.1030163E+005  0.1043930E+01  0.7957747E-01            NaN
         13   -1    0    0    0    0  0.00000000000E+00  0.00000000000E+00  0.74505805969E-08  0.10566000000E+00  0.10566000000E+00 0. -1.
     999900   -1    0    0    0    0 -0.00000000000E+00 -0.00000000000E+00 -0.74505805969E-08  0.93827000000E+00  0.93827000000E+00 0. -1.
     999902    2    1    2    0    0  0.23014365084E-01  0.35652741167E-02  0.43830221587E-02  0.10202322562E+01  0.10199569959E+01 0.  0.
     999903    2    3    3    0    0 -0.62954617304E-01 -0.50766206620E-01 -0.98221672894E-01  0.12845296778E+00  0.17668512445E-01 0.  0.
         14    1    1    2    0    0 -0.23014365084E-01 -0.35652741167E-02 -0.43830221587E-02  0.23697743838E-01  0.00000000000E+00 0. -1.
     999901    1    3    3    0    0  0.85968982389E-01  0.54331480736E-01  0.10260469505E+00  0.89177928838E+00  0.88000000000E+00 0. -1.
        -11    1    4    4    0    0 -0.15197752829E-01 -0.21127073044E-01 -0.38152318986E-01  0.46186420855E-01  0.51100000000E-03 0.  1.
         11    1    4    4    0    0 -0.47756864475E-01 -0.29639133576E-01 -0.60069353909E-01  0.82266546929E-01  0.51100000000E-03 0. -1.
</event>
<event>
 8    1  0.1030163E+005  0.1043930E+01  0.7957747E-01            NaN
         13   -1    0    0    0    0  0.00000000000E+00  0.00000000000E+00  0.74505805969E-08  0.10566000000E+00  0.10566000000E+00 0. -1.
     999900   -1    0    0    0    0 -0.00000000000E+00 -0.00000000000E+00 -0.74505805969E-08  0.93827000000E+00  0.93827000000E+00 0. -1.
     999902    2    1    2    0    0  0.25570218487E-01 -0.31071425776E-02  0.13050622613E-01  0.10150542462E+01  0.10146434416E+01 0.  0.
     999903    2    3    3    0    0  0.25664730440E-01  0.42575960781E-01 -0.11303944501E+00  0.12489377748E+00  0.18685521190E-01 0.  0.
         14    1    1    2    0    0 -0.25570218487E-01  0.31071425776E-02 -0.13050622613E-01  0.28875753826E-01  0.00000000000E+00 0.  1.
     999901    1    3    3    0    0 -0.94511953051E-04 -0.45683103359E-01  0.12609006762E+00  0.89016046869E+00  0.88000000000E+00 0.  1.
        -11    1    4    4    0    0  0.12752796675E-01  0.24039718650E-01 -0.82705287919E-01  0.87068752527E-01  0.51100000000E-03 0. -1.
         11    1    4    4    0    0  0.12911933764E-01  0.18536242131E-01 -0.30334157087E-01  0.37825024958E-01  0.51100000000E-03 0.  1.
</event>
<event>
 8    1  0.1030163E+005  0.1043930E+01  0.7957747E-01            NaN
         13   -1    0    0    0    0  0.00000000000E+00  0.00000000000E+00  0.74505805969E-08  0.10566000000E+00  0.10566000000E+00 0.  1.
     999900   -1    0    0    0    0 -0.00000000000E+00 -0.00000000000E+00 -0.74505805969E-08  0.93827000000E+00  0.93827000000E+00 0. -1.
     999902    2    1    2    0    0  0.28571903699E-02 -0.33228605585E-02 -0.25073695784E-01  0.10184762152E+01  0.10181580947E+01 0.  0.
     999903    2    3    3    0    0  0.11239039579E+00  0.56986571819E-01  0.16753902843E-01  0.12865359316E+00  0.19798569150E-01 0.  0.
         14    1    1    2    0    0 -0.28571903699E-02  0.33228605585E-02  0.25073695784E-01  0.25453784775E-01  0.00000000000E+00 0.  1.
     999901    1    3    3    0    0 -0.10953320542E+00 -0.60309432377E-01 -0.41827598627E-01  0.88982262206E+00  0.88000000000E+00 0.  1.
        -11    1    4    4    0    0  0.81844589367E-01  0.45069843508E-01  0.41636355503E-02  0.93527667482E-01  0.51100000000E-03 0. -1.
         11    1    4    4    0    0  0.30545806422E-01  0.11916728311E-01  0.12590267292E-01  0.35125925683E-01  0.51100000000E-03 0.  1.
</event>
<event>
 8    1  0.1030163E+005  0.1043930E+01  0.7957747E-01            NaN
         13   -1    0    0    0    0  0.00000000000E+00  0.00000000000E+00  0.74505805969E-08  0.10566000000E+00  0.10566000000E+00 0.  1.
     999900   -1    0    0    0    0 -0.00000000000E+00 -0.00000000000E+00 -0.74505805969E-08  0.93827000000E+00  0.93827000000E+00 0.  1.
     999902    2    1    2    0    0  0.92718448787E-03  0.29609070508E-03  0.22600388986E-01  0.10213086622E+01  0.10210581074E+01 0.  0.
     999903    2    3    3    0    0 -0.89550712555E-01 -0.86651298276E-01  0.39475619051E-01  0.13224686926E+00  0.20078155236E-01 0.  0.
         14    1    1    2    0    0 -0.92718448787E-03 -0.29609070508E-03 -0.22600388986E-01  0.22621337783E-01  0.00000000000E+00 0. -1.
     999901    1    3    3    0    0  0.90477897043E-01  0.86947388981E-01 -0.16875230065E-01  0.88906179296E+00  0.88000000000E+00 0.  1.
        -11    1    4    4    0    0 -0.24368895917E-01 -0.35156416627E-01  0.18238065685E-01  0.46504890917E-01  0.51100000000E-03 0.  1.
         11    1    4    4    0    0 -0.65181816639E-01 -0.51494881650E-01  0.21237553366E-01  0.85741978344E-01  0.51100000000E-03 0. -1.
</event>
<event>
 8    1  0.1030163E+005  0.1043930E+01  0.7957747E-01            NaN
         13   -1    0    0    0    0  0.00000000000E+00  0.00000000000E+00  0.74505805969E-08  0.10566000000E+00  0.10566000000E+00 0. -1.
     999900   -1    0    0    0    0 -0.00000000000E+00 -0.00000000000E+00 -0.74505805969E-08  0.93827000000E+00  0.93827000000E+00 0. -1.
     999902    2    1    2    0    0  0.63200288799E-02  0.38135260478E-02  0.22500975600E-01  0.10202492135E+01  0.10199743516E+01 0.  0.
     999903    2    3    3    0    0 -0.10099892321E+00  0.55157631994E-01 -0.54213933105E-01  0.12893627637E+00  0.21030120400E-01 0.  0.
         14    1    1    2    0    0 -0.63200288799E-02 -0.38135260478E-02 -0.22500975600E-01  0.23680786492E-01  0.00000000000E+00 0.  1.
     999901    1    3    3    0    0  0.10731895209E+00 -0.51344105946E-01  0.76714908704E-01  0.89131293714E+00  0.88000000000E+00 0.  1.
        -11    1    4    4    0    0 -0.37253763510E-01  0.26439919870E-01 -0.11893024150E-01  0.47208234481E-01  0.51100000000E-03 0. -1.
         11    1    4    4    0    0 -0.63745159702E-01  0.28717712124E-01 -0.42320908954E-01  0.81728041888E-01  0.51100000000E-03 0.  1.
</event>
<event>
 8    1  0.1030163E+005  0.1043930E+01  0.7957747E-01            NaN
         13   -1    0    0    0    0  0.00000000000E+00  0.00000000000E+00  0.74505805969E-08  0.10566000000E+00  0.10566000000E+00 0. -1.
     999900   -1    0    0    0    0 -0.00000000000E+00 -0.00000000000E+00 -0.74505805969E-08  0.93827000000E+00  0.93827000000E+00 0.  1.
     999902    2    1    2    0    0  0.74210157703E-02 -0.22628432074E-01  0.50403739440E-03  0.10201104394E+01  0.10198323083E+01 0.  0.
     999903    2    3    3    0    0  0.10276444237E+00  0.44375881219E-01 -0.63355617780E-01  0.13013403379E+00  0.19778346648E-01 0.  0.
         14    1    1    2    0    0 -0.74210157703E-02  0.22628432074E-01 -0.50403739440E-03  0.23819560594E-01  0.00000000000E+00 0.  1.
     999901    1    3    3    0    0 -0.95343426601E-01 -0.67004313294E-01  0.63859655174E-01  0.88997640562E+00  0.88000000000E+00 0. -1.
        -11    1    4    4    0    0  0.56621001244E-01  0.30431062465E-01 -0.45370231205E-01  0.78681041841E-01  0.51100000000E-03 0. -1.
         11    1    4    4    0    0  0.46143441127E-01  0.13944818754E-01 -0.17985386575E-01  0.51452991948E-01  0.51100000000E-03 0.  1.
</event>
<event>
 8    1  0.1030163E+005  0.1043930E+01  0.7957747E-01            NaN
         13   -1    0    0    0    0  0.00000000000E+00  0.00000000000E+00  0.74505805969E-08  0.10566000000E+00  0.10566000000E+00 0. -1.
     999900   -1    0    0    0    0 -0.00000000000E+00 -0.00000000000E+00 -0.74505805969E-08  0.93827000000E+00  0.93827000000E+00 0.  1.
     999902    2    1    2    0    0 -0.33999980714E-02  0.82899590920E-02  0.22337914891E-01  0.10198620576E+01  0.10195780258E+01 0.  0.
     999903    2    3    3    0    0  0.51770753196E-01  0.11724036492E+00 -0.15246316422E-01  0.13063397824E+00  0.20180982449E-01 0.  0.
         14    1    1    2    0    0  0.33999980714E-02 -0.82899590920E-02 -0.22337914891E-01  0.24067942378E-01  0.00000000000E+00 0.  1.
     999901    1    3    3    0    0 -0.55170751267E-01 -0.10895040583E+00  0.37584231313E-01  0.88922807939E+00  0.88000000000E+00 0. -1.
        -11    1    4    4    0    0  0.67048741663E-02  0.11079947471E-01  0.43060764502E-02  0.13657378553E-01  0.51100000000E-03 0.  1.
         11    1    4    4    0    0  0.45065879029E-01  0.10616041745E+00 -0.19552392873E-01  0.11697659968E+00  0.51100000000E-03 0. -1.
</event>
<event>
 8    1  0.1030163E+005  0.1043930E+01  0.7957747E-01            NaN
         13   -1    0    0    0    0  0.00000000000E+00  0.00000000000E+00  0.74505805969E-08  0.10566000000E+00  0.10566000000E+00 0.  1.
     999900   -1    0    0    0    0 -0.00000000000E+00 -0.00000000000E+00 -0.74505805969E-08  0.93827000000E+00  0.93827000000E+00 0.  1.
     999902    2    1    2    0    0 -0.22614284181E-01  0.18938575259E-03 -0.69781121008E-02  0.10202628125E+01  0.10199882699E+01 0.  0.
     999903    2    3    3    0    0  0.10270202207E+00 -0.63529758598E-01 -0.39607454415E-01  0.12850669115E+00  0.19012723667E-01 0.  0.
         14    1    1    2    0    0  0.22614284181E-01 -0.18938575259E-03  0.69781121008E-02  0.23667187506E-01  0.00000000000E+00 0.  1.
     999901    1    3    3    0    0 -0.12531630625E+00  0.63719144351E-01  0.32629342314E-01  0.89175612134E+00  0.88000000000E+00 0.  1.
        -11    1    4    4    0    0  0.45570580824E-01 -0.26983974641E-01 -0.27270869807E-01  0.59571588741E-01  0.51100000000E-03 0. -1.
         11    1    4    4    0    0  0.57131441244E-01 -0.36545783958E-01 -0.12336584607E-01  0.68935102412E-01  0.51100000000E-03 0.  1.
</event>
<event>
 8    1  0.1030163E+005  0.1043930E+01  0.7957747E-01            NaN
         13   -1    0    0    0    0  0.00000000000E+00  0.00000000000E+00  0.74505805969E-08  0.10566000000E+00  0.10566000000E+00 0. -1.
     999900   -1    0    0    0    0 -0.00000000000E+00 -0.00000000000E+00 -0.74505805969E-08  0.93827000000E+00  0.93827000000E+00 0. -1.
     999902    2    1    2    0    0  0.20090356718E-01 -0.20308709758E-02  0.12121617500E-01  0.10203783444E+01  0.10201065068E+01 0.  0.
     999903    2    3    3    0    0 -0.32375363444E-01  0.33043545375E-01 -0.11821755692E+00  0.12854250366E+00  0.20192682661E-01 0.  0.
         14    1    1    2    0    0 -0.20090356718E-01  0.20308709758E-02 -0.12121617500E-01  0.23551655585E-01  0.00000000000E+00 0.  1.
     999901    1    3    3    0    0  0.52465720162E-01 -0.35074416351E-01  0.13033917442E+00  0.89183584076E+00  0.88000000000E+00 0. -1.
        -11    1    4    4    0    0 -0.90262281053E-02  0.25389267645E-02 -0.10047503161E-01  0.13752540991E-01  0.51100000000E-03 0. -1.
         11    1    4    4    0    0 -0.23349135338E-01  0.30504618611E-01 -0.10817005376E+00  0.11478996267E+00  0.51100000000E-03 0.  1.
</event>
<event>
 8    1  0.1030163E+005  0.1043930E+01  0.7957747E-01            NaN
         13   -1    0    0    0    0  0.00000000000E+00  0.00000000000E+00  0.74505805969E-08  0.10566000000E+00  0.10566000000E+00 0. -1.
     999900   -1    0    0    0    0 -0.00000000000E+00 -0.00000000000E+00 -0.74505805969E-08  0.93827000000E+00  0.93827000000E+00 0.  1.
     999902    2    1    2    0    0  0.11353885816E-01 -0.18975024865E-01  0.83302972978E-02  0.10203004392E+01  0.10200267791E+01 0.  0.
     999903    2    3    3    0    0 -0.62827766596E-01  0.50645325623E-01  0.99722720711E-01  0.12973742298E+00  0.19362350904E-01 0.  0.
         14    1    1    2    0    0 -0.11353885816E-01  0.18975024865E-01 -0.83302972978E-02  0.23629560825E-01  0.00000000000E+00 0.  1.
     999901    1    3    3    0    0  0.74181652411E-01 -0.69620350488E-01 -0.91392423414E-01  0.89056301619E+00  0.88000000000E+00 0.  1.
        -11    1    4    4    0    0 -0.62697969609E-01  0.48379735833E-01  0.90651524693E-01  0.12037273064E+00  0.51100000000E-03 0.  1.
         11    1    4    4    0    0 -0.12979698657E-03  0.22655897897E-02  0.90711960181E-02  0.93646923362E-02  0.51100000000E-03 0. -1.
</event>
<event>
 8    1  0.1030163E+005  0.1043930E+01  0.7957747E-01            NaN
         13   -1    0    0    0    0  0.00000000000E+00  0.00000000000E+00  0.74505805969E-08  0.10566000000E+00  0.10566000000E+00 0.  1.
     999900   -1    0    0    0    0 -0.00000000000E+00 -0.00000000000E+00 -0.74505805969E-08  0.93827000000E+00  0.93827000000E+00 0.  1.
     999902    2    1    2    0    0 -0.19751738191E-01  0.11234521509E-01  0.31548616320E-02  0.10209887972E+01  0.10207310249E+01 0.  0.
     999903    2    3    3    0    0  0.93784681788E-01  0.63577396640E-01  0.61106055200E-01  0.13026513853E+00  0.19935005192E-01 0.  0.
         14    1    1    2    0    0  0.19751738191E-01 -0.11234521509E-01 -0.31548616320E-02  0.22941202824E-01  0.00000000000E+00 0.  1.
     999901    1    3    3    0    0 -0.11353641998E+00 -0.52342875131E-01 -0.57951193568E-01  0.89072365865E+00  0.88000000000E+00 0.  1.
        -11    1    4    4    0    0  0.21205692359E-01  0.14258142264E-01  0.48084178770E-02  0.26006883948E-01  0.51100000000E-03 0. -1.
         11    1    4    4    0    0  0.72578989429E-01  0.49319254376E-01  0.56297637323E-01  0.10425825458E+00  0.51100000000E-03 0.  1.
</event>
<event>
 8    1  0.1030163E+005  0.1043930E+01  0.7957747E-01            NaN
         13   -1    0    0    0    0  0.00000000000E+00  0.00000000000E+00  0.74505805969E-08  0.10566000000E+00  0.10566000000E+00 0. -1.
     999900   -1    0    0    0    0 -0.00000000000E+00 -0.00000000000E+00 -0.74505805969E-08  0.93827000000E+00  0.93827000000E+00 0. -1.
     999902    2    1    2    0    0 -0.21535984614E-04 -0.23769487921E-01 -0.34960935878E-02  0.10199047697E+01  0.10196217571E+01 0.  0.
     999903    2    3    3    0    0  0.12434092778E+00 -0.28422152633E-01  0.17913454379E-01  0.13089068747E+00  0.23302256092E-01 0.  0.
         14    1    1    2    0    0  0.21535984614E-04  0.23769487921E-01  0.34960935878E-02  0.24025230284E-01  0.00000000000E+00 0. -1.
     999901    1    3    3    0    0 -0.12436246376E+00  0.46526647117E-02 -0.21409547966E-01  0.88901408224E+00  0.88000000000E+00 0. -1.
        -11    1    4    4    0    0  0.18699888427E-01 -0.67784143480E-02 -0.52849102671E-02  0.20586989236E-01  0.51100000000E-03 0. -1.
         11    1    4    4    0    0  0.10564103935E+00 -0.21643738285E-01  0.23198364646E-01  0.11030369824E+00  0.51100000000E-03 0.  1.
</event>
<event>
 8    1  0.1030163E+005  0.1043930E+01  0.7957747E-01            NaN
         13   -1    0    0    0    0  0.00000000000E+00  0.00000000000E+00  0.74505805969E-08  0.10566000000E+00  0.10566000000E+00 0.  1.
     999900   -1    0    0    0    0 -0.00000000000E+00 -0.00000000000E+00 -0.74505805969E-08  0.93827000000E+00  0.93827000000E+00 0. -1.
     999902    2    1    2    0    0  0.13641960620E-01  0.15340647395E-02  0.24327937693E-01  0.10159960601E+01  0.10156119777E+01 0.  0.
     999903    2    3    3    0    0 -0.22020706242E-01  0.11771792669E+00  0.38145102976E-01  0.12753591491E+00  0.21631896423E-01 0.  0.
         14    1    1    2    0    0 -0.13641960620E-01 -0.15340647395E-02 -0.24327937693E-01  0.27933939869E-01  0.00000000000E+00 0. -1.
     999901    1    3    3    0    0  0.35662666863E-01 -0.11618386195E+00 -0.13817165283E-01  0.88846014522E+00  0.88000000000E+00 0. -1.
        -11    1    4    4    0    0  0.15009746357E-02  0.42182283066E-01  0.85663683113E-02  0.43072516952E-01  0.51100000000E-03 0. -1.
         11    1    4    4    0    0 -0.23521680878E-01  0.75535643628E-01  0.29578734665E-01  0.84463397960E-01  0.51100000000E-03 0.  1.
</event>
<event>
 8    1  0.1030163E+005  0.1043930E+01  0.7957747E-01            NaN
         13   -1    0    0    0    0  0.00000000000E+00  0.00000000000E+00  0.74505805969E-08  0.10566000000E+00  0.10566000000E+00 0. -1.
     999900   -1    0    0    0    0 -0.00000000000E+00 -0.00000000000E+00 -0.74505805969E-08  0.93827000000E+00  0.93827000000E+00 0.  1.
     999902    2    1    2    0    0 -0.22647410272E-01  0.59681077619E-02  0.33982773680E-02  0.10202641640E+01  0.10199896532E+01 0.  0.
     999903    2    3    3    0    0  0.34369729607E-01  0.11043358278E+00  0.57120605924E-01  0.13062936353E+00  0.20601273653E-01 0.  0.
         14    1    1    2    0    0  0.22647410272E-01 -0.59681077619E-02 -0.33982773680E-02  0.23665835953E-01  0.00000000000E+00 0. -1.
     999901    1    3    3    0    0 -0.57017139879E-01 -0.10446547502E+00 -0.53722328556E-01  0.88963480052E+00  0.88000000000E+00 0.  1.
        -11    1    4    4    0    0  0.32885382207E-01  0.10811422016E+00  0.51167630673E-01  0.12405047567E+00  0.51100000000E-03 0.  1.
         11    1    4    4    0    0  0.14843473998E-02  0.23193626206E-02  0.59529752504E-02  0.65788878620E-02  0.51100000000E-03 0. -1.
</event>
<event>
 8    1  0.1030163E+005  0.1043930E+01  0.7957747E-01            NaN
         13   -1    0    0    0    0  0.00000000000E+00  0.00000000000E+00  0.74505805969E-08  0.10566000000E+00  0.10566000000E+00 0. -1.
     999900   -1    0    0    0    0 -0.00000000000E+00 -0.00000000000E+00 -0.74505805969E-08  0.93827000000E+00  0.93827000000E+00 0.  1.
     999902    2    1    2    0    0 -0.15635613608E-01 -0.10045086964E-02  0.17284792228E-01  0.10206009303E+01  0.10203342655E+01 0.  0.
     999903    2    3    3    0    0 -0.73399973028E-01  0.10440176496E+00  0.29290325095E-01  0.13234908732E+00  0.19263260406E-01 0.  0.
         14    1    1    2    0    0  0.15635613608E-01  0.10045086964E-02 -0.17284792228E-01  0.23329069699E-01  0.00000000000E+00 0.  1.
     999901    1    3    3    0    0  0.57764359420E-01 -0.10540627366E+00 -0.12005532867E-01  0.88825184298E+00  0.88000000000E+00 0. -1.
        -11    1    4    4    0    0 -0.17260465450E-01  0.12426910886E-01  0.36602745492E-02  0.21587276635E-01  0.51100000000E-03 0.  1.
         11    1    4    4    0    0 -0.56139507578E-01  0.91974854077E-01  0.25630050546E-01  0.11076181068E+00  0.51100000000E-03 0. -1.
</event>
<event>
 8    1  0.1030163E+005  0.1043930E+01  0.7957747E-01            NaN
         13   -1    0    0    0    0  0.00000000000E+00  0.00000000000E+00  0.74505805969E-08  0.10566000000E+00  0.10566000000E+00 0.  1.
     999900   -1    0    0    0    0 -0.00000000000E+00 -0.00000000000E+00 -0.74505805969E-08  0.93827000000E+00  0.93827000000E+00 0. -1.
     999902    2    1    2    0    0  0.10903044562E-01 -0.20892288962E-01  0.19370905227E-02  0.10202843569E+01  0.10200103198E+01 0.  0.
     999903    2    3    3    0    0 -0.85764467259E-01  0.65816635829E-01 -0.65899834129E-01  0.12817175534E+00  0.19945860045E-01 0.  0.
         14    1    1    2    0    0 -0.10903044562E-01  0.20892288962E-01 -0.19370905227E-02  0.23645643118E-01  0.00000000000E+00 0. -1.
     999901    1    3    3    0    0  0.96667511821E-01 -0.86708924791E-01  0.67836924652E-01  0.89211260154E+00  0.88000000000E+00 0.  1.
        -11    1    4    4    0    0 -0.62996755372E-01  0.56812692741E-01 -0.45293381992E-01  0.96166651273E-01  0.51100000000E-03 0. -1.
         11    1    4    4    0    0 -0.22767711887E-01  0.90039430883E-02 -0.20606452138E-01  0.32005104068E-01  0.51100000000E-03 0.  1.
</event>
<event>
 8    1  0.1030163E+005  0.1043930E+01  0.7957747E-01            NaN
         13   -1    0    0    0    0  0.00000000000E+00  0.00000000000E+00  0.74505805969E-08  0.10566000000E+00  0.10566000000E+00 0. -1.
     999900   -1    0    0    0    0 -0.00000000000E+00 -0.00000000000E+00 -0.74505805969E-08  0.93827000000E+00  0.93827000000E+00 0. -1.
     999902    2    1    2    0    0  0.56963417949E-02  0.14054370979E-01 -0.18732811747E-01  0.10198283011E+01  0.10195434625E+01 0.  0.
     999903    2    3    3    0    0  0.91783525288E-01 -0.53199167899E-01  0.70245110676E-01  0.12862063040E+00  0.18828808013E-01 0.  0.
         14    1    1    2    0    0 -0.56963417949E-02 -0.14054370979E-01  0.18732811747E-01  0.24101698890E-01  0.00000000000E+00 0. -1.
     999901    1    3    3    0    0 -0.86087183493E-01  0.67253538878E-01 -0.88977922423E-01  0.89120767071E+00  0.88000000000E+00 0. -1.
        -11    1    4    4    0    0  0.73189186730E-01 -0.37632483744E-01  0.61864968866E-01  0.10295822639E+00  0.51100000000E-03 0. -1.
         11    1    4    4    0    0  0.18594338558E-01 -0.15566684155E-01  0.83801418104E-02  0.25662404013E-01  0.51100000000E-03 0.  1.
</event>
<event>
 8    1  0.1030163E+005  0.1043930E+01  0.7957747E-01            NaN
         13   -1    0    0    0    0  0.00000000000E+00  0.00000000000E+00  0.74505805969E-08  0.10566000000E+00  0.10566000000E+00 0.  1.
     999900   -1    0    0    0    0 -0.00000000000E+00 -0.00000000000E+00 -0.74505805969E-08  0.93827000000E+00  0.93827000000E+00 0. -1.
     999902    2    1    2    0    0  0.84153780052E-02  0.86733728549E-02 -0.20630495350E-01  0.10200205182E+01  0.10197402582E+01 0.  0.
     999903    2    3    3    0    0 -0.93120168631E-01  0.12652702183E-01  0.84692610312E-01  0.12793405437E+00  0.19048027368E-01 0.  0.
         14    1    1    2    0    0 -0.84153780052E-02 -0.86733728549E-02  0.20630495350E-01  0.23909481843E-01  0.00000000000E+00 0.  1.
     999901    1    3    3    0    0  0.10153554664E+00 -0.39793293278E-02 -0.10532310566E+00  0.89208646379E+00  0.88000000000E+00 0. -1.
        -11    1    4    4    0    0 -0.19922448794E-01  0.10678940398E-01  0.21774234095E-01  0.31389841118E-01  0.51100000000E-03 0. -1.
         11    1    4    4    0    0 -0.73197719837E-01  0.19737617849E-02  0.62918376217E-01  0.96544213248E-01  0.51100000000E-03 0.  1.
</event>
<event>
 8    1  0.1133483E+005  0.1043930E+01  0.7957747E-01            NaN
         13   -1    0    0    0    0  0.00000000000E+00  0.00000000000E+00  0.74505805969E-08  0.10566000000E+00  0.10566000000E+00 0.  1.
     999900   -1    0    0    0    0 -0.00000000000E+00 -0.00000000000E+00 -0.74505805969E-08  0.93827000000E+00  0.93827000000E+00 0. -1.
     999902    2    1    2    0    0  0.23071316179E-01 -0.50562951263E-02  0.40685091614E-02  0.10199632623E+01  0.10196816424E+01 0.  0.
     999903    2    3    3    0    0  0.70046143824E-02  0.10727983364E+00 -0.69650096277E-01  0.12961952105E+00  0.19800429247E-01 0.  0.
         14    1    1    2    0    0 -0.23071316179E-01  0.50562951263E-02 -0.40685091614E-02  0.23966737730E-01  0.00000000000E+00 0. -1.
     999901    1    3    3    0    0  0.16066701797E-01 -0.11233612877E+00  0.73718605438E-01  0.89034374122E+00  0.88000000000E+00 0.  1.
        -11    1    4    4    0    0  0.13331259872E-01  0.52439481362E-01 -0.34554091831E-01  0.64201776288E-01  0.51100000000E-03 0. -1.
         11    1    4    4    0    0 -0.63266454901E-02  0.54840352279E-01 -0.35096004445E-01  0.65417744766E-01  0.51100000000E-03 0.  1.
</event>
<event>
 8    1  0.1030163E+005  0.1043930E+01  0.7957747E-01            NaN
         13   -1    0    0    0    0  0.00000000000E+00  0.00000000000E+00  0.74505805969E-08  0.10566000000E+00  0.10566000000E+00 0. -1.
     999900   -1    0    0    0    0 -0.00000000000E+00 -0.00000000000E+00 -0.74505805969E-08  0.93827000000E+00  0.93827000000E+00 0. -1.
     999902    2    1    2    0    0  0.79884245351E-02  0.16916080037E-01  0.16092689222E-01  0.10192532227E+01  0.10189544586E+01 0.  0.
     999903    2    3    3    0    0  0.82347553487E-01 -0.84228909761E-01  0.50412436590E-01  0.12968173370E+00  0.20007735712E-01 0.  0.
         14    1    1    2    0    0 -0.79884245351E-02 -0.16916080037E-01 -0.16092689222E-01  0.24676777276E-01  0.00000000000E+00 0.  1.
     999901    1    3    3    0    0 -0.74359128952E-01  0.10114498980E+00 -0.34319747368E-01  0.88957148902E+00  0.88000000000E+00 0. -1.
        -11    1    4    4    0    0  0.62455296622E-01 -0.66431895687E-01  0.47541310025E-01  0.10283140629E+00  0.51100000000E-03 0. -1.
         11    1    4    4    0    0  0.19892256866E-01 -0.17797014074E-01  0.28711265649E-02  0.26850327408E-01  0.51100000000E-03 0.  1.
</event>
<event>
 8    1  0.1030163E+005  0.1043930E+01  0.7957747E-01            NaN
         13   -1    0    0    0    0  0.00000000000E+00  0.00000000000E+00  0.74505805969E-08  0.10566000000E+00  0.10566000000E+00 0.  1.
     999900   -1    0    0    0    0 -0.00000000000E+00 -0.00000000000E+00 -0.74505805969E-08  0.93827000000E+00  0.93827000000E+00 0. -1.
     999902    2    1    2    0    0 -0.12377116905E-02 -0.19430867000E-01 -0.11395283616E-01  0.10213702347E+01  0.10211210571E+01 0.  0.
     999903    2    3    3    0    0  0.62575769144E-02 -0.12150668600E+00  0.50795781614E-01  0.13325797783E+00  0.19350586899E-01 0.  0.
         14    1    1    2    0    0  0.12377116905E-02  0.19430867000E-01  0.11395283616E-01  0.22559765320E-01  0.00000000000E+00 0. -1.
     999901    1    3    3    0    0 -0.74952886048E-02  0.10207581900E+00 -0.62191065230E-01  0.88811225685E+00  0.88000000000E+00 0.  1.
        -11    1    4    4    0    0 -0.42510864908E-02 -0.87263127796E-01  0.36591285765E-01  0.94721214751E-01  0.51100000000E-03 0. -1.
         11    1    4    4    0    0  0.10508663405E-01 -0.34243558205E-01  0.14204495850E-01  0.38536763077E-01  0.51100000000E-03 0.  1.
</event>
<event>
 8    1  0.1030163E+005  0.1043930E+01  0.7957747E-01            NaN
         13   -1    0    0    0    0  0.00000000000E+00  0.00000000000E+00  0.74505805969E-08  0.10566000000E+00  0.10566000000E+00 0.  1.
     999900   -1    0    0    0    0 -0.00000000000E+00 -0.00000000000E+00 -0.74505805969E-08  0.93827000000E+00  0.93827000000E+00 0. -1.
     999902    2    1    2    0    0 -0.21817550285E-01  0.79356470268E-02  0.44813712698E-02  0.10202854936E+01  0.10200114832E+01 0.  0.
     999903    2    3    3    0    0  0.37126628608E-01 -0.11958385692E+00 -0.22404510109E-01  0.12873712659E+00  0.19814143975E-01 0.  0.
         14    1    1    2    0    0  0.21817550285E-01 -0.79356470268E-02 -0.44813712698E-02  0.23644506394E-01  0.00000000000E+00 0.  1.
     999901    1    3    3    0    0 -0.58944178892E-01  0.12751950395E+00  0.26885881379E-01  0.89154836702E+00  0.88000000000E+00 0. -1.
        -11    1    4    4    0    0  0.76756695096E-02 -0.57987972205E-01 -0.10246476358E-01  0.59386633359E-01  0.51100000000E-03 0.  1.
         11    1    4    4    0    0  0.29450959098E-01 -0.61595884716E-01 -0.12158033751E-01  0.69350493231E-01  0.51100000000E-03 0. -1.
</event>
<event>
 8    1  0.1030163E+005  0.1043930E+01  0.7957747E-01            NaN
         13   -1    0    0    0    0  0.00000000000E+00  0.00000000000E+00  0.74505805969E-08  0.10566000000E+00  0.10566000000E+00 0. -1.
     999900   -1    0    0    0    0 -0.00000000000E+00 -0.00000000000E+00 -0.74505805969E-08  0.93827000000E+00  0.93827000000E+00 0.  1.
     999902    2    1    2    0    0 -0.46821653338E-02  0.20788358382E-01 -0.12575895028E-01  0.10191866847E+01  0.10188862874E+01 0.  0.
     999903    2    3    3    0    0  0.18509177589E-01 -0.10476419347E+00  0.67814868533E-01  0.12634629777E+00  0.68120978353E-02 0.  0.
         14    1    1    2    0    0  0.46821653338E-02 -0.20788358382E-01  0.12575895028E-01  0.24743315303E-01  0.00000000000E+00 0. -1.
     999901    1    3    3    0    0 -0.23191342922E-01  0.12555255185E+00 -0.80390763561E-01  0.89284038693E+00  0.88000000000E+00 0. -1.
        -11    1    4    4    0    0  0.24658602409E-02 -0.29561911271E-01  0.20429835310E-01  0.36022581203E-01  0.51100000000E-03 0. -1.
         11    1    4    4    0    0  0.16043317348E-01 -0.75202282202E-01  0.47385033223E-01  0.90323716566E-01  0.51100000000E-03 0.  1.
</event>
<event>
 8    1  0.1030163E+005  0.1043930E+01  0.7957747E-01            NaN
         13   -1    0    0    0    0  0.00000000000E+00  0.00000000000E+00  0.74505805969E-08  0.10566000000E+00  0.10566000000E+00 0. -1.
     999900   -1    0    0    0    0 -0.00000000000E+00 -0.00000000000E+00 -0.74505805969E-08  0.93827000000E+00  0.93827000000E+00 0.  1.
     999902    2    1    2    0    0  0.79279460265E-02 -0.17447939315E-01 -0.13861328925E-01  0.10202779524E+01  0.10200037651E+01 0.  0.
     999903    2    3    3    0    0 -0.32683140807E-01 -0.30163055778E-01  0.11959232348E+00  0.12919949803E+00  0.20302434073E-01 0.  0.
         14    1    1    2    0    0 -0.79279460265E-02  0.17447939315E-01  0.13861328925E-01  0.23652047567E-01  0.00000000000E+00 0.  1.
     999901    1    3    3    0    0  0.40611086833E-01  0.12715116463E-01 -0.13345365240E+00  0.89107845440E+00  0.88000000000E+00 0.  1.
        -11    1    4    4    0    0 -0.29034373203E-02 -0.23375519549E-03  0.30115349799E-01  0.30260204961E-01  0.51100000000E-03 0.  1.
         11    1    4    4    0    0 -0.29779703486E-01 -0.29929300582E-01  0.89476973680E-01  0.98939293069E-01  0.51100000000E-03 0. -1.
</event>
<event>
 8    1  0.1030163E+005  0.1043930E+01  0.7957747E-01            NaN
         13   -1    0    0    0    0  0.00000000000E+00  0.00000000000E+00  0.74505805969E-08  0.10566000000E+00  0.10566000000E+00 0. -1.
     999900   -1    0    0    0    0 -0.00000000000E+00 -0.00000000000E+00 -0.74505805969E-08  0.93827000000E+00  0.93827000000E+00 0.  1.
     999902    2    1    2    0    0  0.13342224465E-01  0.18643008297E-01 -0.20209451012E-02  0.10209156364E+01  0.10206561986E+01 0.  0.
     999903    2    3    3    0    0 -0.66174433980E-01  0.30544894633E-01 -0.10701870883E+00  0.13103413630E+00  0.20121991319E-01 0.  0.
         14    1    1    2    0    0 -0.13342224465E-01 -0.18643008297E-01  0.20209451012E-02  0.23014363583E-01  0.00000000000E+00 0.  1.
     999901    1    3    3    0    0  0.79516658445E-01 -0.11901886336E-01  0.10499776373E+00  0.88988150012E+00  0.88000000000E+00 0. -1.
        -11    1    4    4    0    0 -0.51155517261E-01  0.21459616390E-01 -0.64767170119E-01  0.85278658105E-01  0.51100000000E-03 0.  1.
         11    1    4    4    0    0 -0.15018916719E-01  0.90852782435E-02 -0.42251538710E-01  0.45755478192E-01  0.51100000000E-03 0. -1.
</event>
<event>
 8    1  0.1030163E+005  0.1043930E+01  0.7957747E-01            NaN
         13   -1    0    0    0    0  0.00000000000E+00  0.00000000000E+00  0.74505805969E-08  0.10566000000E+00  0.10566000000E+00 0.  1.
     999900   -1    0    0    0    0 -0.00000000000E+00 -0.00000000000E+00 -0.74505805969E-08  0.93827000000E+00  0.93827000000E+00 0. -1.
     999902    2    1    2    0    0  0.37178881944E-02  0.13147854356E-01 -0.19559324116E-01  0.10200709152E+01  0.10197918494E+01 0.  0.
     999903    2    3    3    0    0 -0.58676027180E-01 -0.50855808318E-01  0.99158791637E-01  0.12761169457E+00  0.20569132868E-01 0.  0.
         14    1    1    2    0    0 -0.37178881944E-02 -0.13147854356E-01  0.19559324116E-01  0.23859084782E-01  0.00000000000E+00 0.  1.
     999901    1    3    3    0    0  0.62393915374E-01  0.64003662673E-01 -0.11871811575E+00  0.89245922065E+00  0.88000000000E+00 0. -1.
        -11    1    4    4    0    0 -0.16549342053E-01 -0.85402834582E-02  0.36959797716E-01  0.41389671805E-01  0.51100000000E-03 0.  1.
         11    1    4    4    0    0 -0.42126685127E-01 -0.42315524860E-01  0.62198993921E-01  0.86222022765E-01  0.51100000000E-03 0. -1.
</event>
<event>
 8    1  0.1030163E+005  0.1043930E+01  0.7957747E-01            NaN
         13   -1    0    0    0    0  0.00000000000E+00  0.00000000000E+00  0.74505805969E-08  0.10566000000E+00  0.10566000000E+00 0.  1.
     999900   -1    0    0    0    0 -0.00000000000E+00 -0.00000000000E+00 -0.74505805969E-08  0.93827000000E+00  0.93827000000E+00 0. -1.
     999902    2    1    2    0    0  0.34890382690E-02 -0.19586952881E-01  0.15014853310E-01  0.10190047531E+01  0.10186998670E+01 0.  0.
     999903    2    3    3    0    0 -0.94719663322E-01 -0.20868108533E-01  0.85430057866E-01  0.13074528009E+00  0.19716513514E-01 0.  0.
         14    1    1    2    0    0 -0.34890382690E-02  0.19586952881E-01 -0.15014853310E-01  0.24925246861E-01  0.00000000000E+00 0. -1.
     999901    1    3    3    0    0  0.98208701591E-01  0.12811556521E-02 -0.70415204557E-01  0.88825947305E+00  0.88000000000E+00 0.  1.
        -11    1    4    4    0    0 -0.73746560618E-01 -0.12281947476E-01  0.55072739901E-01  0.92858328856E-01  0.51100000000E-03 0.  1.
         11    1    4    4    0    0 -0.20973102704E-01 -0.85861610572E-02  0.30357317965E-01  0.37886951234E-01  0.51100000000E-03 0. -1.
</event>
<event>
 8    1  0.1030163E+005  0.1043930E+01  0.7957747E-01            NaN
         13   -1    0    0    0    0  0.00000000000E+00  0.00000000000E+00  0.74505805969E-08  0.10566000000E+00  0.10566000000E+00 0.  1.
     999900   -1    0    0    0    0 -0.00000000000E+00 -0.00000000000E+00 -0.74505805969E-08  0.93827000000E+00  0.93827000000E+00 0. -1.
     999902    2    1    2    0    0 -0.68410885640E-02  0.22698903879E-01  0.87110959560E-02  0.10186728441E+01  0.10183596808E+01 0.  0.
     999903    2    3    3    0    0 -0.37167235032E-01 -0.91450944687E-01 -0.76902035841E-01  0.12666417185E+00  0.19626784478E-01 0.  0.
         14    1    1    2    0    0  0.68410885640E-02 -0.22698903879E-01 -0.87110959560E-02  0.25257155873E-01  0.00000000000E+00 0. -1.
     999901    1    3    3    0    0  0.30326146468E-01  0.11414984857E+00  0.85613131797E-01  0.89200867228E+00  0.88000000000E+00 0.  1.
        -11    1    4    4    0    0 -0.12122628291E-01 -0.47609012669E-01 -0.46941098936E-01  0.67950747562E-01  0.51100000000E-03 0. -1.
         11    1    4    4    0    0 -0.25044606741E-01 -0.43841932018E-01 -0.29960936905E-01  0.58713424284E-01  0.51100000000E-03 0.  1.
</event>
<event>
 8    1  0.1030163E+005  0.1043930E+01  0.7957747E-01            NaN
         13   -1    0    0    0    0  0.00000000000E+00  0.00000000000E+00  0.74505805969E-08  0.10566000000E+00  0.10566000000E+00 0. -1.
     999900   -1    0    0    0    0 -0.00000000000E+00 -0.00000000000E+00 -0.74505805969E-08  0.93827000000E+00  0.93827000000E+00 0. -1.
     999902    2    1    2    0    0 -0.10304845802E-01  0.11100950212E-01  0.76883914241E-02  0.10269437613E+01  0.10268032706E+01 0.  0.
     999903    2    3    3    0    0  0.69947625381E-01 -0.76299860225E-01 -0.83401203152E-01  0.13432028242E+00  0.19283117383E-01 0.  0.
         14    1    1    2    0    0  0.10304845802E-01 -0.11100950212E-01 -0.76883914241E-02  0.16986238704E-01  0.00000000000E+00 0.  1.
     999901    1    3    3    0    0 -0.80252471183E-01  0.87400810437E-01  0.91089594577E-01  0.89262347887E+00  0.88000000000E+00 0.  1.
        -11    1    4    4    0    0  0.22329529850E-01 -0.33806141246E-01 -0.41327450363E-01  0.57876440490E-01  0.51100000000E-03 0.  1.
         11    1    4    4    0    0  0.47618095531E-01 -0.42493718978E-01 -0.42073752790E-01  0.76443841933E-01  0.51100000000E-03 0. -1.
</event>
<event>
 8    1  0.1035408E+005  0.1043930E+01  0.7957747E-01            NaN
         13   -1    0    0    0    0  0.00000000000E+00  0.00000000000E+00  0.74505805969E-08  0.10566000000E+00  0.10566000000E+00 0. -1.
     999900   -1    0    0    0    0 -0.00000000000E+00 -0.00000000000E+00 -0.74505805969E-08  0.93827000000E+00  0.93827000000E+00 0. -1.
     999902    2    1    2    0    0 -0.11234496553E-01 -0.80573688084E-02  0.19317049581E-01  0.10201753476E+01  0.10198987481E+01 0.  0.
     999903    2    3    3    0    0 -0.27739455581E-01  0.24712446749E-01 -0.12114493862E+00  0.12828082213E+00  0.19992267301E-01 0.  0.
         14    1    1    2    0    0  0.11234496553E-01  0.80573688084E-02 -0.19317049581E-01  0.23754652374E-01  0.00000000000E+00 0. -1.
     999901    1    3    3    0    0  0.16504959028E-01 -0.32769815557E-01  0.14046198820E+00  0.89189452550E+00  0.88000000000E+00 0.  1.
        -11    1    4    4    0    0 -0.22410273770E-01  0.67064599465E-02 -0.68242781995E-01  0.72142465933E-01  0.51100000000E-03 0.  1.
         11    1    4    4    0    0 -0.53291818109E-02  0.18005986802E-01 -0.52902156627E-01  0.56138356195E-01  0.51100000000E-03 0. -1.
</event>
<event>
 8    1  0.1030163E+005  0.1043930E+01  0.7957747E-01            NaN
         13   -1    0    0    0    0  0.00000000000E+00  0.00000000000E+00  0.74505805969E-08  0.10566000000E+00  0.10566000000E+00 0. -1.
     999900   -1    0    0    0    0 -0.00000000000E+00 -0.00000000000E+00 -0.74505805969E-08  0.93827000000E+00  0.93827000000E+00 0.  1.
     999902    2    1    2    0    0 -0.17555789384E-01 -0.14724067730E-01  0.81633041742E-02  0.10196062781E+01  0.10193161035E+01 0.  0.
     999903    2    3    3    0    0  0.12235706339E+00 -0.14811337259E-01  0.29265664373E-01  0.12830334218E+00  0.20362755981E-01 0.  0.
         14    1    1    2    0    0  0.17555789384E-01  0.14724067730E-01 -0.81633041742E-02  0.24323721887E-01  0.00000000000E+00 0. -1.
     999901    1    3    3    0    0 -0.13991285278E+00  0.87269529392E-04 -0.21102360199E-01  0.89130293593E+00  0.88000000000E+00 0. -1.
        -11    1    4    4    0    0  0.41445140714E-01  0.85322963942E-03  0.17709497275E-01  0.45081205667E-01  0.51100000000E-03 0.  1.
         11    1    4    4    0    0  0.80911922678E-01 -0.15664566899E-01  0.11556167098E-01  0.83222136517E-01  0.51100000000E-03 0. -1.
</event>
<event>
 8    1  0.1030163E+005  0.1043930E+01  0.7957747E-01            NaN
         13   -1    0    0    0    0  0.00000000000E+00  0.00000000000E+00  0.74505805969E-08  0.10566000000E+00  0.10566000000E+00 0. -1.
     999900   -1    0    0    0    0 -0.00000000000E+00 -0.00000000000E+00 -0.74505805969E-08  0.93827000000E+00  0.93827000000E+00 0.  1.
     999902    2    1    2    0    0 -0.14618364844E-01  0.11970288821E-01 -0.13745209206E-01  0.10205651721E+01  0.10202976798E+01 0.  0.
     999903    2    3    3    0    0  0.12090447793E+00  0.36131681358E-01 -0.17942402989E-01  0.12985319274E+00  0.24830035388E-01 0.  0.
         14    1    1    2    0    0  0.14618364844E-01 -0.11970288821E-01  0.13745209206E-01  0.23364827867E-01  0.00000000000E+00 0.  1.
     999901    1    3    3    0    0 -0.13552284277E+00 -0.24161392537E-01  0.41971937833E-02  0.89071197940E+00  0.88000000000E+00 0.  1.
        -11    1    4    4    0    0  0.96682919047E-01  0.27270416923E-01 -0.40145081270E-02  0.10053675881E+00  0.51100000000E-03 0. -1.
         11    1    4    4    0    0  0.24221558884E-01  0.88612644351E-02 -0.13927894862E-01  0.29316433932E-01  0.51100000000E-03 0.  1.
</event>
<event>
 8    1  0.1030163E+005  0.1043930E+01  0.7957747E-01            NaN
         13   -1    0    0    0    0  0.00000000000E+00  0.00000000000E+00  0.74505805969E-08  0.10566000000E+00  0.10566000000E+00 0. -1.
     999900   -1    0    0    0    0 -0.00000000000E+00 -0.00000000000E+00 -0.74505805969E-08  0.93827000000E+00  0.93827000000E+00 0. -1.
     999902    2    1    2    0    0  0.36207166116E-02  0.20310585427E-01  0.98102506642E-02  0.10210855152E+01  0.10208299363E+01 0.  0.
     999903    2    3    3    0    0 -0.76185787961E-01 -0.50250051926E-01 -0.89140167305E-01  0.12915554766E+00  0.20145571704E-01 0.  0.
         14    1    1    2    0    0 -0.36207166116E-02 -0.20310585427E-01 -0.98102506642E-02  0.22844484833E-01  0.00000000000E+00 0. -1.
     999901    1    3    3    0    0  0.79806504572E-01  0.70560637353E-01  0.98950417969E-01  0.89192996750E+00  0.88000000000E+00 0.  1.
        -11    1    4    4    0    0 -0.63982764235E-01 -0.40604895356E-01 -0.62181912220E-01  0.98027562320E-01  0.51100000000E-03 0.  1.
         11    1    4    4    0    0 -0.12203023725E-01 -0.96451565699E-02 -0.26958255085E-01  0.31127985343E-01  0.51100000000E-03 0. -1.
</event>
<event>
 8    1  0.1030163E+005  0.1043930E+01  0.7957747E-01            NaN
         13   -1    0    0    0    0  0.00000000000E+00  0.00000000000E+00  0.74505805969E-08  0.10566000000E+00  0.10566000000E+00 0. -1.
     999900   -1    0    0    0    0 -0.00000000000E+00 -0.00000000000E+00 -0.74505805969E-08  0.93827000000E+00  0.93827000000E+00 0.  1.
     999902    2    1    2    0    0 -0.21163136250E-01 -0.10680606126E-01  0.10080320099E-02  0.10202030151E+01  0.10199270671E+01 0.  0.
     999903    2    3    3    0    0  0.24886159351E-01 -0.23381172724E-01  0.12424355987E+00  0.13033289125E+00  0.19601025666E-01 0.  0.
         14    1    1    2    0    0  0.21163136250E-01  0.10680606126E-01 -0.10080320099E-02  0.23726984884E-01  0.00000000000E+00 0.  1.
     999901    1    3    3    0    0 -0.46049295601E-01  0.12700566597E-01 -0.12323552786E+00  0.88987012386E+00  0.88000000000E+00 0.  1.
        -11    1    4    4    0    0  0.23737775013E-01 -0.25759042761E-01  0.10036562045E+00  0.10630394695E+00  0.51100000000E-03 0.  1.
         11    1    4    4    0    0  0.11483843377E-02  0.23778700378E-02  0.23877939420E-01  0.24028944306E-01  0.51100000000E-03 0. -1.
</event>
<event>
 8    1  0.1030163E+005  0.1043930E+01  0.7957747E-01            NaN
         13   -1    0    0    0    0  0.00000000000E+00  0.00000000000E+00  0.74505805969E-08  0.10566000000E+00  0.10566000000E+00 0. -1.
     999900   -1    0    0    0    0 -0.00000000000E+00 -0.00000000000E+00 -0.74505805969E-08  0.93827000000E+00  0.93827000000E+00 0.  1.
     999902    2    1    2    0    0 -0.17944604700E-02 -0.56001086485E-03  0.24136798538E-01  0.10197201106E+01  0.10194326781E+01 0.  0.
     999903    2    3    3    0    0 -0.34852140030E-01 -0.12363646004E+00  0.90102648566E-02  0.13041170823E+00  0.20624811663E-01 0.  0.
         14    1    1    2    0    0  0.17944604700E-02  0.56001086485E-03 -0.24136798538E-01  0.24209889389E-01  0.00000000000E+00 0.  1.
     999901    1    3    3    0    0  0.33057679560E-01  0.12307644917E+00  0.15126533682E-01  0.88930840238E+00  0.88000000000E+00 0.  1.
        -11    1    4    4    0    0 -0.73007313586E-02 -0.63432136167E-01  0.28878994210E-02  0.63918210716E-01  0.51100000000E-03 0. -1.
         11    1    4    4    0    0 -0.27551408672E-01 -0.60204323871E-01  0.61223654356E-02  0.66493497517E-01  0.51100000000E-03 0.  1.
</event>
<event>
 8    1  0.1030163E+005  0.1043930E+01  0.7957747E-01            NaN
         13   -1    0    0    0    0  0.00000000000E+00  0.00000000000E+00  0.74505805969E-08  0.10566000000E+00  0.10566000000E+00 0. -1.
     999900   -1    0    0    0    0 -0.00000000000E+00 -0.00000000000E+00 -0.74505805969E-08  0.93827000000E+00  0.93827000000E+00 0. -1.
     999902    2    1    2    0    0  0.25243622729E-02 -0.22277208757E-01  0.19405552849E-02  0.10214263961E+01  0.10211784714E+01 0.  0.
     999903    2    3    3    0    0 -0.52564665507E-01 -0.76209233424E-01  0.93473909798E-01  0.13332627826E+00  0.21624831645E-01 0.  0.
         14    1    1    2    0    0 -0.25243622729E-02  0.22277208757E-01 -0.19405552849E-02  0.22503603927E-01  0.00000000000E+00 0. -1.
     999901    1    3    3    0    0  0.55089027780E-01  0.53932024667E-01 -0.91533354513E-01  0.88810011781E+00  0.88000000000E+00 0. -1.
        -11    1    4    4    0    0 -0.33602878975E-01 -0.35271632192E-01  0.37786228225E-01  0.61654697123E-01  0.51100000000E-03 0.  1.
         11    1    4    4    0    0 -0.18961786532E-01 -0.40937601232E-01  0.55687681573E-01  0.71671581140E-01  0.51100000000E-03 0. -1.
</event>
<event>
 8    1  0.1030163E+005  0.1043930E+01  0.7957747E-01            NaN
         13   -1    0    0    0    0  0.00000000000E+00  0.00000000000E+00  0.74505805969E-08  0.10566000000E+00  0.10566000000E+00 0. -1.
     999900   -1    0    0    0    0 -0.00000000000E+00 -0.00000000000E+00 -0.74505805969E-08  0.93827000000E+00  0.93827000000E+00 0.  1.
     999902    2    1    2    0    0 -0.54442439922E-02  0.15588637098E-01  0.24232461181E-01  0.10146066718E+01  0.10141828440E+01 0.  0.
     999903    2    3    3    0    0 -0.82522265339E-01 -0.41653361236E-02  0.95852083813E-01  0.12811887657E+00  0.19988753322E-01 0.  0.
         14    1    1    2    0    0  0.54442439922E-02 -0.15588637098E-01 -0.24232461181E-01  0.29323328156E-01  0.00000000000E+00 0.  1.
     999901    1    3    3    0    0  0.77078021346E-01  0.19753973222E-01 -0.71619622632E-01  0.88648779528E+00  0.88000000000E+00 0. -1.
        -11    1    4    4    0    0 -0.63244478824E-01 -0.11457622258E-01  0.69616530558E-01  0.94751589208E-01  0.51100000000E-03 0.  1.
         11    1    4    4    0    0 -0.19277786515E-01  0.72922861345E-02  0.26235553255E-01  0.33367287357E-01  0.51100000000E-03 0. -1.
</event>
<event>
 8    1  0.1030163E+005  0.1043930E+01  0.7957747E-01            NaN
         13   -1    0    0    0    0  0.00000000000E+00  0.00000000000E+00  0.74505805969E-08  0.10566000000E+00  0.10566000000E+00 0. -1.
     999900   -1    0    0    0    0 -0.00000000000E+00 -0.00000000000E+00 -0.74505805969E-08  0.93827000000E+00  0.93827000000E+00 0.  1.
     999902    2    1    2    0    0 -0.19140724500E-01  0.10734301339E-01  0.10241819765E-01  0.10197124974E+01  0.10194248820E+01 0.  0.
     999903    2    3    3    0    0  0.91623208094E-01  0.77329386755E-01 -0.42515469779E-01  0.12870919452E+00  0.19591969408E-01 0.  0.
         14    1    1    2    0    0  0.19140724500E-01 -0.10734301339E-01 -0.10241819765E-01  0.24217502590E-01  0.00000000000E+00 0.  1.
     999901    1    3    3    0    0 -0.11076393259E+00 -0.66595085417E-01  0.52757289544E-01  0.89100330289E+00  0.88000000000E+00 0. -1.
        -11    1    4    4    0    0  0.64095368493E-01  0.62469480080E-01 -0.25357226427E-01  0.93026352486E-01  0.51100000000E-03 0.  1.
         11    1    4    4    0    0  0.27527839601E-01  0.14859906675E-01 -0.17158243352E-01  0.35682842032E-01  0.51100000000E-03 0. -1.
</event>
<event>
 8    1  0.1030163E+005  0.1043930E+01  0.7957747E-01            NaN
         13   -1    0    0    0    0  0.00000000000E+00  0.00000000000E+00  0.74505805969E-08  0.10566000000E+00  0.10566000000E+00 0.  1.
     999900   -1    0    0    0    0 -0.00000000000E+00 -0.00000000000E+00 -0.74505805969E-08  0.93827000000E+00  0.93827000000E+00 0. -1.
     999902    2    1    2    0    0 -0.85448129831E-02  0.95128242075E-02  0.51836574386E-02  0.10301322481E+01  0.10300398393E+01 0.  0.
     999903    2    3    3    0    0 -0.10400296289E+00 -0.53017238869E-01  0.74614354291E-01  0.14005197708E+00  0.20489277953E-01 0.  0.
         14    1    1    2    0    0  0.85448129831E-02 -0.95128242075E-02 -0.51836574386E-02  0.13797751910E-01  0.00000000000E+00 0. -1.
     999901    1    3    3    0    0  0.95458149908E-01  0.62530063076E-01 -0.69430696852E-01  0.89008027101E+00  0.88000000000E+00 0. -1.
        -11    1    4    4    0    0 -0.45235089836E-01 -0.27333533714E-01  0.22638996415E-01  0.57498875619E-01  0.51100000000E-03 0. -1.
         11    1    4    4    0    0 -0.58767873055E-01 -0.25683705154E-01  0.51975357876E-01  0.82553101463E-01  0.51100000000E-03 0.  1.
</event>
<event>
 8    1  0.1030163E+005  0.1043930E+01  0.7957747E-01            NaN
         13   -1    0    0    0    0  0.00000000000E+00  0.00000000000E+00  0.74505805969E-08  0.10566000000E+00  0.10566000000E+00 0. -1.
     999900   -1    0    0    0    0 -0.00000000000E+00 -0.00000000000E+00 -0.74505805969E-08  0.93827000000E+00  0.93827000000E+00 0.  1.
     999902    2    1    2    0    0  0.13676258385E-01 -0.18610140276E-01  0.35480457318E-03  0.10208323107E+01  0.10205709693E+01 0.  0.
     999903    2    3    3    0    0 -0.24623148234E-01  0.65876518473E-02 -0.12643675177E+00  0.13056388375E+00  0.20272615866E-01 0.  0.
         14    1    1    2    0    0 -0.13676258385E-01  0.18610140276E-01 -0.35480457318E-03  0.23097689296E-01  0.00000000000E+00 0.  1.
     999901    1    3    3    0    0  0.38299406620E-01 -0.25197792123E-01  0.12679155635E+00  0.89026842696E+00  0.88000000000E+00 0.  1.
        -11    1    4    4    0    0 -0.36995648276E-02 -0.25363355987E-02 -0.62676780542E-01  0.62839157524E-01  0.51100000000E-03 0. -1.
         11    1    4    4    0    0 -0.20923583407E-01  0.91239874460E-02 -0.63759971232E-01  0.67724726223E-01  0.51100000000E-03 0.  1.
</event>
<event>
 8    1  0.1030163E+005  0.1043930E+01  0.7957747E-01            NaN
         13   -1    0    0    0    0  0.00000000000E+00  0.00000000000E+00  0.74505805969E-08  0.10566000000E+00  0.10566000000E+00 0.  1.
     999900   -1    0    0    0    0 -0.00000000000E+00 -0.00000000000E+00 -0.74505805969E-08  0.93827000000E+00  0.93827000000E+00 0.  1.
     999902    2    1    2    0    0 -0.17789053727E-01  0.96989276555E-04  0.14614775993E-01  0.10209071523E+01  0.10206475210E+01 0.  0.
     999903    2    3    3    0    0 -0.67415411083E-01  0.70843287402E-01 -0.85041458315E-01  0.13107616885E+00  0.19629146388E-01 0.  0.
         14    1    1    2    0    0  0.17789053727E-01 -0.96989276555E-04 -0.14614775993E-01  0.23022847711E-01  0.00000000000E+00 0. -1.
     999901    1    3    3    0    0  0.49626357355E-01 -0.70746298126E-01  0.99656234307E-01  0.88983098343E+00  0.88000000000E+00 0. -1.
        -11    1    4    4    0    0 -0.13233465438E-01  0.25898177298E-01 -0.20671775002E-01  0.35685061267E-01  0.51100000000E-03 0. -1.
         11    1    4    4    0    0 -0.54181945645E-01  0.44945110104E-01 -0.64369683312E-01  0.95391107588E-01  0.51100000000E-03 0.  1.
</event>
<event>
 8    1  0.1030163E+005  0.1043930E+01  0.7957747E-01            NaN
         13   -1    0    0    0    0  0.00000000000E+00  0.00000000000E+00  0.74505805969E-08  0.10566000000E+00  0.10566000000E+00 0.  1.
     999900   -1    0    0    0    0 -0.00000000000E+00 -0.00000000000E+00 -0.74505805969E-08  0.93827000000E+00  0.93827000000E+00 0.  1.
     999902    2    1    2    0    0 -0.10253738288E-01 -0.11605314466E-01  0.17656783843E-01  0.10204441641E+01  0.10201738614E+01 0.  0.
     999903    2    3    3    0    0 -0.43267928771E-01  0.25141657829E-01  0.12154656473E+00  0.13295705809E+00  0.19994881324E-01 0.  0.
         14    1    1    2    0    0  0.10253738288E-01  0.11605314466E-01 -0.17656783843E-01  0.23485835910E-01  0.00000000000E+00 0. -1.
     999901    1    3    3    0    0  0.33014190482E-01 -0.36746972295E-01 -0.10388978089E+00  0.88748710600E+00  0.88000000000E+00 0.  1.
        -11    1    4    4    0    0 -0.31707562576E-01  0.24646083502E-01  0.75985143108E-01  0.85946506913E-01  0.51100000000E-03 0.  1.
         11    1    4    4    0    0 -0.11560366195E-01  0.49557432664E-03  0.45561421623E-01  0.47010551175E-01  0.51100000000E-03 0. -1.
</event>
<event>
 8    1  0.1030163E+005  0.1043930E+01  0.7957747E-01            NaN
         13   -1    0    0    0    0  0.00000000000E+00  0.00000000000E+00  0.74505805969E-08  0.10566000000E+00  0.10566000000E+00 0.  1.
     999900   -1    0    0    0    0 -0.00000000000E+00 -0.00000000000E+00 -0.74505805969E-08  0.93827000000E+00  0.93827000000E+00 0.  1.
     999902    2    1    2    0    0 -0.10725624851E-01 -0.10537373304E-01  0.19576417782E-01  0.10192457662E+01  0.10189468193E+01 0.  0.
     999903    2    3    3    0    0  0.20212225797E-03 -0.89518689578E-01 -0.90611214551E-01  0.12879712744E+00  0.19096366048E-01 0.  0.
         14    1    1    2    0    0  0.10725624851E-01  0.10537373304E-01 -0.19576417782E-01  0.24684233789E-01  0.00000000000E+00 0.  1.
     999901    1    3    3    0    0 -0.10927747109E-01  0.78981316274E-01  0.11018763233E+00  0.89044863878E+00  0.88000000000E+00 0. -1.
        -11    1    4    4    0    0 -0.77152997917E-02 -0.30801315477E-01 -0.25205023483E-01  0.40543818466E-01  0.51100000000E-03 0.  1.
         11    1    4    4    0    0  0.79174220497E-02 -0.58717374101E-01 -0.65406191068E-01  0.88253308970E-01  0.51100000000E-03 0. -1.
</event>
<event>
 8    1  0.1030163E+005  0.1043930E+01  0.7957747E-01            NaN
         13   -1    0    0    0    0  0.00000000000E+00  0.00000000000E+00  0.74505805969E-08  0.10566000000E+00  0.10566000000E+00 0. -1.
     999900   -1    0    0    0    0 -0.00000000000E+00 -0.00000000000E+00 -0.74505805969E-08  0.93827000000E+00  0.93827000000E+00 0. -1.
     999902    2    1    2    0    0 -0.58128859009E-02  0.13521801242E-01  0.19762364652E-01  0.10192889812E+01  0.10189910929E+01 0.  0.
     999903    2    3    3    0    0 -0.36527686797E-01  0.66563535686E-01  0.10718605924E+00  0.13283552671E+00  0.19785087165E-01 0.  0.
         14    1    1    2    0    0  0.58128859009E-02 -0.13521801242E-01 -0.19762364652E-01  0.24641018809E-01  0.00000000000E+00 0.  1.
     999901    1    3    3    0    0  0.30714800896E-01 -0.53041734444E-01 -0.87423694592E-01  0.88645345448E+00  0.88000000000E+00 0. -1.
        -11    1    4    4    0    0 -0.14090413315E-01  0.39070547999E-01  0.70257894362E-01  0.81617892092E-01  0.51100000000E-03 0.  1.
         11    1    4    4    0    0 -0.22437273482E-01  0.27492987687E-01  0.36928164882E-01  0.51217634617E-01  0.51100000000E-03 0. -1.
</event>
<event>
 8    1  0.1030163E+005  0.1043930E+01  0.7957747E-01            NaN
         13   -1    0    0    0    0  0.00000000000E+00  0.00000000000E+00  0.74505805969E-08  0.10566000000E+00  0.10566000000E+00 0.  1.
     999900   -1    0    0    0    0 -0.00000000000E+00 -0.00000000000E+00 -0.74505805969E-08  0.93827000000E+00  0.93827000000E+00 0.  1.
     999902    2    1    2    0    0 -0.10408394785E-01 -0.85366916853E-02  0.25185134634E-01  0.10153730255E+01  0.10149713691E+01 0.  0.
     999903    2    3    3    0    0  0.66013131397E-02 -0.50038685245E-01 -0.11121144061E+00  0.12373645638E+00  0.19881618563E-01 0.  0.
         14    1    1    2    0    0  0.10408394785E-01  0.85366916853E-02 -0.25185134634E-01  0.28556974516E-01  0.00000000000E+00 0. -1.
     999901    1    3    3    0    0 -0.17009707925E-01  0.41501993560E-01  0.13639657525E+00  0.89163656911E+00  0.88000000000E+00 0. -1.
        -11    1    4    4    0    0  0.97226235504E-02 -0.10165507218E-01 -0.24785472657E-01  0.28503468588E-01  0.51100000000E-03 0.  1.
         11    1    4    4    0    0 -0.31213104108E-02 -0.39873178027E-01 -0.86425967957E-01  0.95232987788E-01  0.51100000000E-03 0. -1.
</event>
<event>
 8    1  0.1030163E+005  0.1043930E+01  0.7957747E-01            NaN
         13   -1    0    0    0    0  0.00000000000E+00  0.00000000000E+00  0.74505805969E-08  0.10566000000E+00  0.10566000000E+00 0.  1.
     999900   -1    0    0    0    0 -0.00000000000E+00 -0.00000000000E+00 -0.74505805969E-08  0.93827000000E+00  0.93827000000E+00 0. -1.
     999902    2    1    2    0    0 -0.86537421775E-02 -0.52793598851E-02 -0.21182320540E-01  0.10204470360E+01  0.10201768002E+01 0.  0.
     999903    2    3    3    0    0  0.34756956936E-01  0.12033955996E+00 -0.30921946674E-01  0.13041363094E+00  0.19023475008E-01 0.  0.
         14    1    1    2    0    0  0.86537421775E-02  0.52793598851E-02  0.21182320540E-01  0.23482963994E-01  0.00000000000E+00 0.  1.
     999901    1    3    3    0    0 -0.43410699114E-01 -0.12561891985E+00  0.97396261341E-02  0.89003340507E+00  0.88000000000E+00 0.  1.
        -11    1    4    4    0    0  0.18252138506E-02  0.37463402340E-01 -0.87766064858E-02  0.38524380110E-01  0.51100000000E-03 0. -1.
         11    1    4    4    0    0  0.32931743086E-01  0.82876157620E-01 -0.22145340188E-01  0.91889250828E-01  0.51100000000E-03 0.  1.
</event>
<event>
 8    1  0.1030163E+005  0.1043930E+01  0.7957747E-01            NaN
         13   -1    0    0    0    0  0.00000000000E+00  0.00000000000E+00  0.74505805969E-08  0.10566000000E+00  0.10566000000E+00 0.  1.
     999900   -1    0    0    0    0 -0.00000000000E+00 -0.00000000000E+00 -0.74505805969E-08  0.93827000000E+00  0.93827000000E+00 0. -1.
     999902    2    1    2    0    0 -0.15073728768E-01 -0.12162994176E-01 -0.15977108151E-01  0.10188217601E+01  0.10185123245E+01 0.  0.
     999903    2    3    3    0    0  0.58680455551E-01  0.10585413729E+00  0.31690145631E-01  0.12661108424E+00  0.19432114559E-01 0.  0.
         14    1    1    2    0    0  0.15073728768E-01  0.12162994176E-01  0.15977108151E-01  0.25108239906E-01  0.00000000000E+00 0.  1.
     999901    1    3    3    0    0 -0.73754184319E-01 -0.11801713147E+00 -0.47667253782E-01  0.89221067585E+00  0.88000000000E+00 0. -1.
        -11    1    4    4    0    0  0.12515972462E-01  0.11293558967E-01  0.56403616298E-03  0.16875227365E-01  0.51100000000E-03 0. -1.
         11    1    4    4    0    0  0.46164483089E-01  0.94560578328E-01  0.31126109468E-01  0.10973585688E+00  0.51100000000E-03 0.  1.
</event>
<event>
 8    1  0.1030163E+005  0.1043930E+01  0.7957747E-01            NaN
         13   -1    0    0    0    0  0.00000000000E+00  0.00000000000E+00  0.74505805969E-08  0.10566000000E+00  0.10566000000E+00 0.  1.
     999900   -1    0    0    0    0 -0.00000000000E+00 -0.00000000000E+00 -0.74505805969E-08  0.93827000000E+00  0.93827000000E+00 0. -1.
     999902    2    1    2    0    0 -0.17766730707E-01 -0.18599999581E-01  0.28775128611E-02  0.10180476356E+01  0.10177185719E+01 0.  0.
     999903    2    3    3    0    0  0.53938249742E-01  0.31618544015E-01  0.10971429740E+00  0.12727403653E+00  0.15886667707E-01 0.  0.
         14    1    1    2    0    0  0.17766730707E-01  0.18599999581E-01 -0.28775128611E-02  0.25882364357E-01  0.00000000000E+00 0. -1.
     999901    1    3    3    0    0 -0.71704980450E-01 -0.50218543596E-01 -0.10683678454E+00  0.89077359911E+00  0.88000000000E+00 0. -1.
        -11    1    4    4    0    0  0.38550052076E-01  0.13795335347E-01  0.68597170091E-01  0.79888989591E-01  0.51100000000E-03 0. -1.
         11    1    4    4    0    0  0.15388197666E-01  0.17823208669E-01  0.41117127307E-01  0.47385046941E-01  0.51100000000E-03 0.  1.
</event>
<event>
 8    1  0.1030163E+005  0.1043930E+01  0.7957747E-01            NaN
         13   -1    0    0    0    0  0.00000000000E+00  0.00000000000E+00  0.74505805969E-08  0.10566000000E+00  0.10566000000E+00 0.  1.
     999900   -1    0    0    0    0 -0.00000000000E+00 -0.00000000000E+00 -0.74505805969E-08  0.93827000000E+00  0.93827000000E+00 0.  1.
     999902    2    1    2    0    0  0.14486254369E-01 -0.11031868362E-01 -0.15223559543E-01  0.10201958379E+01  0.10199197210E+01 0.  0.
     999903    2    3    3    0    0 -0.55189807245E-01  0.53599018962E-01  0.99711187272E-01  0.12764785534E+00  0.20805875323E-01 0.  0.
         14    1    1    2    0    0 -0.14486254369E-01  0.11031868362E-01  0.15223559543E-01  0.23734162095E-01  0.00000000000E+00 0.  1.
     999901    1    3    3    0    0  0.69676061614E-01 -0.64630887324E-01 -0.11493474681E+00  0.89254798257E+00  0.88000000000E+00 0.  1.
        -11    1    4    4    0    0 -0.40955653232E-01  0.26011618194E-01  0.64316965652E-01  0.80566140558E-01  0.51100000000E-03 0.  1.
         11    1    4    4    0    0 -0.14234154013E-01  0.27587400768E-01  0.35394221620E-01  0.47081714781E-01  0.51100000000E-03 0. -1.
</event>
<event>
 8    1  0.1030163E+005  0.1043930E+01  0.7957747E-01            NaN
         13   -1    0    0    0    0  0.00000000000E+00  0.00000000000E+00  0.74505805969E-08  0.10566000000E+00  0.10566000000E+00 0. -1.
     999900   -1    0    0    0    0 -0.00000000000E+00 -0.00000000000E+00 -0.74505805969E-08  0.93827000000E+00  0.93827000000E+00 0.  1.
     999902    2    1    2    0    0 -0.47086436714E-02 -0.13393519740E-01 -0.20009437893E-01  0.10193956302E+01  0.10191003462E+01 0.  0.
     999903    2    3    3    0    0 -0.93750752049E-01  0.65799224425E-01  0.51867388994E-01  0.12846001748E+00  0.26325056586E-01 0.  0.
         14    1    1    2    0    0  0.47086436714E-02  0.13393519740E-01  0.20009437893E-01  0.24534369791E-01  0.00000000000E+00 0. -1.
     999901    1    3    3    0    0  0.89042108378E-01 -0.79192744164E-01 -0.71876826887E-01  0.89093561273E+00  0.88000000000E+00 0. -1.
        -11    1    4    4    0    0 -0.31080287574E-01  0.19317874703E-01  0.37527788096E-02  0.36790066981E-01  0.51100000000E-03 0. -1.
         11    1    4    4    0    0 -0.62670464475E-01  0.46481349722E-01  0.48114610185E-01  0.91669950495E-01  0.51100000000E-03 0.  1.
</event>
<event>
 8    1  0.1030163E+005  0.1043930E+01  0.7957747E-01            NaN
         13   -1    0    0    0    0  0.00000000000E+00  0.00000000000E+00  0.74505805969E-08  0.10566000000E+00  0.10566000000E+00 0. -1.
     999900   -1    0    0    0    0 -0.00000000000E+00 -0.00000000000E+00 -0.74505805969E-08  0.93827000000E+00  0.93827000000E+00 0.  1.
     999902    2    1    2    0    0  0.75369919092E-04 -0.29448139571E-02  0.26020325137E-01  0.10177434590E+01  0.10174065133E+01 0.  0.
     999903    2    3    3    0    0 -0.17632094358E-01  0.11684176026E+00 -0.41610998355E-01  0.12688074590E+00  0.20108724582E-01 0.  0.
         14    1    1    2    0    0 -0.75369919092E-04  0.29448139571E-02 -0.26020325137E-01  0.26186541011E-01  0.00000000000E+00 0.  1.
     999901    1    3    3    0    0  0.17707464278E-01 -0.11978657422E+00  0.67631323492E-01  0.89086271309E+00  0.88000000000E+00 0. -1.
        -11    1    4    4    0    0 -0.53449051555E-02  0.25269446849E-01 -0.18095572525E-01  0.31540827846E-01  0.51100000000E-03 0. -1.
         11    1    4    4    0    0 -0.12287189203E-01  0.91572313410E-01 -0.23515425830E-01  0.95339918055E-01  0.51100000000E-03 0.  1.
</event>
<event>
 8    1  0.1030163E+005  0.1043930E+01  0.7957747E-01            NaN
         13   -1    0    0    0    0  0.00000000000E+00  0.00000000000E+00  0.74505805969E-08  0.10566000000E+00  0.10566000000E+00 0.  1.
     999900   -1    0    0    0    0 -0.00000000000E+00 -0.00000000000E+00 -0.74505805969E-08  0.93827000000E+00  0.93827000000E+00 0.  1.
     999902    2    1    2    0    0 -0.12369811302E-01  0.77178983921E-02 -0.18326520807E-01  0.10205112137E+01  0.10202424701E+01 0.  0.
     999903    2    3    3    0    0 -0.45135728292E-01 -0.12017842752E+00  0.94283642785E-02  0.13022956773E+00  0.19767595897E-01 0.  0.
         14    1    1    2    0    0  0.12369811302E-01 -0.77178983921E-02  0.18326520807E-01  0.23418786308E-01  0.00000000000E+00 0.  1.
     999901    1    3    3    0    0  0.32765916989E-01  0.12789632591E+00 -0.27754885086E-01  0.89028164597E+00  0.88000000000E+00 0.  1.
        -11    1    4    4    0    0 -0.40929835285E-01 -0.99505449689E-01  0.14383619994E-01  0.10855291603E+00  0.51100000000E-03 0.  1.
         11    1    4    4    0    0 -0.42058930070E-02 -0.20672977831E-01 -0.49552557158E-02  0.21676651692E-01  0.51100000000E-03 0. -1.
</event>
<event>
 8    1  0.1030163E+005  0.1043930E+01  0.7957747E-01            NaN
         13   -1    0    0    0    0  0.00000000000E+00  0.00000000000E+00  0.74505805969E-08  0.10566000000E+00  0.10566000000E+00 0. -1.
     999900   -1    0    0    0    0 -0.00000000000E+00 -0.00000000000E+00 -0.74505805969E-08  0.93827000000E+00  0.93827000000E+00 0.  1.
     999902    2    1    2    0    0 -0.17935905111E-01 -0.12917190264E-01 -0.90550907186E-02  0.10200439127E+01  0.10197642074E+01 0.  0.
     999903    2    3    3    0    0 -0.56271024158E-01  0.11301704184E+00  0.22211288391E-01  0.12970319222E+00  0.19755931603E-01 0.  0.
         14    1    1    2    0    0  0.17935905111E-01  0.12917190264E-01  0.90550907186E-02  0.23886087256E-01  0.00000000000E+00 0. -1.
     999901    1    3    3    0    0  0.38335119047E-01 -0.12593423210E+00 -0.31266379109E-01  0.89034072053E+00  0.88000000000E+00 0.  1.
        -11    1    4    4    0    0 -0.42579154851E-01  0.76113794827E-01  0.23470302033E-01  0.90318383452E-01  0.51100000000E-03 0.  1.
         11    1    4    4    0    0 -0.13691869307E-01  0.36903247011E-01 -0.12590136421E-02  0.39384808765E-01  0.51100000000E-03 0. -1.
</event>
<event>
 8    1  0.1030163E+005  0.1043930E+01  0.7957747E-01            NaN
         13   -1    0    0    0    0  0.00000000000E+00  0.00000000000E+00  0.74505805969E-08  0.10566000000E+00  0.10566000000E+00 0.  1.
     999900   -1    0    0    0    0 -0.00000000000E+00 -0.00000000000E+00 -0.74505805969E-08  0.93827000000E+00  0.93827000000E+00 0. -1.
     999902    2    1    2    0    0  0.69310352747E-02 -0.15944272937E-01 -0.12774440261E-01  0.10223558160E+01  0.10221281569E+01 0.  0.
     999903    2    3    3    0    0  0.66283892750E-01  0.11013392026E+00  0.14898562217E-01  0.13096125270E+00  0.20145662608E-01 0.  0.
         14    1    1    2    0    0 -0.69310352747E-02  0.15944272937E-01  0.12774440261E-01  0.21574183958E-01  0.00000000000E+00 0.  1.
     999901    1    3    3    0    0 -0.59352857476E-01 -0.12607819320E+00 -0.27673002478E-01  0.89139456334E+00  0.88000000000E+00 0. -1.
        -11    1    4    4    0    0  0.28077511788E-01  0.63931240709E-01  0.12649107888E-01  0.70963450157E-01  0.51100000000E-03 0.  1.
         11    1    4    4    0    0  0.38206380962E-01  0.46202679553E-01  0.22494543290E-02  0.59997802542E-01  0.51100000000E-03 0. -1.
</event>
<event>
 8    1  0.1030163E+005  0.1043930E+01  0.7957747E-01            NaN
         13   -1    0    0    0    0  0.00000000000E+00  0.00000000000E+00  0.74505805969E-08  0.10566000000E+00  0.10566000000E+00 0. -1.
     999900   -1    0    0    0    0 -0.00000000000E+00 -0.00000000000E+00 -0.74505805969E-08  0.93827000000E+00  0.93827000000E+00 0.  1.
     999902    2    1    2    0    0 -0.18315537203E-01 -0.97826149807E-03  0.13946737146E-01  0.10208881386E+01  0.10206280734E+01 0.  0.
     999903    2    3    3    0    0 -0.12820683065E+00 -0.30754052078E-01  0.74490249004E-02  0.13352974748E+00  0.19796523543E-01 0.  0.
         14    1    1    2    0    0  0.18315537203E-01  0.97826149807E-03 -0.13946737146E-01  0.23041861375E-01  0.00000000000E+00 0. -1.
     999901    1    3    3    0    0  0.10989129345E+00  0.29775790580E-01  0.64977122457E-02  0.88735839115E+00  0.88000000000E+00 0.  1.
        -11    1    4    4    0    0 -0.10164524367E+00 -0.32450062781E-01  0.61222652633E-02  0.10687612169E+00  0.51100000000E-03 0. -1.
         11    1    4    4    0    0 -0.26561586982E-01  0.16960107033E-02  0.13267596372E-02  0.26653625784E-01  0.51100000000E-03 0.  1.
</event>
<event>
 8    1  0.1030163E+005  0.1043930E+01  0.7957747E-01            NaN
         13   -1    0    0    0    0  0.00000000000E+00  0.00000000000E+00  0.74505805969E-08  0.10566000000E+00  0.10566000000E+00 0.  1.
     999900   -1    0    0    0    0 -0.00000000000E+00 -0.00000000000E+00 -0.74505805969E-08  0.93827000000E+00  0.93827000000E+00 0.  1.
     999902    2    1    2    0    0  0.20454459499E-01 -0.11797734484E-01  0.31841704561E-02  0.10201033260E+01  0.10198250268E+01 0.  0.
     999903    2    3    3    0    0 -0.10980613224E+00 -0.50520233192E-01 -0.39093333714E-01  0.12866928973E+00  0.20440566046E-01 0.  0.
         14    1    1    2    0    0 -0.20454459499E-01  0.11797734484E-01 -0.31841704561E-02  0.23826673999E-01  0.00000000000E+00 0. -1.
     999901    1    3    3    0    0  0.13026059173E+00  0.38722498708E-01  0.42277504170E-01  0.89143403627E+00  0.88000000000E+00 0. -1.
        -11    1    4    4    0    0 -0.84753747328E-01 -0.47645483998E-01 -0.33461781867E-01  0.10282626998E+00  0.51100000000E-03 0. -1.
         11    1    4    4    0    0 -0.25052384908E-01 -0.28747491937E-02 -0.56315518462E-02  0.25843019748E-01  0.51100000000E-03 0.  1.
</event>
<event>
 8    1  0.1030163E+005  0.1043930E+01  0.7957747E-01            NaN
         13   -1    0    0    0    0  0.00000000000E+00  0.00000000000E+00  0.74505805969E-08  0.10566000000E+00  0.10566000000E+00 0.  1.
     999900   -1    0    0    0    0 -0.00000000000E+00 -0.00000000000E+00 -0.74505805969E-08  0.93827000000E+00  0.93827000000E+00 0. -1.
     999902    2    1    2    0    0 -0.17344265565E-01  0.64319621038E-02 -0.15292057919E-01  0.10199291517E+01  0.10196467201E+01 0.  0.
     999903    2    3    3    0    0  0.12122008080E+00  0.36354482592E-01  0.92500734015E-02  0.12824661203E+00  0.18592289905E-01 0.  0.
         14    1    1    2    0    0  0.17344265565E-01 -0.64319621038E-02  0.15292057919E-01  0.24000848316E-01  0.00000000000E+00 0.  1.
     999901    1    3    3    0    0 -0.13856434637E+00 -0.29922520488E-01 -0.24542131321E-01  0.89168253966E+00  0.88000000000E+00 0. -1.
        -11    1    4    4    0    0  0.91165746787E-01  0.24144463534E-01 -0.69473539342E-03  0.94312736599E-01  0.51100000000E-03 0.  1.
         11    1    4    4    0    0  0.30054334018E-01  0.12210019059E-01  0.99448087949E-02  0.33933875429E-01  0.51100000000E-03 0. -1.
</event>
<event>
 8    1  0.1030163E+005  0.1043930E+01  0.7957747E-01            NaN
         13   -1    0    0    0    0  0.00000000000E+00  0.00000000000E+00  0.74505805969E-08  0.10566000000E+00  0.10566000000E+00 0. -1.
     999900   -1    0    0    0    0 -0.00000000000E+00 -0.00000000000E+00 -0.74505805969E-08  0.93827000000E+00  0.93827000000E+00 0. -1.
     999902    2    1    2    0    0  0.17375960246E-01 -0.14422897863E-01 -0.62771549917E-02  0.10204918548E+01  0.10202226615E+01 0.  0.
     999903    2    3    3    0    0 -0.10299230906E+00 -0.53134228354E-01 -0.56136997777E-01  0.13005763974E+00  0.18247333678E-01 0.  0.
         14    1    1    2    0    0 -0.17375960246E-01  0.14422897863E-01  0.62771549917E-02  0.23438145234E-01  0.00000000000E+00 0. -1.
     999901    1    3    3    0    0  0.12036826931E+00  0.38711330491E-01  0.49859842785E-01  0.89043421503E+00  0.88000000000E+00 0. -1.
        -11    1    4    4    0    0 -0.26125123832E-01 -0.83590862318E-02 -0.20405151080E-01  0.34191047505E-01  0.51100000000E-03 0.  1.
         11    1    4    4    0    0 -0.76867185232E-01 -0.44775142122E-01 -0.35731846697E-01  0.95866592236E-01  0.51100000000E-03 0. -1.
</event>
<event>
 8    1  0.1232188E+005  0.1043930E+01  0.7957747E-01            NaN
         13   -1    0    0    0    0  0.00000000000E+00  0.00000000000E+00  0.74505805969E-08  0.10566000000E+00  0.10566000000E+00 0. -1.
     999900   -1    0    0    0    0 -0.00000000000E+00 -0.00000000000E+00 -0.74505805969E-08  0.93827000000E+00  0.93827000000E+00 0. -1.
     999902    2    1    2    0    0  0.14980309922E-02  0.13954718456E-01  0.17826006503E-01  0.10212420126E+01  0.10209899625E+01 0.  0.
     999903    2    3    3    0    0 -0.11444231612E-01 -0.96739901448E-01 -0.81110704816E-01  0.12871230785E+00  0.22323368605E-01 0.  0.
         14    1    1    2    0    0 -0.14980309922E-02 -0.13954718456E-01 -0.17826006503E-01  0.22687987392E-01  0.00000000000E+00 0.  1.
     999901    1    3    3    0    0  0.12942262605E-01  0.11069461990E+00  0.98936711319E-01  0.89252970476E+00  0.88000000000E+00 0.  1.
        -11    1    4    4    0    0  0.28428394494E-02 -0.37804721606E-01 -0.21079479485E-01  0.43380690269E-01  0.51100000000E-03 0.  1.
         11    1    4    4    0    0 -0.14287071062E-01 -0.58935179841E-01 -0.60031225331E-01  0.85331617576E-01  0.51100000000E-03 0. -1.
</event>
<event>
 8    1  0.1030163E+005  0.1043930E+01  0.7957747E-01            NaN
         13   -1    0    0    0    0  0.00000000000E+00  0.00000000000E+00  0.74505805969E-08  0.10566000000E+00  0.10566000000E+00 0. -1.
     999900   -1    0    0    0    0 -0.00000000000E+00 -0.00000000000E+00 -0.74505805969E-08  0.93827000000E+00  0.93827000000E+00 0. -1.
     999902    2    1    2    0    0 -0.31514377271E-02  0.25220688876E-01 -0.29860022146E-02  0.10183383819E+01  0.10180167627E+01 0.  0.
     999903    2    3    3    0    0 -0.12028520657E+00 -0.38712632032E-01  0.66478817313E-02  0.12822569183E+00  0.20746925468E-01 0.  0.
         14    1    1    2    0    0  0.31514377271E-02 -0.25220688876E-01  0.29860022146E-02  0.25591618088E-01  0.00000000000E+00 0. -1.
     999901    1    3    3    0    0  0.11713376884E+00  0.63933320908E-01 -0.96338839459E-02  0.89011269008E+00  0.88000000000E+00 0. -1.
        -11    1    4    4    0    0 -0.50317480382E-01 -0.26483978787E-01 -0.21881091438E-03  0.56864390999E-01  0.51100000000E-03 0.  1.
         11    1    4    4    0    0 -0.69967726184E-01 -0.12228653245E-01  0.68666926457E-02  0.71361300832E-01  0.51100000000E-03 0. -1.
</event>
<event>
 8    1  0.1030163E+005  0.1043930E+01  0.7957747E-01            NaN
         13   -1    0    0    0    0  0.00000000000E+00  0.00000000000E+00  0.74505805969E-08  0.10566000000E+00  0.10566000000E+00 0. -1.
     999900   -1    0    0    0    0 -0.00000000000E+00 -0.00000000000E+00 -0.74505805969E-08  0.93827000000E+00  0.93827000000E+00 0.  1.
     999902    2    1    2    0    0  0.38693517191E-02 -0.22700700608E-01  0.12869622210E-02  0.10208659595E+01  0.10206053877E+01 0.  0.
     999903    2    3    3    0    0  0.75254428102E-01 -0.10432860842E-01  0.10572518419E+00  0.13173510796E+00  0.20105983226E-01 0.  0.
         14    1    1    2    0    0 -0.38693517191E-02  0.22700700608E-01 -0.12869622210E-02  0.23064040465E-01  0.00000000000E+00 0.  1.
     999901    1    3    3    0    0 -0.71385076383E-01 -0.12267839766E-01 -0.10443822197E+00  0.88913085158E+00  0.88000000000E+00 0.  1.
        -11    1    4    4    0    0  0.51726940322E-01 -0.14139798545E-01  0.62279508966E-01  0.82186425984E-01  0.51100000000E-03 0. -1.
         11    1    4    4    0    0  0.23527487780E-01  0.37069377028E-02  0.43445675224E-01  0.49548681971E-01  0.51100000000E-03 0.  1.
</event>
<event>
 8    1  0.1030163E+005  0.1043930E+01  0.7957747E-01            NaN
         13   -1    0    0    0    0  0.00000000000E+00  0.00000000000E+00  0.74505805969E-08  0.10566000000E+00  0.10566000000E+00 0.  1.
     999900   -1    0    0    0    0 -0.00000000000E+00 -0.00000000000E+00 -0.74505805969E-08  0.93827000000E+00  0.93827000000E+00 0. -1.
     999902    2    1    2    0    0  0.16329669849E-01  0.13500223759E-01  0.81561910308E-02  0.10212267489E+01  0.10209743557E+01 0.  0.
     999903    2    3    3    0    0 -0.11506274735E+00 -0.19547875651E-01 -0.50999299455E-01  0.12889524310E+00  0.19786355830E-01 0.  0.
         14    1    1    2    0    0 -0.16329669849E-01 -0.13500223759E-01 -0.81561910308E-02  0.22703251112E-01  0.00000000000E+00 0. -1.
     999901    1    3    3    0    0  0.13139241720E+00  0.33048099410E-01  0.59155490486E-01  0.89233150579E+00  0.88000000000E+00 0. -1.
        -11    1    4    4    0    0 -0.70384411633E-01 -0.48994022608E-02 -0.23209245053E-01  0.74275835373E-01  0.51100000000E-03 0. -1.
         11    1    4    4    0    0 -0.44678335721E-01 -0.14648473390E-01 -0.27790054402E-01  0.54619407724E-01  0.51100000000E-03 0.  1.
</event>
<event>
 8    1  0.1030163E+005  0.1043930E+01  0.7957747E-01            NaN
         13   -1    0    0    0    0  0.00000000000E+00  0.00000000000E+00  0.74505805969E-08  0.10566000000E+00  0.10566000000E+00 0.  1.
     999900   -1    0    0    0    0 -0.00000000000E+00 -0.00000000000E+00 -0.74505805969E-08  0.93827000000E+00  0.93827000000E+00 0.  1.
     999902    2    1    2    0    0 -0.37094888631E-02  0.18328141989E-01 -0.14686174284E-01  0.10201525987E+01  0.10198754629E+01 0.  0.
     999903    2    3    3    0    0  0.59892369760E-01  0.91493647431E-01  0.69211111124E-01  0.13086235246E+00  0.19406027716E-01 0.  0.
         14    1    1    2    0    0  0.37094888631E-02 -0.18328141989E-01  0.14686174284E-01  0.23777401277E-01  0.00000000000E+00 0.  1.
     999901    1    3    3    0    0 -0.63601858623E-01 -0.73165505442E-01 -0.83897285408E-01  0.88929024627E+00  0.88000000000E+00 0.  1.
        -11    1    4    4    0    0  0.91300475749E-02  0.17127949987E-01  0.21472366131E-01  0.28949059877E-01  0.51100000000E-03 0.  1.
         11    1    4    4    0    0  0.50762322185E-01  0.74365697443E-01  0.47738744993E-01  0.10191329258E+00  0.51100000000E-03 0. -1.
</event>
<event>
 8    1  0.1030163E+005  0.1043930E+01  0.7957747E-01            NaN
         13   -1    0    0    0    0  0.00000000000E+00  0.00000000000E+00  0.74505805969E-08  0.10566000000E+00  0.10566000000E+00 0.  1.
     999900   -1    0    0    0    0 -0.00000000000E+00 -0.00000000000E+00 -0.74505805969E-08  0.93827000000E+00  0.93827000000E+00 0.  1.
     999902    2    1    2    0    0  0.18799601485E-01 -0.87576793779E-02 -0.11556082963E-01  0.10201883695E+01  0.10199120768E+01 0.  0.
     999903    2    3    3    0    0 -0.97396427979E-01  0.78264940642E-01  0.18285511538E-01  0.12779553315E+00  0.19643656574E-01 0.  0.
         14    1    1    2    0    0 -0.18799601485E-01  0.87576793779E-02  0.11556082963E-01  0.23741630473E-01  0.00000000000E+00 0.  1.
     999901    1    3    3    0    0  0.11619602946E+00 -0.87022620020E-01 -0.29841594502E-01  0.89239283638E+00  0.88000000000E+00 0.  1.
        -11    1    4    4    0    0 -0.91605111617E-01  0.71693030226E-01  0.11877726871E-01  0.11693044332E+00  0.51100000000E-03 0.  1.
         11    1    4    4    0    0 -0.57913163620E-02  0.65719104157E-02  0.64077846675E-02  0.10865089832E-01  0.51100000000E-03 0. -1.
</event>
<event>
 8    1  0.1030163E+005  0.1043930E+01  0.7957747E-01            NaN
         13   -1    0    0    0    0  0.00000000000E+00  0.00000000000E+00  0.74505805969E-08  0.10566000000E+00  0.10566000000E+00 0. -1.
     999900   -1    0    0    0    0 -0.00000000000E+00 -0.00000000000E+00 -0.74505805969E-08  0.93827000000E+00  0.93827000000E+00 0.  1.
     999902    2    1    2    0    0 -0.76867783732E-02  0.22353558556E-01 -0.63987769083E-03  0.10202830639E+01  0.10200089965E+01 0.  0.
     999903    2    3    3    0    0 -0.61042813539E-01 -0.40750151089E-02 -0.11425575629E+00  0.13098339348E+00  0.18958921116E-01 0.  0.
         14    1    1    2    0    0  0.76867783732E-02 -0.22353558556E-01  0.63987769083E-03  0.23646936067E-01  0.00000000000E+00 0.  1.
     999901    1    3    3    0    0  0.53356035166E-01  0.26428573665E-01  0.11361587860E+00  0.88929967045E+00  0.88000000000E+00 0.  1.
        -11    1    4    4    0    0 -0.55459565061E-01 -0.75722344730E-02 -0.91283020241E-01  0.10707919031E+00  0.51100000000E-03 0. -1.
         11    1    4    4    0    0 -0.55832484787E-02  0.34972193641E-02 -0.22972736048E-01  0.23904203174E-01  0.51100000000E-03 0.  1.
</event>
<event>
 8    1  0.1030163E+005  0.1043930E+01  0.7957747E-01            NaN
         13   -1    0    0    0    0  0.00000000000E+00  0.00000000000E+00  0.74505805969E-08  0.10566000000E+00  0.10566000000E+00 0. -1.
     999900   -1    0    0    0    0 -0.00000000000E+00 -0.00000000000E+00 -0.74505805969E-08  0.93827000000E+00  0.93827000000E+00 0.  1.
     999902    2    1    2    0    0  0.50249443336E-02  0.18210194280E-01 -0.85916740378E-02  0.10231772145E+01  0.10229667317E+01 0.  0.
     999903    2    3    3    0    0 -0.90535111971E-01 -0.81643853399E-01  0.43301013424E-01  0.13087939083E+00  0.19801815147E-01 0.  0.
         14    1    1    2    0    0 -0.50249443336E-02 -0.18210194280E-01  0.85916740378E-02  0.20752785453E-01  0.00000000000E+00 0. -1.
     999901    1    3    3    0    0  0.95560056305E-01  0.99854047678E-01 -0.51892687462E-01  0.89229782372E+00  0.88000000000E+00 0.  1.
        -11    1    4    4    0    0 -0.66211365053E-01 -0.68686399303E-01  0.28383460202E-01  0.99537170170E-01  0.51100000000E-03 0.  1.
         11    1    4    4    0    0 -0.24323746918E-01 -0.12957454096E-01  0.14917553222E-01  0.31342220660E-01  0.51100000000E-03 0. -1.
</event>
<event>
 8    1  0.1030163E+005  0.1043930E+01  0.7957747E-01            NaN
         13   -1    0    0    0    0  0.00000000000E+00  0.00000000000E+00  0.74505805969E-08  0.10566000000E+00  0.10566000000E+00 0.  1.
     999900   -1    0    0    0    0 -0.00000000000E+00 -0.00000000000E+00 -0.74505805969E-08  0.93827000000E+00  0.93827000000E+00 0. -1.
     999902    2    1    2    0    0  0.10077286876E-01  0.64399788206E-02  0.19895500709E-01  0.10207167282E+01  0.10204527345E+01 0.  0.
     999903    2    3    3    0    0 -0.13105449426E-01 -0.12800060579E+00 -0.22596474831E-02  0.12992912131E+00  0.17904264006E-01 0.  0.
         14    1    1    2    0    0 -0.10077286876E-01 -0.64399788206E-02 -0.19895500709E-01  0.23213271774E-01  0.00000000000E+00 0. -1.
     999901    1    3    3    0    0  0.23182736302E-01  0.13444058461E+00  0.22155148192E-01  0.89078760692E+00  0.88000000000E+00 0.  1.
        -11    1    4    4    0    0 -0.16664634630E-01 -0.11025641194E+00  0.10995773048E-02  0.11151527524E+00  0.51100000000E-03 0.  1.
         11    1    4    4    0    0  0.35591852038E-02 -0.17744193852E-01 -0.33592247879E-02  0.18413846066E-01  0.51100000000E-03 0. -1.
</event>
<event>
 8    1  0.1030163E+005  0.1043930E+01  0.7957747E-01            NaN
         13   -1    0    0    0    0  0.00000000000E+00  0.00000000000E+00  0.74505805969E-08  0.10566000000E+00  0.10566000000E+00 0. -1.
     999900   -1    0    0    0    0 -0.00000000000E+00 -0.00000000000E+00 -0.74505805969E-08  0.93827000000E+00  0.93827000000E+00 0.  1.
     999902    2    1    2    0    0  0.23554069350E-02  0.86391249736E-02 -0.61256531569E-02  0.10330807581E+01  0.10330237881E+01 0.  0.
     999903    2    3    3    0    0 -0.63353110009E-01 -0.42572318251E-01 -0.11819815373E+00  0.14206983425E+00  0.19672707774E-01 0.  0.
         14    1    1    2    0    0 -0.23554069350E-02 -0.86391249736E-02  0.61256531569E-02  0.10849241851E-01  0.00000000000E+00 0. -1.
     999901    1    3    3    0    0  0.65708516944E-01  0.51211443224E-01  0.11207250057E+00  0.89101092390E+00  0.88000000000E+00 0. -1.
        -11    1    4    4    0    0 -0.53812195316E-01 -0.33628536144E-01 -0.10881363643E+00  0.12596546909E+00  0.51100000000E-03 0.  1.
         11    1    4    4    0    0 -0.95409146926E-02 -0.89437821066E-02 -0.93845172986E-02  0.16104365168E-01  0.51100000000E-03 0. -1.
</event>
<event>
 8    1  0.1030163E+005  0.1043930E+01  0.7957747E-01            NaN
         13   -1    0    0    0    0  0.00000000000E+00  0.00000000000E+00  0.74505805969E-08  0.10566000000E+00  0.10566000000E+00 0.  1.
     999900   -1    0    0    0    0 -0.00000000000E+00 -0.00000000000E+00 -0.74505805969E-08  0.93827000000E+00  0.93827000000E+00 0. -1.
     999902    2    1    2    0    0  0.10229346260E-01  0.17700596981E-01  0.11774210664E-01  0.10203379951E+01  0.10200652144E+01 0.  0.
     999903    2    3    3    0    0  0.10535127965E+00 -0.70041137220E-01 -0.23025477120E-01  0.13019316846E+00  0.20382234638E-01 0.  0.
         14    1    1    2    0    0 -0.10229346260E-01 -0.17700596981E-01 -0.11774210664E-01  0.23592004899E-01  0.00000000000E+00 0. -1.
     999901    1    3    3    0    0 -0.95121933392E-01  0.87741734201E-01  0.34799687784E-01  0.89014482664E+00  0.88000000000E+00 0.  1.
        -11    1    4    4    0    0  0.69750699734E-01 -0.34584011996E-01 -0.15526698887E-01  0.79388623230E-01  0.51100000000E-03 0. -1.
         11    1    4    4    0    0  0.35600579918E-01 -0.35457125224E-01 -0.74987782324E-02  0.50804545226E-01  0.51100000000E-03 0.  1.
</event>
<event>
 8    1  0.1030163E+005  0.1043930E+01  0.7957747E-01            NaN
         13   -1    0    0    0    0  0.00000000000E+00  0.00000000000E+00  0.74505805969E-08  0.10566000000E+00  0.10566000000E+00 0.  1.
     999900   -1    0    0    0    0 -0.00000000000E+00 -0.00000000000E+00 -0.74505805969E-08  0.93827000000E+00  0.93827000000E+00 0. -1.
     999902    2    1    2    0    0 -0.11490654252E-01  0.17947931957E-01  0.99073809246E-02  0.10204285193E+01  0.10201578522E+01 0.  0.
     999903    2    3    3    0    0 -0.28767025155E-01  0.11351651864E+00  0.61165826253E-01  0.13360313857E+00  0.19874571559E-01 0.  0.
         14    1    1    2    0    0  0.11490654252E-01 -0.17947931957E-01 -0.99073809246E-02  0.23501480665E-01  0.00000000000E+00 0. -1.
     999901    1    3    3    0    0  0.17276370903E-01 -0.95568586681E-01 -0.51258445328E-01  0.88682538077E+00  0.88000000000E+00 0. -1.
        -11    1    4    4    0    0 -0.81616480977E-02  0.16427927670E-01  0.16825129770E-01  0.24896494130E-01  0.51100000000E-03 0.  1.
         11    1    4    4    0    0 -0.20605377058E-01  0.97088590968E-01  0.44340696483E-01  0.10870664444E+00  0.51100000000E-03 0. -1.
</event>
<event>
 8    1  0.1030163E+005  0.1043930E+01  0.7957747E-01            NaN
         13   -1    0    0    0    0  0.00000000000E+00  0.00000000000E+00  0.74505805969E-08  0.10566000000E+00  0.10566000000E+00 0.  1.
     999900   -1    0    0    0    0 -0.00000000000E+00 -0.00000000000E+00 -0.74505805969E-08  0.93827000000E+00  0.93827000000E+00 0.  1.
     999902    2    1    2    0    0  0.50894915136E-02 -0.13720666993E-01  0.19241006533E-01  0.10197561307E+01  0.10194695631E+01 0.  0.
     999903    2    3    3    0    0  0.11883281114E+00 -0.45636508672E-01  0.28403618361E-01  0.13181462517E+00  0.19089314954E-01 0.  0.
         14    1    1    2    0    0 -0.50894915136E-02  0.13720666993E-01 -0.19241006533E-01  0.24173869343E-01  0.00000000000E+00 0. -1.
     999901    1    3    3    0    0 -0.11374331963E+00  0.31915841679E-01 -0.91626118281E-02  0.88794150549E+00  0.88000000000E+00 0. -1.
        -11    1    4    4    0    0  0.10130198363E+00 -0.42240096183E-01  0.30266638294E-01  0.11385362589E+00  0.51100000000E-03 0. -1.
         11    1    4    4    0    0  0.17530827507E-01 -0.33964124895E-02 -0.18630199332E-02  0.17960999280E-01  0.51100000000E-03 0.  1.
</event>
<event>
 8    1  0.1030163E+005  0.1043930E+01  0.7957747E-01            NaN
         13   -1    0    0    0    0  0.00000000000E+00  0.00000000000E+00  0.74505805969E-08  0.10566000000E+00  0.10566000000E+00 0. -1.
     999900   -1    0    0    0    0 -0.00000000000E+00 -0.00000000000E+00 -0.74505805969E-08  0.93827000000E+00  0.93827000000E+00 0.  1.
     999902    2    1    2    0    0  0.20213685487E-01  0.21752568054E-03 -0.94347710195E-02  0.10216218109E+01  0.10213782204E+01 0.  0.
     999903    2    3    3    0    0 -0.58973470451E-01 -0.95124357927E-01  0.63001876202E-01  0.12998974084E+00  0.20039526695E-01 0.  0.
         14    1    1    2    0    0 -0.20213685487E-01 -0.21752568054E-03  0.94347710195E-02  0.22308189137E-01  0.00000000000E+00 0.  1.
     999901    1    3    3    0    0  0.79187155938E-01  0.95341883608E-01 -0.72436647221E-01  0.89163207002E+00  0.88000000000E+00 0.  1.
        -11    1    4    4    0    0 -0.27303976090E-01 -0.51203427444E-01  0.21973352002E-01  0.62051490002E-01  0.51100000000E-03 0. -1.
         11    1    4    4    0    0 -0.31669494362E-01 -0.43920930484E-01  0.41028524200E-01  0.67938250836E-01  0.51100000000E-03 0.  1.
</event>
<event>
 8    1  0.1030163E+005  0.1043930E+01  0.7957747E-01            NaN
         13   -1    0    0    0    0  0.00000000000E+00  0.00000000000E+00  0.74505805969E-08  0.10566000000E+00  0.10566000000E+00 0. -1.
     999900   -1    0    0    0    0 -0.00000000000E+00 -0.00000000000E+00 -0.74505805969E-08  0.93827000000E+00  0.93827000000E+00 0. -1.
     999902    2    1    2    0    0 -0.10740705672E-01  0.18838501522E-01  0.53469552170E-02  0.10215952328E+01  0.10213510551E+01 0.  0.
     999903    2    3    3    0    0 -0.19695158131E-01 -0.56498314981E-01 -0.11405832458E+00  0.13029649552E+00  0.19695595703E-01 0.  0.
         14    1    1    2    0    0  0.10740705672E-01 -0.18838501522E-01 -0.53469552170E-02  0.22334767248E-01  0.00000000000E+00 0.  1.
     999901    1    3    3    0    0  0.89544524596E-02  0.75336816503E-01  0.11940527980E+00  0.89129873723E+00  0.88000000000E+00 0.  1.
        -11    1    4    4    0    0 -0.13630186230E-01 -0.21697403533E-01 -0.64753743110E-01  0.69640991266E-01  0.51100000000E-03 0.  1.
         11    1    4    4    0    0 -0.60649719009E-02 -0.34800911448E-01 -0.49304581472E-01  0.60655504259E-01  0.51100000000E-03 0. -1.
</event>
<event>
 8    1  0.1030163E+005  0.1043930E+01  0.7957747E-01            NaN
         13   -1    0    0    0    0  0.00000000000E+00  0.00000000000E+00  0.74505805969E-08  0.10566000000E+00  0.10566000000E+00 0.  1.
     999900   -1    0    0    0    0 -0.00000000000E+00 -0.00000000000E+00 -0.74505805969E-08  0.93827000000E+00  0.93827000000E+00 0. -1.
     999902    2    1    2    0    0  0.11297605227E-01  0.17998932622E-01 -0.11047848611E-01  0.10199789579E+01  0.10196977111E+01 0.  0.
     999903    2    3    3    0    0  0.86385542437E-01  0.69972174231E-02 -0.97824983726E-01  0.13246022162E+00  0.21553651103E-01 0.  0.
         14    1    1    2    0    0 -0.11297605227E-01 -0.17998932622E-01  0.11047848611E-01  0.23951042113E-01  0.00000000000E+00 0.  1.
     999901    1    3    3    0    0 -0.75087937210E-01  0.11001715199E-01  0.86777135115E-01  0.88751873627E+00  0.88000000000E+00 0. -1.
        -11    1    4    4    0    0  0.39777409448E-01 -0.30900574203E-02 -0.31849986670E-01  0.51053633849E-01  0.51100000000E-03 0. -1.
         11    1    4    4    0    0  0.46608132989E-01  0.10087274843E-01 -0.65974997056E-01  0.81406587768E-01  0.51100000000E-03 0.  1.
</event>
<event>
 8    1  0.1030163E+005  0.1043930E+01  0.7957747E-01            NaN
         13   -1    0    0    0    0  0.00000000000E+00  0.00000000000E+00  0.74505805969E-08  0.10566000000E+00  0.10566000000E+00 0.  1.
     999900   -1    0    0    0    0 -0.00000000000E+00 -0.00000000000E+00 -0.74505805969E-08  0.93827000000E+00  0.93827000000E+00 0. -1.
     999902    2    1    2    0    0  0.55457202631E-02  0.18993210173E-01 -0.10847969366E-01  0.10213650829E+01  0.10211157902E+01 0.  0.
     999903    2    3    3    0    0 -0.21298796367E-01 -0.59650628090E-01  0.11037778529E+00  0.12917610907E+00  0.22166991458E-01 0.  0.
         14    1    1    2    0    0 -0.55457202631E-02 -0.18993210173E-01  0.10847969366E-01  0.22564917134E-01  0.00000000000E+00 0.  1.
     999901    1    3    3    0    0  0.26844516631E-01  0.78643838263E-01 -0.12122575466E+00  0.89218897380E+00  0.88000000000E+00 0. -1.
        -11    1    4    4    0    0  0.37427366429E-02 -0.59761678765E-02  0.19081998369E-01  0.20349605471E-01  0.51100000000E-03 0. -1.
         11    1    4    4    0    0 -0.25041533010E-01 -0.53674460213E-01  0.91295786923E-01  0.10882650360E+00  0.51100000000E-03 0.  1.
</event>
<event>
 8    1  0.1030163E+005  0.1043930E+01  0.7957747E-01            NaN
         13   -1    0    0    0    0  0.00000000000E+00  0.00000000000E+00  0.74505805969E-08  0.10566000000E+00  0.10566000000E+00 0. -1.
     999900   -1    0    0    0    0 -0.00000000000E+00 -0.00000000000E+00 -0.74505805969E-08  0.93827000000E+00  0.93827000000E+00 0.  1.
     999902    2    1    2    0    0  0.77905031647E-02 -0.22799967330E-01  0.89848679730E-03  0.10198190538E+01  0.10195339939E+01 0.  0.
     999903    2    3    3    0    0 -0.88401140090E-01  0.89625208071E-01 -0.20439930503E-02  0.12746211258E+00  0.19873921209E-01 0.  0.
         14    1    1    2    0    0 -0.77905031647E-02  0.22799967330E-01 -0.89848679730E-03  0.24110946235E-01  0.00000000000E+00 0. -1.
     999901    1    3    3    0    0  0.96191643255E-01 -0.11242517540E+00  0.29424798476E-02  0.89235694119E+00  0.88000000000E+00 0. -1.
        -11    1    4    4    0    0 -0.40634274024E-01  0.53601335811E-01  0.36375084730E-02  0.67362749462E-01  0.51100000000E-03 0.  1.
         11    1    4    4    0    0 -0.47766866066E-01  0.36023872261E-01 -0.56815015233E-02  0.60099363117E-01  0.51100000000E-03 0. -1.
</event>
<event>
 8    1  0.1030163E+005  0.1043930E+01  0.7957747E-01            NaN
         13   -1    0    0    0    0  0.00000000000E+00  0.00000000000E+00  0.74505805969E-08  0.10566000000E+00  0.10566000000E+00 0.  1.
     999900   -1    0    0    0    0 -0.00000000000E+00 -0.00000000000E+00 -0.74505805969E-08  0.93827000000E+00  0.93827000000E+00 0. -1.
     999902    2    1    2    0    0 -0.17781378250E-01 -0.11106434443E-01 -0.11390455990E-01  0.10200705619E+01  0.10197914877E+01 0.  0.
     999903    2    3    3    0    0  0.10283430276E-01  0.92504135894E-01 -0.88860706712E-01  0.13016920585E+00  0.19622254167E-01 0.  0.
         14    1    1    2    0    0  0.17781378250E-01  0.11106434443E-01  0.11390455990E-01  0.23859438094E-01  0.00000000000E+00 0. -1.
     999901    1    3    3    0    0 -0.28064808526E-01 -0.10361057034E+00  0.77470250722E-01  0.88990135606E+00  0.88000000000E+00 0.  1.
        -11    1    4    4    0    0  0.14875430869E-01  0.82093405695E-01 -0.74613244317E-01  0.11192856226E+00  0.51100000000E-03 0. -1.
         11    1    4    4    0    0 -0.45920005928E-02  0.10410730199E-01 -0.14247462394E-01  0.18240643585E-01  0.51100000000E-03 0.  1.
</event>
<event>
 8    1  0.1030163E+005  0.1043930E+01  0.7957747E-01            NaN
         13   -1    0    0    0    0  0.00000000000E+00  0.00000000000E+00  0.74505805969E-08  0.10566000000E+00  0.10566000000E+00 0. -1.
     999900   -1    0    0    0    0 -0.00000000000E+00 -0.00000000000E+00 -0.74505805969E-08  0.93827000000E+00  0.93827000000E+00 0.  1.
     999902    2    1    2    0    0  0.14064095882E-01  0.18723888391E-01 -0.53457643866E-02  0.10199100086E+01  0.10196271209E+01 0.  0.
     999903    2    3    3    0    0 -0.68593657804E-01  0.90745964153E-01 -0.62414698660E-01  0.13127265462E+00  0.19924741964E-01 0.  0.
         14    1    1    2    0    0 -0.14064095882E-01 -0.18723888391E-01  0.53457643866E-02  0.24019991389E-01  0.00000000000E+00 0. -1.
     999901    1    3    3    0    0  0.82657753686E-01 -0.72022075762E-01  0.57068934273E-01  0.88863735399E+00  0.88000000000E+00 0. -1.
        -11    1    4    4    0    0 -0.37132914897E-01  0.45371283992E-01 -0.43124712414E-01  0.72783299744E-01  0.51100000000E-03 0.  1.
         11    1    4    4    0    0 -0.31460742907E-01  0.45374680160E-01 -0.19289986246E-01  0.58489354880E-01  0.51100000000E-03 0. -1.
</event>
<event>
 8    1  0.1030163E+005  0.1043930E+01  0.7957747E-01            NaN
         13   -1    0    0    0    0  0.00000000000E+00  0.00000000000E+00  0.74505805969E-08  0.10566000000E+00  0.10566000000E+00 0. -1.
     999900   -1    0    0    0    0 -0.00000000000E+00 -0.00000000000E+00 -0.74505805969E-08  0.93827000000E+00  0.93827000000E+00 0. -1.
     999902    2    1    2    0    0  0.94898282511E-02 -0.11642857130E-01  0.18644582177E-01  0.10199877067E+01  0.10197066679E+01 0.  0.
     999903    2    3    3    0    0  0.21137478823E-01  0.12466741955E+00  0.73129670534E-02  0.12934492492E+00  0.26227306520E-01 0.  0.
         14    1    1    2    0    0 -0.94898282511E-02  0.11642857130E-01 -0.18644582177E-01  0.23942293268E-01  0.00000000000E+00 0.  1.
     999901    1    3    3    0    0 -0.11647650572E-01 -0.13631027668E+00  0.11331615123E-01  0.89064278181E+00  0.88000000000E+00 0.  1.
        -11    1    4    4    0    0  0.24124202993E-01  0.84212720675E-01 -0.23845720670E-02  0.87633936340E-01  0.51100000000E-03 0. -1.
         11    1    4    4    0    0 -0.29867241702E-02  0.40454698875E-01  0.96975391204E-02  0.41710988580E-01  0.51100000000E-03 0.  1.
</event>
<event>
 8    1  0.1030163E+005  0.1043930E+01  0.7957747E-01            NaN
         13   -1    0    0    0    0  0.00000000000E+00  0.00000000000E+00  0.74505805969E-08  0.10566000000E+00  0.10566000000E+00 0. -1.
     999900   -1    0    0    0    0 -0.00000000000E+00 -0.00000000000E+00 -0.74505805969E-08  0.93827000000E+00  0.93827000000E+00 0. -1.
     999902    2    1    2    0    0  0.38336015595E-02  0.16082515424E-01  0.17209512711E-01  0.10200655677E+01  0.10197863753E+01 0.  0.
     999903    2    3    3    0    0  0.62522224198E-01  0.24909084127E-01  0.11149272261E+00  0.13304156211E+00  0.27201820985E-01 0.  0.
         14    1    1    2    0    0 -0.38336015595E-02 -0.16082515424E-01 -0.17209512711E-01  0.23864432343E-01  0.00000000000E+00 0.  1.
     999901    1    3    3    0    0 -0.58688622638E-01 -0.88265687025E-02 -0.94283209895E-01  0.88702400554E+00  0.88000000000E+00 0. -1.
        -11    1    4    4    0    0  0.23418721616E-01  0.60696217364E-03  0.57448855252E-01  0.62043831409E-01  0.51100000000E-03 0. -1.
         11    1    4    4    0    0  0.39103502582E-01  0.24302121953E-01  0.54043867354E-01  0.70997730705E-01  0.51100000000E-03 0.  1.
</event>
<event>
 8    1  0.1030163E+005  0.1043930E+01  0.7957747E-01            NaN
         13   -1    0    0    0    0  0.00000000000E+00  0.00000000000E+00  0.74505805969E-08  0.10566000000E+00  0.10566000000E+00 0.  1.
     999900   -1    0    0    0    0 -0.00000000000E+00 -0.00000000000E+00 -0.74505805969E-08  0.93827000000E+00  0.93827000000E+00 0.  1.
     999902    2    1    2    0    0  0.20168267884E-01  0.17337870610E-03  0.12136624108E-01  0.10203909530E+01  0.10201194098E+01 0.  0.
     999903    2    3    3    0    0 -0.28589283981E-01 -0.70920745215E-01 -0.10224876520E+00  0.12881050759E+00  0.17036361761E-01 0.  0.
         14    1    1    2    0    0 -0.20168267884E-01 -0.17337870610E-03 -0.12136624108E-01  0.23539047014E-01  0.00000000000E+00 0. -1.
     999901    1    3    3    0    0  0.48757551865E-01  0.71094123921E-01  0.11438538930E+00  0.89158044539E+00  0.88000000000E+00 0. -1.
        -11    1    4    4    0    0 -0.13465057391E-01 -0.47665047224E-01 -0.54996563275E-01  0.74014509324E-01  0.51100000000E-03 0.  1.
         11    1    4    4    0    0 -0.15124226590E-01 -0.23255697991E-01 -0.47252201920E-01  0.54795998269E-01  0.51100000000E-03 0. -1.
</event>
<event>
 8    1  0.1030163E+005  0.1043930E+01  0.7957747E-01            NaN
         13   -1    0    0    0    0  0.00000000000E+00  0.00000000000E+00  0.74505805969E-08  0.10566000000E+00  0.10566000000E+00 0.  1.
     999900   -1    0    0    0    0 -0.00000000000E+00 -0.00000000000E+00 -0.74505805969E-08  0.93827000000E+00  0.93827000000E+00 0.  1.
     999902    2    1    2    0    0 -0.18282071650E-01 -0.78553229911E-02 -0.10284606759E-01  0.10215310407E+01  0.10212854418E+01 0.  0.
     999903    2    3    3    0    0 -0.78081187116E-01 -0.27049521359E-01  0.10153738338E+00  0.13223440346E+00  0.18648025304E-01 0.  0.
         14    1    1    2    0    0  0.18282071650E-01  0.78553229911E-02  0.10284606759E-01  0.22398959335E-01  0.00000000000E+00 0.  1.
     999901    1    3    3    0    0  0.59799115466E-01  0.19194198368E-01 -0.11182199014E+00  0.88929663720E+00  0.88000000000E+00 0.  1.
        -11    1    4    4    0    0 -0.41806919761E-01 -0.20369129363E-01  0.67979063745E-01  0.82365855787E-01  0.51100000000E-03 0.  1.
         11    1    4    4    0    0 -0.36274267355E-01 -0.66803919969E-02  0.33558319636E-01  0.49868547675E-01  0.51100000000E-03 0. -1.
</event>
<event>
 8    1  0.1030163E+005  0.1043930E+01  0.7957747E-01            NaN
         13   -1    0    0    0    0  0.00000000000E+00  0.00000000000E+00  0.74505805969E-08  0.10566000000E+00  0.10566000000E+00 0.  1.
     999900   -1    0    0    0    0 -0.00000000000E+00 -0.00000000000E+00 -0.74505805969E-08  0.93827000000E+00  0.93827000000E+00 0. -1.
     999902    2    1    2    0    0 -0.30097905548E-02  0.94437275118E-02 -0.22159298210E-01  0.10196549650E+01  0.10193659648E+01 0.  0.
     999903    2    3    3    0    0  0.75089243652E-01 -0.61078944189E-01 -0.86226416003E-01  0.13107322875E+00  0.19394961766E-01 0.  0.
         14    1    1    2    0    0  0.30097905548E-02 -0.94437275118E-02  0.22159298210E-01  0.24275035029E-01  0.00000000000E+00 0.  1.
     999901    1    3    3    0    0 -0.78099034207E-01  0.70522671701E-01  0.64067117793E-01  0.88858173622E+00  0.88000000000E+00 0. -1.
        -11    1    4    4    0    0  0.10890003085E-01 -0.81186064342E-02 -0.22354285657E-01  0.26162552357E-01  0.51100000000E-03 0. -1.
         11    1    4    4    0    0  0.64199240568E-01 -0.52960337755E-01 -0.63872130346E-01  0.10491067639E+00  0.51100000000E-03 0.  1.
</event>
<event>
 8    1  0.1030163E+005  0.1043930E+01  0.7957747E-01            NaN
         13   -1    0    0    0    0  0.00000000000E+00  0.00000000000E+00  0.74505805969E-08  0.10566000000E+00  0.10566000000E+00 0.  1.
     999900   -1    0    0    0    0 -0.00000000000E+00 -0.00000000000E+00 -0.74505805969E-08  0.93827000000E+00  0.93827000000E+00 0.  1.
     999902    2    1    2    0    0  0.14938449511E-01  0.50653941971E-03 -0.17577833510E-01  0.10208563335E+01  0.10205955416E+01 0.  0.
     999903    2    3    3    0    0 -0.12043167131E+00  0.41929815928E-01 -0.75464056618E-03  0.12938340777E+00  0.21854056959E-01 0.  0.
         14    1    1    2    0    0 -0.14938449511E-01 -0.50653941971E-03  0.17577833510E-01  0.23073666525E-01  0.00000000000E+00 0.  1.
     999901    1    3    3    0    0  0.13537012082E+00 -0.41423276508E-01 -0.16823192944E-01  0.89147292571E+00  0.88000000000E+00 0.  1.
        -11    1    4    4    0    0 -0.11095764869E+00  0.32078160841E-01  0.15502548518E-02  0.11551308418E+00  0.51100000000E-03 0. -1.
         11    1    4    4    0    0 -0.94740226136E-02  0.98516550866E-02 -0.23048954180E-02  0.13870323584E-01  0.51100000000E-03 0.  1.
</event>
<event>
 8    1  0.1030163E+005  0.1043930E+01  0.7957747E-01            NaN
         13   -1    0    0    0    0  0.00000000000E+00  0.00000000000E+00  0.74505805969E-08  0.10566000000E+00  0.10566000000E+00 0. -1.
     999900   -1    0    0    0    0 -0.00000000000E+00 -0.00000000000E+00 -0.74505805969E-08  0.93827000000E+00  0.93827000000E+00 0. -1.
     999902    2    1    2    0    0 -0.70783917861E-02 -0.18160990839E-01 -0.12581645300E-01  0.10207303660E+01  0.10204666859E+01 0.  0.
     999903    2    3    3    0    0  0.38181084222E-01  0.12086515702E+00 -0.99589279255E-02  0.12866334577E+00  0.19720419025E-01 0.  0.
         14    1    1    2    0    0  0.70783917861E-02  0.18160990839E-01  0.12581645300E-01  0.23199633984E-01  0.00000000000E+00 0.  1.
     999901    1    3    3    0    0 -0.45259476009E-01 -0.13902614786E+00 -0.26227173746E-02  0.89206702024E+00  0.88000000000E+00 0.  1.
        -11    1    4    4    0    0  0.17706601045E-01  0.40525917593E-01  0.46693196466E-02  0.44474007963E-01  0.51100000000E-03 0. -1.
         11    1    4    4    0    0  0.20474483178E-01  0.80339239426E-01 -0.14628247572E-01  0.84189337811E-01  0.51100000000E-03 0.  1.
</event>
<event>
 8    1  0.1030163E+005  0.1043930E+01  0.7957747E-01            NaN
         13   -1    0    0    0    0  0.00000000000E+00  0.00000000000E+00  0.74505805969E-08  0.10566000000E+00  0.10566000000E+00 0.  1.
     999900   -1    0    0    0    0 -0.00000000000E+00 -0.00000000000E+00 -0.74505805969E-08  0.93827000000E+00  0.93827000000E+00 0. -1.
     999902    2    1    2    0    0 -0.98483577695E-02  0.21214078483E-01 -0.58092906200E-02  0.10198307234E+01  0.10195459427E+01 0.  0.
     999903    2    3    3    0    0 -0.42557025098E-01 -0.12065995990E-01 -0.12153049790E+00  0.13102882301E+00  0.21028597062E-01 0.  0.
         14    1    1    2    0    0  0.98483577695E-02 -0.21214078483E-01  0.58092906200E-02  0.24099276631E-01  0.00000000000E+00 0.  1.
     999901    1    3    3    0    0  0.32708667328E-01  0.33280074474E-01  0.11572120728E+00  0.88880190036E+00  0.88000000000E+00 0.  1.
        -11    1    4    4    0    0 -0.30023105323E-01 -0.11625685641E-01 -0.58648502557E-01  0.66906288142E-01  0.51100000000E-03 0. -1.
         11    1    4    4    0    0 -0.12533919775E-01 -0.44031034931E-03 -0.62881995341E-01  0.64122534863E-01  0.51100000000E-03 0.  1.
</event>
<event>
 8    1  0.1030163E+005  0.1043930E+01  0.7957747E-01            NaN
         13   -1    0    0    0    0  0.00000000000E+00  0.00000000000E+00  0.74505805969E-08  0.10566000000E+00  0.10566000000E+00 0.  1.
     999900   -1    0    0    0    0 -0.00000000000E+00 -0.00000000000E+00 -0.74505805969E-08  0.93827000000E+00  0.93827000000E+00 0. -1.
     999902    2    1    2    0    0  0.17960892643E-01  0.15383643102E-01  0.20494385729E-02  0.10201928911E+01  0.10199167048E+01 0.  0.
     999903    2    3    3    0    0 -0.27406077531E-01  0.30989906822E-01 -0.12172338204E+00  0.13023703346E+00  0.20823922321E-01 0.  0.
         14    1    1    2    0    0 -0.17960892643E-01 -0.15383643102E-01 -0.20494385729E-02  0.23737108882E-01  0.00000000000E+00 0.  1.
     999901    1    3    3    0    0  0.45366970174E-01 -0.15606263721E-01  0.12377282061E+00  0.88995585765E+00  0.88000000000E+00 0.  1.
        -11    1    4    4    0    0 -0.97775787224E-02  0.24105881479E-01 -0.85407670690E-01  0.89282842144E-01  0.51100000000E-03 0.  1.
         11    1    4    4    0    0 -0.17628498808E-01  0.68840253433E-02 -0.36315711346E-01  0.40954191320E-01  0.51100000000E-03 0. -1.
</event>
<event>
 8    1  0.1030163E+005  0.1043930E+01  0.7957747E-01            NaN
         13   -1    0    0    0    0  0.00000000000E+00  0.00000000000E+00  0.74505805969E-08  0.10566000000E+00  0.10566000000E+00 0. -1.
     999900   -1    0    0    0    0 -0.00000000000E+00 -0.00000000000E+00 -0.74505805969E-08  0.93827000000E+00  0.93827000000E+00 0. -1.
     999902    2    1    2    0    0  0.10466434016E-02 -0.20881011702E-01 -0.12219688022E-01  0.10197136236E+01  0.10194260352E+01 0.  0.
     999903    2    3    3    0    0  0.45883256517E-01 -0.80968157057E-01 -0.92583665383E-01  0.13287702319E+00  0.20577961768E-01 0.  0.
         14    1    1    2    0    0 -0.10466434016E-02  0.20881011702E-01  0.12219688022E-01  0.24216376431E-01  0.00000000000E+00 0. -1.
     999901    1    3    3    0    0 -0.44836613115E-01  0.60087145355E-01  0.80363977361E-01  0.88683660038E+00  0.88000000000E+00 0. -1.
        -11    1    4    4    0    0  0.72041176968E-03 -0.89198620289E-02 -0.32291690044E-02  0.95274123030E-02  0.51100000000E-03 0. -1.
         11    1    4    4    0    0  0.45162844747E-01 -0.72048295028E-01 -0.89354496378E-01  0.12334961089E+00  0.51100000000E-03 0.  1.
</event>
<event>
 8    1  0.1030163E+005  0.1043930E+01  0.7957747E-01            NaN
         13   -1    0    0    0    0  0.00000000000E+00  0.00000000000E+00  0.74505805969E-08  0.10566000000E+00  0.10566000000E+00 0.  1.
     999900   -1    0    0    0    0 -0.00000000000E+00 -0.00000000000E+00 -0.74505805969E-08  0.93827000000E+00  0.93827000000E+00 0.  1.
     999902    2    1    2    0    0 -0.21579937920E-01 -0.67688301964E-02 -0.10563751230E-01  0.10189679564E+01  0.10186621582E+01 0.  0.
     999903    2    3    3    0    0  0.10480330519E+00  0.11099734474E-01  0.66866966187E-01  0.12639441555E+00  0.19935401462E-01 0.  0.
         14    1    1    2    0    0  0.21579937920E-01  0.67688301964E-02  0.10563751230E-01  0.24962043644E-01  0.00000000000E+00 0.  1.
     999901    1    3    3    0    0 -0.12638324311E+00 -0.17868564670E-01 -0.77430717417E-01  0.89257354080E+00  0.88000000000E+00 0. -1.
        -11    1    4    4    0    0  0.30321008218E-01 -0.44263810700E-03  0.29332696265E-01  0.42192744151E-01  0.51100000000E-03 0. -1.
         11    1    4    4    0    0  0.74482296973E-01  0.11542372581E-01  0.37534269922E-01  0.84201671401E-01  0.51100000000E-03 0.  1.
</event>
<event>
 8    1  0.1030163E+005  0.1043930E+01  0.7957747E-01            NaN
         13   -1    0    0    0    0  0.00000000000E+00  0.00000000000E+00  0.74505805969E-08  0.10566000000E+00  0.10566000000E+00 0. -1.
     999900   -1    0    0    0    0 -0.00000000000E+00 -0.00000000000E+00 -0.74505805969E-08  0.93827000000E+00  0.93827000000E+00 0. -1.
     999902    2    1    2    0    0  0.90973963473E-02 -0.20738432335E-01  0.16208513855E-01  0.10160811020E+01  0.10156993870E+01 0.  0.
     999903    2    3    3    0    0 -0.79452669191E-01  0.83962833209E-01 -0.39611658106E-01  0.12371382300E+00  0.19327248659E-01 0.  0.
         14    1    1    2    0    0 -0.90973963473E-02  0.20738432335E-01 -0.16208513855E-01  0.27848897957E-01  0.00000000000E+00 0.  1.
     999901    1    3    3    0    0  0.88550065538E-01 -0.10470126554E+00  0.55820171961E-01  0.89236727905E+00  0.88000000000E+00 0.  1.
        -11    1    4    4    0    0 -0.34038235860E-01  0.44963602119E-01 -0.11408140044E-01  0.57538976322E-01  0.51100000000E-03 0.  1.
         11    1    4    4    0    0 -0.45414433332E-01  0.38999231090E-01 -0.28203518063E-01  0.66174846676E-01  0.51100000000E-03 0. -1.
</event>
<event>
 8    1  0.1030163E+005  0.1043930E+01  0.7957747E-01            NaN
         13   -1    0    0    0    0  0.00000000000E+00  0.00000000000E+00  0.74505805969E-08  0.10566000000E+00  0.10566000000E+00 0.  1.
     999900   -1    0    0    0    0 -0.00000000000E+00 -0.00000000000E+00 -0.74505805969E-08  0.93827000000E+00  0.93827000000E+00 0.  1.
     999902    2    1    2    0    0  0.26742242052E-02 -0.20573189281E-01  0.12141688451E-01  0.10198919429E+01  0.10196086244E+01 0.  0.
     999903    2    3    3    0    0  0.78914193762E-01 -0.10222457235E+00 -0.20119402902E-01  0.13224321768E+00  0.20153537628E-01 0.  0.
         14    1    1    2    0    0 -0.26742242052E-02  0.20573189281E-01 -0.12141688451E-01  0.24038057133E-01  0.00000000000E+00 0.  1.
     999901    1    3    3    0    0 -0.76239969557E-01  0.81651383072E-01  0.32261091352E-01  0.88764872519E+00  0.88000000000E+00 0.  1.
        -11    1    4    4    0    0  0.55282358366E-01 -0.66776897773E-01 -0.43120746243E-02  0.86799471953E-01  0.51100000000E-03 0.  1.
         11    1    4    4    0    0  0.23631835396E-01 -0.35447674579E-01 -0.15807328277E-01  0.45443745725E-01  0.51100000000E-03 0. -1.
</event>
<event>
 8    1  0.1030163E+005  0.1043930E+01  0.7957747E-01            NaN
         13   -1    0    0    0    0  0.00000000000E+00  0.00000000000E+00  0.74505805969E-08  0.10566000000E+00  0.10566000000E+00 0. -1.
     999900   -1    0    0    0    0 -0.00000000000E+00 -0.00000000000E+00 -0.74505805969E-08  0.93827000000E+00  0.93827000000E+00 0.  1.
     999902    2    1    2    0    0 -0.56844998509E-03 -0.21689311161E-01  0.85404706382E-02  0.10206128605E+01  0.10203464716E+01 0.  0.
     999903    2    3    3    0    0 -0.98793550729E-02 -0.48796833211E-01  0.12160824055E+00  0.13291593517E+00  0.19983720004E-01 0.  0.
         14    1    1    2    0    0  0.56844998509E-03  0.21689311161E-01 -0.85404706382E-02  0.23317139463E-01  0.00000000000E+00 0.  1.
     999901    1    3    3    0    0  0.93109050878E-02  0.27107522050E-01 -0.11306776991E+00  0.88769692536E+00  0.88000000000E+00 0.  1.
        -11    1    4    4    0    0 -0.74290937412E-02 -0.45650644996E-01  0.11996433747E+00  0.12857245509E+00  0.51100000000E-03 0. -1.
         11    1    4    4    0    0 -0.24502613317E-02 -0.31461882154E-02  0.16439030774E-02  0.43434800804E-02  0.51100000000E-03 0.  1.
</event>
<event>
 7    1  0.1030163E+005  0.1043930E+01  0.7957747E-01            NaN
         13   -1    0    0    0    0  0.00000000000E+00  0.00000000000E+00  0.74505805969E-08  0.10566000000E+00  0.10566000000E+00 0. -1.
     999900   -1    0    0    0    0 -0.00000000000E+00 -0.00000000000E+00 -0.74505805969E-08  0.93827000000E+00  0.93827000000E+00 0.  1.
     999903    2    1    2    0    0 -0.76690647115E-01  0.47728304501E-01  0.69182392285E-01  0.11558548815E+00  0.20355718203E-01 0.  0.
         14    1    1    2    0    0 -0.39634442464E-02 -0.29960309740E-01 -0.31531980845E-01  0.43676021637E-01  0.00000000000E+00 0.  1.
     999901    1    1    2    0    0  0.80654091361E-01 -0.17767994761E-01 -0.37650411440E-01  0.88466849021E+00  0.88000000000E+00 0. -1.
        -11    1    3    3    0    0 -0.21129071733E-01  0.32410526804E-02  0.17303727536E-01  0.27506766485E-01  0.51100000000E-03 0.  1.
         11    1    3    3    0    0 -0.55561575382E-01  0.44487251820E-01  0.51878664749E-01  0.88078721667E-01  0.51100000000E-03 0. -1.
</event>
<event>
 8    1  0.1030163E+005  0.1043930E+01  0.7957747E-01            NaN
         13   -1    0    0    0    0  0.00000000000E+00  0.00000000000E+00  0.74505805969E-08  0.10566000000E+00  0.10566000000E+00 0.  1.
     999900   -1    0    0    0    0 -0.00000000000E+00 -0.00000000000E+00 -0.74505805969E-08  0.93827000000E+00  0.93827000000E+00 0.  1.
     999902    2    1    2    0    0  0.19591430165E-01  0.13283882690E-01 -0.52504492028E-03  0.10202538232E+01  0.10199790696E+01 0.  0.
     999903    2    3    3    0    0 -0.63501979365E-01 -0.70627389674E-01 -0.84107107056E-01  0.12844017819E+00  0.20053537351E-01 0.  0.
         14    1    1    2    0    0 -0.19591430165E-01 -0.13283882690E-01  0.52504492028E-03  0.23676176790E-01  0.00000000000E+00 0. -1.
     999901    1    3    3    0    0  0.83093409530E-01  0.83911272363E-01  0.83582062136E-01  0.89181364502E+00  0.88000000000E+00 0.  1.
        -11    1    4    4    0    0 -0.27115743062E-01 -0.18434754910E-01 -0.21736683486E-01  0.39342702505E-01  0.51100000000E-03 0. -1.
         11    1    4    4    0    0 -0.36386236303E-01 -0.52192634764E-01 -0.62370423570E-01  0.89097475683E-01  0.51100000000E-03 0.  1.
</event>
<event>
 8    1  0.1030163E+005  0.1043930E+01  0.7957747E-01            NaN
         13   -1    0    0    0    0  0.00000000000E+00  0.00000000000E+00  0.74505805969E-08  0.10566000000E+00  0.10566000000E+00 0.  1.
     999900   -1    0    0    0    0 -0.00000000000E+00 -0.00000000000E+00 -0.74505805969E-08  0.93827000000E+00  0.93827000000E+00 0. -1.
     999902    2    1    2    0    0  0.19012711111E-01 -0.11604901935E-01  0.62004337729E-02  0.10208085314E+01  0.10205466454E+01 0.  0.
     999903    2    3    3    0    0  0.91626283479E-01 -0.81383563368E-01 -0.48693061158E-01  0.13336552572E+00  0.19917053889E-01 0.  0.
         14    1    1    2    0    0 -0.19012711111E-01  0.11604901935E-01 -0.62004337729E-02  0.23121468632E-01  0.00000000000E+00 0.  1.
     999901    1    3    3    0    0 -0.72613572367E-01  0.69778661433E-01  0.54893494931E-01  0.88744300565E+00  0.88000000000E+00 0. -1.
        -11    1    4    4    0    0  0.10359655970E-01 -0.67884572516E-02  0.87636625208E-03  0.12427178380E-01  0.51100000000E-03 0.  1.
         11    1    4    4    0    0  0.81266627509E-01 -0.74595106117E-01 -0.49569427410E-01  0.12093834734E+00  0.51100000000E-03 0. -1.
</event>
<event>
 8    1  0.1030163E+005  0.1043930E+01  0.7957747E-01            NaN
         13   -1    0    0    0    0  0.00000000000E+00  0.00000000000E+00  0.74505805969E-08  0.10566000000E+00  0.10566000000E+00 0. -1.
     999900   -1    0    0    0    0 -0.00000000000E+00 -0.00000000000E+00 -0.74505805969E-08  0.93827000000E+00  0.93827000000E+00 0. -1.
     999902    2    1    2    0    0 -0.16008282256E-01  0.20059841051E-02  0.17295707340E-01  0.10202777154E+01  0.10200035226E+01 0.  0.
     999903    2    3    3    0    0 -0.58218968100E-01 -0.29910663070E-01  0.11449229232E+00  0.13334615635E+00  0.19713355884E-01 0.  0.
         14    1    1    2    0    0  0.16008282256E-01 -0.20059841051E-02 -0.17295707340E-01  0.23652284571E-01  0.00000000000E+00 0.  1.
     999901    1    3    3    0    0  0.42210685845E-01  0.31916647175E-01 -0.97196584978E-01  0.88693155908E+00  0.88000000000E+00 0. -1.
        -11    1    4    4    0    0 -0.27380001907E-01 -0.36745097282E-02  0.41091142761E-01  0.49516761410E-01  0.51100000000E-03 0.  1.
         11    1    4    4    0    0 -0.30838966193E-01 -0.26236153342E-01  0.73401149557E-01  0.83829394936E-01  0.51100000000E-03 0. -1.
</event>
<event>
 8    1  0.1030163E+005  0.1043930E+01  0.7957747E-01            NaN
         13   -1    0    0    0    0  0.00000000000E+00  0.00000000000E+00  0.74505805969E-08  0.10566000000E+00  0.10566000000E+00 0.  1.
     999900   -1    0    0    0    0 -0.00000000000E+00 -0.00000000000E+00 -0.74505805969E-08  0.93827000000E+00  0.93827000000E+00 0.  1.
     999902    2    1    2    0    0 -0.16410820593E-01 -0.14119142958E-01 -0.96516361577E-02  0.10202272721E+01  0.10199518946E+01 0.  0.
     999903    2    3    3    0    0 -0.51933696561E-01 -0.10589761692E+00  0.56459587405E-01  0.13227690360E+00  0.19951944995E-01 0.  0.
         14    1    1    2    0    0  0.16410820593E-01  0.14119142958E-01  0.96516361577E-02  0.23702727922E-01  0.00000000000E+00 0. -1.
     999901    1    3    3    0    0  0.35522875968E-01  0.91778473959E-01 -0.66111223563E-01  0.88795036848E+00  0.88000000000E+00 0.  1.
        -11    1    4    4    0    0 -0.48465053042E-01 -0.82451782618E-01  0.48739260230E-01  0.10734493203E+00  0.51100000000E-03 0. -1.
         11    1    4    4    0    0 -0.34686435192E-02 -0.23445834299E-01  0.77203271745E-02  0.24931971573E-01  0.51100000000E-03 0.  1.
</event>
<event>
 8    1  0.1030163E+005  0.1043930E+01  0.7957747E-01            NaN
         13   -1    0    0    0    0  0.00000000000E+00  0.00000000000E+00  0.74505805969E-08  0.10566000000E+00  0.10566000000E+00 0.  1.
     999900   -1    0    0    0    0 -0.00000000000E+00 -0.00000000000E+00 -0.74505805969E-08  0.93827000000E+00  0.93827000000E+00 0. -1.
     999902    2    1    2    0    0  0.67820946183E-02  0.11022426920E-01  0.27965748606E-01  0.10131148447E+01  0.10126460955E+01 0.  0.
     999903    2    3    3    0    0 -0.38173551394E-01 -0.11473530831E+00 -0.11941880188E-02  0.12256090471E+00  0.19958413789E-01 0.  0.
         14    1    1    2    0    0 -0.67820946183E-02 -0.11022426920E-01 -0.27965748606E-01  0.30815155325E-01  0.00000000000E+00 0. -1.
     999901    1    3    3    0    0  0.44955646012E-01  0.12575773523E+00  0.29159936624E-01  0.89055393996E+00  0.88000000000E+00 0.  1.
        -11    1    4    4    0    0 -0.29332839496E-01 -0.74115972162E-01  0.75833161205E-02  0.80070972310E-01  0.51100000000E-03 0.  1.
         11    1    4    4    0    0 -0.88407118986E-02 -0.40619336144E-01 -0.87775041394E-02  0.42489932403E-01  0.51100000000E-03 0. -1.
</event>
<event>
 8    1  0.1030163E+005  0.1043930E+01  0.7957747E-01            NaN
         13   -1    0    0    0    0  0.00000000000E+00  0.00000000000E+00  0.74505805969E-08  0.10566000000E+00  0.10566000000E+00 0. -1.
     999900   -1    0    0    0    0 -0.00000000000E+00 -0.00000000000E+00 -0.74505805969E-08  0.93827000000E+00  0.93827000000E+00 0.  1.
     999902    2    1    2    0    0  0.21787980943E-01  0.63563986432E-02  0.54343920440E-02  0.10205922080E+01  0.10203253415E+01 0.  0.
     999903    2    3    3    0    0 -0.26780652248E-01 -0.12491111032E+00  0.91512049478E-02  0.12952325125E+00  0.19301275758E-01 0.  0.
         14    1    1    2    0    0 -0.21787980943E-01 -0.63563986432E-02 -0.54343920440E-02  0.23337791973E-01  0.00000000000E+00 0. -1.
     999901    1    3    3    0    0  0.48568633191E-01  0.13126750896E+00 -0.37168129038E-02  0.89106895678E+00  0.88000000000E+00 0.  1.
        -11    1    4    4    0    0 -0.12634535173E-01 -0.96908040439E-01  0.48206499169E-02  0.97848349845E-01  0.51100000000E-03 0.  1.
         11    1    4    4    0    0 -0.14146117075E-01 -0.28003069879E-01  0.43305550308E-02  0.31674901402E-01  0.51100000000E-03 0. -1.
</event>
<event>
 8    1  0.1030163E+005  0.1043930E+01  0.7957747E-01            NaN
         13   -1    0    0    0    0  0.00000000000E+00  0.00000000000E+00  0.74505805969E-08  0.10566000000E+00  0.10566000000E+00 0. -1.
     999900   -1    0    0    0    0 -0.00000000000E+00 -0.00000000000E+00 -0.74505805969E-08  0.93827000000E+00  0.93827000000E+00 0. -1.
     999902    2    1    2    0    0 -0.18029189310E-01 -0.12498452074E-01 -0.13311403294E-02  0.10219519449E+01  0.10217155880E+01 0.  0.
     999903    2    3    3    0    0  0.41156432520E-01 -0.30097941513E-01  0.11973114121E+00  0.13152016432E+00  0.19033376579E-01 0.  0.
         14    1    1    2    0    0  0.18029189310E-01  0.12498452074E-01  0.13311403294E-02  0.21978055101E-01  0.00000000000E+00 0.  1.
     999901    1    3    3    0    0 -0.59185621830E-01  0.17599489439E-01 -0.12106228154E+00  0.89043178058E+00  0.88000000000E+00 0.  1.
        -11    1    4    4    0    0  0.86420191101E-02  0.82631142908E-03  0.29357311554E-01  0.30618297594E-01  0.51100000000E-03 0.  1.
         11    1    4    4    0    0  0.32514413410E-01 -0.30924252942E-01  0.90373829660E-01  0.10090186672E+00  0.51100000000E-03 0. -1.
</event>
<event>
 8    1  0.1030163E+005  0.1043930E+01  0.7957747E-01            NaN
         13   -1    0    0    0    0  0.00000000000E+00  0.00000000000E+00  0.74505805969E-08  0.10566000000E+00  0.10566000000E+00 0.  1.
     999900   -1    0    0    0    0 -0.00000000000E+00 -0.00000000000E+00 -0.74505805969E-08  0.93827000000E+00  0.93827000000E+00 0. -1.
     999902    2    1    2    0    0 -0.91667492369E-02 -0.17555876292E-01  0.12639351949E-01  0.10204355049E+01  0.10201650005E+01 0.  0.
     999903    2    3    3    0    0 -0.50719252176E-01 -0.12163626749E+00 -0.51656348061E-02  0.13314955553E+00  0.18283769970E-01 0.  0.
         14    1    1    2    0    0  0.91667492369E-02  0.17555876292E-01 -0.12639351949E-01  0.23494495135E-01  0.00000000000E+00 0.  1.
     999901    1    3    3    0    0  0.41552502939E-01  0.10408039120E+00  0.17804986755E-01  0.88728594933E+00  0.88000000000E+00 0.  1.
        -11    1    4    4    0    0 -0.38489979709E-01 -0.87969578136E-01  0.42275725185E-02  0.96115860844E-01  0.51100000000E-03 0. -1.
         11    1    4    4    0    0 -0.12229272467E-01 -0.33666689357E-01 -0.93932073246E-02  0.37033694687E-01  0.51100000000E-03 0.  1.
</event>
<event>
 8    1  0.1030163E+005  0.1043930E+01  0.7957747E-01            NaN
         13   -1    0    0    0    0  0.00000000000E+00  0.00000000000E+00  0.74505805969E-08  0.10566000000E+00  0.10566000000E+00 0. -1.
     999900   -1    0    0    0    0 -0.00000000000E+00 -0.00000000000E+00 -0.74505805969E-08  0.93827000000E+00  0.93827000000E+00 0.  1.
     999902    2    1    2    0    0  0.16416166462E-01 -0.13488875578E-01 -0.14237652362E-01  0.10183536236E+01  0.10180323922E+01 0.  0.
     999903    2    3    3    0    0 -0.88865959641E-01 -0.57363827503E-01 -0.71388607795E-01  0.12915422571E+00  0.19917660661E-01 0.  0.
         14    1    1    2    0    0 -0.16416166462E-01  0.13488875578E-01  0.14237652362E-01  0.25576376413E-01  0.00000000000E+00 0.  1.
     999901    1    3    3    0    0  0.10528212610E+00  0.43874951925E-01  0.57150955433E-01  0.88919939788E+00  0.88000000000E+00 0. -1.
        -11    1    4    4    0    0 -0.70421942956E-02 -0.14800904699E-02 -0.33130356963E-03  0.72217761908E-02  0.51100000000E-03 0. -1.
         11    1    4    4    0    0 -0.81823765346E-01 -0.55883737033E-01 -0.71057304225E-01  0.12193244952E+00  0.51100000000E-03 0.  1.
</event>
<event>
 8    1  0.1030163E+005  0.1043930E+01  0.7957747E-01            NaN
         13   -1    0    0    0    0  0.00000000000E+00  0.00000000000E+00  0.74505805969E-08  0.10566000000E+00  0.10566000000E+00 0.  1.
     999900   -1    0    0    0    0 -0.00000000000E+00 -0.00000000000E+00 -0.74505805969E-08  0.93827000000E+00  0.93827000000E+00 0.  1.
     999902    2    1    2    0    0 -0.98640369259E-03  0.15691231441E-01  0.17369147153E-01  0.10205019184E+01  0.10202329589E+01 0.  0.
     999903    2    3    3    0    0 -0.14039417407E-02 -0.12652754243E+00  0.15905171340E-01  0.12908254612E+00  0.19953425565E-01 0.  0.
         14    1    1    2    0    0  0.98640369259E-03 -0.15691231441E-01 -0.17369147153E-01  0.23428081637E-01  0.00000000000E+00 0. -1.
     999901    1    3    3    0    0  0.41753804811E-03  0.14221877387E+00  0.14639758131E-02  0.89141937224E+00  0.88000000000E+00 0.  1.
        -11    1    4    4    0    0 -0.27691523350E-02 -0.85337112653E-01  0.19903974587E-01  0.87672802658E-01  0.51100000000E-03 0.  1.
         11    1    4    4    0    0  0.13652105943E-02 -0.41190429780E-01 -0.39988032471E-02  0.41409743465E-01  0.51100000000E-03 0. -1.
</event>
<event>
 8    1  0.1030163E+005  0.1043930E+01  0.7957747E-01            NaN
         13   -1    0    0    0    0  0.00000000000E+00  0.00000000000E+00  0.74505805969E-08  0.10566000000E+00  0.10566000000E+00 0. -1.
     999900   -1    0    0    0    0 -0.00000000000E+00 -0.00000000000E+00 -0.74505805969E-08  0.93827000000E+00  0.93827000000E+00 0. -1.
     999902    2    1    2    0    0  0.10175662962E-01  0.14268870491E-01 -0.16067849331E-01  0.10201535292E+01  0.10198764153E+01 0.  0.
     999903    2    3    3    0    0  0.64426460598E-01 -0.10510837534E+00 -0.37433050696E-01  0.13018131182E+00  0.18638703589E-01 0.  0.
         14    1    1    2    0    0 -0.10175662962E-01 -0.14268870491E-01  0.16067849331E-01  0.23776470804E-01  0.00000000000E+00 0.  1.
     999901    1    3    3    0    0 -0.54250797636E-01  0.11937724583E+00  0.21365201365E-01  0.88997221737E+00  0.88000000000E+00 0. -1.
        -11    1    4    4    0    0  0.44522092164E-01 -0.55280365572E-01 -0.19626867471E-01  0.73645166549E-01  0.51100000000E-03 0.  1.
         11    1    4    4    0    0  0.19904368434E-01 -0.49828009769E-01 -0.17806183225E-01  0.56536145273E-01  0.51100000000E-03 0. -1.
</event>
<event>
 8    1  0.1030163E+005  0.1043930E+01  0.7957747E-01            NaN
         13   -1    0    0    0    0  0.00000000000E+00  0.00000000000E+00  0.74505805969E-08  0.10566000000E+00  0.10566000000E+00 0.  1.
     999900   -1    0    0    0    0 -0.00000000000E+00 -0.00000000000E+00 -0.74505805969E-08  0.93827000000E+00  0.93827000000E+00 0. -1.
     999902    2    1    2    0    0  0.15820744831E-01  0.13845235526E-01  0.91563266331E-02  0.10209991293E+01  0.10207415918E+01 0.  0.
     999903    2    3    3    0    0  0.18746100123E-01 -0.97723845939E-01  0.83313785117E-01  0.13085557554E+00  0.16751970783E-01 0.  0.
         14    1    1    2    0    0 -0.15820744831E-01 -0.13845235526E-01 -0.91563266331E-02  0.22930870703E-01  0.00000000000E+00 0.  1.
     999901    1    3    3    0    0 -0.29253552922E-02  0.11156908146E+00 -0.74157458484E-01  0.89014355375E+00  0.88000000000E+00 0. -1.
        -11    1    4    4    0    0  0.54920496059E-02 -0.69521699784E-01  0.57685497998E-01  0.90505840420E-01  0.51100000000E-03 0. -1.
         11    1    4    4    0    0  0.13254050517E-01 -0.28202146155E-01  0.25628287118E-01  0.40349735123E-01  0.51100000000E-03 0.  1.
</event>
<event>
 8    1  0.1030163E+005  0.1043930E+01  0.7957747E-01            NaN
         13   -1    0    0    0    0  0.00000000000E+00  0.00000000000E+00  0.74505805969E-08  0.10566000000E+00  0.10566000000E+00 0.  1.
     999900   -1    0    0    0    0 -0.00000000000E+00 -0.00000000000E+00 -0.74505805969E-08  0.93827000000E+00  0.93827000000E+00 0. -1.
     999902    2    1    2    0    0  0.69765020308E-02  0.23607348706E-01  0.72388410323E-03  0.10193027285E+01  0.10190051765E+01 0.  0.
     999903    2    3    3    0    0 -0.13918632062E-01 -0.11194008289E+00 -0.54965873262E-01  0.12694009934E+00  0.19189349167E-01 0.  0.
         14    1    1    2    0    0 -0.69765020308E-02 -0.23607348706E-01 -0.72388410323E-03  0.24627271503E-01  0.00000000000E+00 0.  1.
     999901    1    3    3    0    0  0.20895134093E-01  0.13554743159E+00  0.55689757366E-01  0.89236262916E+00  0.88000000000E+00 0. -1.
        -11    1    4    4    0    0 -0.23409840486E-02 -0.73370880870E-01 -0.28492732660E-01  0.78745560519E-01  0.51100000000E-03 0. -1.
         11    1    4    4    0    0 -0.11577648014E-01 -0.38569202018E-01 -0.26473140603E-01  0.48194538821E-01  0.51100000000E-03 0.  1.
</event>
<event>
 8    1  0.1030163E+005  0.1043930E+01  0.7957747E-01            NaN
         13   -1    0    0    0    0  0.00000000000E+00  0.00000000000E+00  0.74505805969E-08  0.10566000000E+00  0.10566000000E+00 0.  1.
     999900   -1    0    0    0    0 -0.00000000000E+00 -0.00000000000E+00 -0.74505805969E-08  0.93827000000E+00  0.93827000000E+00 0. -1.
     999902    2    1    2    0    0 -0.33907480341E-02 -0.15365844932E-01  0.14471646063E-01  0.10225516254E+01  0.10223281233E+01 0.  0.
     999903    2    3    3    0    0  0.59177517999E-02 -0.14222097575E-01 -0.12820713691E+00  0.13101071691E+00  0.22123520164E-01 0.  0.
         14    1    1    2    0    0  0.33907480341E-02  0.15365844932E-01 -0.14471646063E-01  0.21378374645E-01  0.00000000000E+00 0. -1.
     999901    1    3    3    0    0 -0.93084998340E-02 -0.11437473568E-02  0.14267878297E+00  0.89154090845E+00  0.88000000000E+00 0.  1.
        -11    1    4    4    0    0  0.22741030777E-02  0.56064622744E-02 -0.44294023398E-01  0.44708227361E-01  0.51100000000E-03 0.  1.
         11    1    4    4    0    0  0.36436487222E-02 -0.19828559849E-01 -0.83913113510E-01  0.86302489545E-01  0.51100000000E-03 0. -1.
</event>
<event>
 8    1  0.1030163E+005  0.1043930E+01  0.7957747E-01            NaN
         13   -1    0    0    0    0  0.00000000000E+00  0.00000000000E+00  0.74505805969E-08  0.10566000000E+00  0.10566000000E+00 0.  1.
     999900   -1    0    0    0    0 -0.00000000000E+00 -0.00000000000E+00 -0.74505805969E-08  0.93827000000E+00  0.93827000000E+00 0.  1.
     999902    2    1    2    0    0  0.33409413682E-03 -0.19887898881E-02 -0.24203581335E-01  0.10196425495E+01  0.10193532501E+01 0.  0.
     999903    2    3    3    0    0  0.91959588024E-01 -0.55966487552E-01 -0.73696830568E-01  0.13185969049E+00  0.19155719270E-01 0.  0.
         14    1    1    2    0    0 -0.33409413682E-03  0.19887898881E-02  0.24203581335E-01  0.24287450537E-01  0.00000000000E+00 0.  1.
     999901    1    3    3    0    0 -0.91625493887E-01  0.53977697664E-01  0.49493249232E-01  0.88778285898E+00  0.88000000000E+00 0. -1.
        -11    1    4    4    0    0  0.76319336252E-01 -0.51636419114E-01 -0.68473760020E-01  0.11480364888E+00  0.51100000000E-03 0. -1.
         11    1    4    4    0    0  0.15640251771E-01 -0.43300684388E-02 -0.52230705480E-02  0.17056041601E-01  0.51100000000E-03 0.  1.
</event>
<event>
 8    1  0.1030163E+005  0.1043930E+01  0.7957747E-01            NaN
         13   -1    0    0    0    0  0.00000000000E+00  0.00000000000E+00  0.74505805969E-08  0.10566000000E+00  0.10566000000E+00 0.  1.
     999900   -1    0    0    0    0 -0.00000000000E+00 -0.00000000000E+00 -0.74505805969E-08  0.93827000000E+00  0.93827000000E+00 0.  1.
     999902    2    1    2    0    0  0.98048107159E-02  0.87480859141E-02 -0.19096951854E-01  0.10207490403E+01  0.10204857895E+01 0.  0.
     999903    2    3    3    0    0  0.71826498661E-01 -0.10740267978E+00 -0.65528425658E-03  0.13076152063E+00  0.20093888274E-01 0.  0.
         14    1    1    2    0    0 -0.98048107159E-02 -0.87480859141E-02  0.19096951854E-01  0.23180959653E-01  0.00000000000E+00 0.  1.
     999901    1    3    3    0    0 -0.62021687945E-01  0.11615076570E+00 -0.18441667598E-01  0.88998751972E+00  0.88000000000E+00 0. -1.
        -11    1    4    4    0    0  0.23517425993E-01 -0.47062568998E-01  0.70349623200E-02  0.53082073639E-01  0.51100000000E-03 0.  1.
         11    1    4    4    0    0  0.48309072668E-01 -0.60340110784E-01 -0.76902465766E-02  0.77679446991E-01  0.51100000000E-03 0. -1.
</event>
<event>
 8    1  0.1030163E+005  0.1043930E+01  0.7957747E-01            NaN
         13   -1    0    0    0    0  0.00000000000E+00  0.00000000000E+00  0.74505805969E-08  0.10566000000E+00  0.10566000000E+00 0.  1.
     999900   -1    0    0    0    0 -0.00000000000E+00 -0.00000000000E+00 -0.74505805969E-08  0.93827000000E+00  0.93827000000E+00 0. -1.
     999902    2    1    2    0    0  0.64002774784E-02  0.15226670830E-01 -0.17729007905E-01  0.10196991771E+01  0.10194112414E+01 0.  0.
     999903    2    3    3    0    0  0.89414860397E-01 -0.90635025953E-01 -0.12593975401E-01  0.12946073244E+00  0.19792620790E-01 0.  0.
         14    1    1    2    0    0 -0.64002774784E-02 -0.15226670830E-01  0.17729007905E-01  0.24230822885E-01  0.00000000000E+00 0.  1.
     999901    1    3    3    0    0 -0.83014582918E-01  0.10586169678E+00 -0.51350325047E-02  0.89023844468E+00  0.88000000000E+00 0. -1.
        -11    1    4    4    0    0  0.50260836786E-01 -0.37480699798E-01 -0.32626360991E-02  0.62784237569E-01  0.51100000000E-03 0. -1.
         11    1    4    4    0    0  0.39154023611E-01 -0.53154326155E-01 -0.93313393014E-02  0.66676494869E-01  0.51100000000E-03 0.  1.
</event>
<event>
 8    1  0.1030163E+005  0.1043930E+01  0.7957747E-01            NaN
         13   -1    0    0    0    0  0.00000000000E+00  0.00000000000E+00  0.74505805969E-08  0.10566000000E+00  0.10566000000E+00 0. -1.
     999900   -1    0    0    0    0 -0.00000000000E+00 -0.00000000000E+00 -0.74505805969E-08  0.93827000000E+00  0.93827000000E+00 0. -1.
     999902    2    1    2    0    0 -0.14337859661E-01 -0.18609899687E-01 -0.24804661546E-02  0.10203068059E+01  0.10200332950E+01 0.  0.
     999903    2    3    3    0    0  0.38458328893E-01 -0.11299732008E+00  0.52765317507E-01  0.13196648867E+00  0.19584126055E-01 0.  0.
         14    1    1    2    0    0  0.14337859661E-01  0.18609899687E-01  0.24804661546E-02  0.23623194076E-01  0.00000000000E+00 0. -1.
     999901    1    3    3    0    0 -0.52796188554E-01  0.94387420390E-01 -0.55245783661E-01  0.88834031726E+00  0.88000000000E+00 0.  1.
        -11    1    4    4    0    0  0.11666922938E-01 -0.51483703353E-01  0.31987017102E-01  0.61726162896E-01  0.51100000000E-03 0.  1.
         11    1    4    4    0    0  0.26791405955E-01 -0.61513616724E-01  0.20778300404E-01  0.70240325770E-01  0.51100000000E-03 0. -1.
</event>
<event>
 8    1  0.1030163E+005  0.1043930E+01  0.7957747E-01            NaN
         13   -1    0    0    0    0  0.00000000000E+00  0.00000000000E+00  0.74505805969E-08  0.10566000000E+00  0.10566000000E+00 0.  1.
     999900   -1    0    0    0    0 -0.00000000000E+00 -0.00000000000E+00 -0.74505805969E-08  0.93827000000E+00  0.93827000000E+00 0.  1.
     999902    2    1    2    0    0 -0.16052966941E-01  0.14128795968E-01 -0.83161082896E-02  0.10209848855E+01  0.10207270243E+01 0.  0.
     999903    2    3    3    0    0  0.37377550579E-01  0.12495601966E+00 -0.11819622025E-01  0.13241875495E+00  0.19594260969E-01 0.  0.
         14    1    1    2    0    0  0.16052966941E-01 -0.14128795968E-01  0.83161082896E-02  0.22945114517E-01  0.00000000000E+00 0.  1.
     999901    1    3    3    0    0 -0.53430517520E-01 -0.11082722369E+00  0.35035137350E-02  0.88856613053E+00  0.88000000000E+00 0.  1.
        -11    1    4    4    0    0  0.14177833124E-01  0.77658562989E-01 -0.11179787873E-01  0.79731500271E-01  0.51100000000E-03 0.  1.
         11    1    4    4    0    0  0.23199717455E-01  0.47297456668E-01 -0.63983415152E-03  0.52687254683E-01  0.51100000000E-03 0. -1.
</event>
<event>
 8    1  0.1030163E+005  0.1043930E+01  0.7957747E-01            NaN
         13   -1    0    0    0    0  0.00000000000E+00  0.00000000000E+00  0.74505805969E-08  0.10566000000E+00  0.10566000000E+00 0.  1.
     999900   -1    0    0    0    0 -0.00000000000E+00 -0.00000000000E+00 -0.74505805969E-08  0.93827000000E+00  0.93827000000E+00 0.  1.
     999902    2    1    2    0    0 -0.14170665540E-01  0.75457912395E-03 -0.19064580873E-01  0.10201637341E+01  0.10198868609E+01 0.  0.
     999903    2    3    3    0    0  0.54206271271E-01  0.10345593859E+00 -0.55127596163E-01  0.13082492587E+00  0.20848460291E-01 0.  0.
         14    1    1    2    0    0  0.14170665540E-01 -0.75457912395E-03  0.19064580873E-01  0.23766265911E-01  0.00000000000E+00 0.  1.
     999901    1    3    3    0    0 -0.68376936811E-01 -0.10270135947E+00  0.36063015290E-01  0.88933880821E+00  0.88000000000E+00 0. -1.
        -11    1    4    4    0    0  0.74311540427E-02  0.31056788136E-01 -0.20394159419E-01  0.37893653811E-01  0.51100000000E-03 0. -1.
         11    1    4    4    0    0  0.46775117228E-01  0.72399150455E-01 -0.34733436744E-01  0.92931272064E-01  0.51100000000E-03 0.  1.
</event>
<event>
 8    1  0.1030163E+005  0.1043930E+01  0.7957747E-01            NaN
         13   -1    0    0    0    0  0.00000000000E+00  0.00000000000E+00  0.74505805969E-08  0.10566000000E+00  0.10566000000E+00 0. -1.
     999900   -1    0    0    0    0 -0.00000000000E+00 -0.00000000000E+00 -0.74505805969E-08  0.93827000000E+00  0.93827000000E+00 0. -1.
     999902    2    1    2    0    0 -0.13714400918E-01 -0.49014735436E-02  0.15911870629E-01  0.10223592591E+01  0.10221316734E+01 0.  0.
     999903    2    3    3    0    0 -0.32178861545E-01 -0.14742381616E-01  0.12864886883E+00  0.13492057924E+00  0.20005356887E-01 0.  0.
         14    1    1    2    0    0  0.13714400918E-01  0.49014735436E-02 -0.15911870629E-01  0.21570740886E-01  0.00000000000E+00 0.  1.
     999901    1    3    3    0    0  0.18464460627E-01  0.98409080719E-02 -0.11273699820E+00  0.88743867988E+00  0.88000000000E+00 0. -1.
        -11    1    4    4    0    0 -0.31521047712E-01 -0.62783386574E-02  0.10282371558E+00  0.10773101499E+00  0.51100000000E-03 0. -1.
         11    1    4    4    0    0 -0.65781383211E-03 -0.84640429582E-02  0.25825153253E-01  0.27189564244E-01  0.51100000000E-03 0.  1.
</event>
<event>
 8    1  0.1030163E+005  0.1043930E+01  0.7957747E-01            NaN
         13   -1    0    0    0    0  0.00000000000E+00  0.00000000000E+00  0.74505805969E-08  0.10566000000E+00  0.10566000000E+00 0.  1.
     999900   -1    0    0    0    0 -0.00000000000E+00 -0.00000000000E+00 -0.74505805969E-08  0.93827000000E+00  0.93827000000E+00 0.  1.
     999902    2    1    2    0    0 -0.12018235549E-02 -0.97717208944E-02  0.22071750657E-01  0.10197619822E+01  0.10194755550E+01 0.  0.
     999903    2    3    3    0    0 -0.97638501985E-01 -0.36393334766E-01 -0.73444413710E-01  0.12895780563E+00  0.19449468957E-01 0.  0.
         14    1    1    2    0    0  0.12018235549E-02  0.97717208944E-02 -0.22071750657E-01  0.24168017837E-01  0.00000000000E+00 0. -1.
     999901    1    3    3    0    0  0.96436678430E-01  0.26621613871E-01  0.95516164367E-01  0.89080417653E+00  0.88000000000E+00 0. -1.
        -11    1    4    4    0    0 -0.32935677436E-01 -0.82802239231E-02 -0.34328582017E-01  0.48291133976E-01  0.51100000000E-03 0. -1.
         11    1    4    4    0    0 -0.64702824549E-01 -0.28113110843E-01 -0.39115831693E-01  0.80666671655E-01  0.51100000000E-03 0.  1.
</event>
<event>
 8    1  0.1030163E+005  0.1043930E+01  0.7957747E-01            NaN
         13   -1    0    0    0    0  0.00000000000E+00  0.00000000000E+00  0.74505805969E-08  0.10566000000E+00  0.10566000000E+00 0.  1.
     999900   -1    0    0    0    0 -0.00000000000E+00 -0.00000000000E+00 -0.74505805969E-08  0.93827000000E+00  0.93827000000E+00 0. -1.
     999902    2    1    2    0    0 -0.17041307563E-01  0.50491971218E-02  0.15073352637E-01  0.10206253542E+01  0.10203592540E+01 0.  0.
     999903    2    3    3    0    0 -0.69185358063E-01  0.36959972815E-01  0.10614336219E+00  0.13381587849E+00  0.22082179235E-01 0.  0.
         14    1    1    2    0    0  0.17041307563E-01 -0.50491971218E-02 -0.15073352637E-01  0.23304645776E-01  0.00000000000E+00 0. -1.
     999901    1    3    3    0    0  0.52144050500E-01 -0.31910775693E-01 -0.91070009549E-01  0.88680947573E+00  0.88000000000E+00 0. -1.
        -11    1    4    4    0    0 -0.14933909189E-01  0.17301214443E-01  0.39704124962E-01  0.45815197532E-01  0.51100000000E-03 0.  1.
         11    1    4    4    0    0 -0.54251448874E-01  0.19658758372E-01  0.66439237224E-01  0.88000680961E-01  0.51100000000E-03 0. -1.
</event>
<event>
 8    1  0.1030163E+005  0.1043930E+01  0.7957747E-01            NaN
         13   -1    0    0    0    0  0.00000000000E+00  0.00000000000E+00  0.74505805969E-08  0.10566000000E+00  0.10566000000E+00 0. -1.
     999900   -1    0    0    0    0 -0.00000000000E+00 -0.00000000000E+00 -0.74505805969E-08  0.93827000000E+00  0.93827000000E+00 0. -1.
     999902    2    1    2    0    0  0.22851221133E-01  0.14436545555E-02 -0.39273565718E-02  0.10206988447E+01  0.10204344394E+01 0.  0.
     999903    2    3    3    0    0  0.21189516826E-01  0.12857258752E+00 -0.10503329118E-01  0.13153757124E+00  0.14557020293E-01 0.  0.
         14    1    1    2    0    0 -0.22851221133E-01 -0.14436545555E-02  0.39273565718E-02  0.23231155274E-01  0.00000000000E+00 0.  1.
     999901    1    3    3    0    0  0.16617043070E-02 -0.12712893296E+00  0.65759725460E-02  0.88916127349E+00  0.88000000000E+00 0. -1.
        -11    1    4    4    0    0  0.18700445147E-01  0.70800255220E-01 -0.39042874906E-02  0.73334080547E-01  0.51100000000E-03 0. -1.
         11    1    4    4    0    0  0.24890716784E-02  0.57772332299E-01 -0.65990416271E-02  0.58203490690E-01  0.51100000000E-03 0.  1.
</event>
<event>
 8    1  0.1030163E+005  0.1043930E+01  0.7957747E-01            NaN
         13   -1    0    0    0    0  0.00000000000E+00  0.00000000000E+00  0.74505805969E-08  0.10566000000E+00  0.10566000000E+00 0. -1.
     999900   -1    0    0    0    0 -0.00000000000E+00 -0.00000000000E+00 -0.74505805969E-08  0.93827000000E+00  0.93827000000E+00 0.  1.
     999902    2    1    2    0    0 -0.60660260676E-02  0.13787086406E-01 -0.17660726233E-01  0.10207183289E+01  0.10204543720E+01 0.  0.
     999903    2    3    3    0    0 -0.68487888744E-01 -0.10205767825E+00 -0.43322497448E-01  0.13056383392E+00  0.79821895837E-02 0.  0.
         14    1    1    2    0    0  0.60660260676E-02 -0.13787086406E-01  0.17660726233E-01  0.23211671092E-01  0.00000000000E+00 0. -1.
     999901    1    3    3    0    0  0.62421862676E-01  0.11584476465E+00  0.25661771215E-01  0.89015449498E+00  0.88000000000E+00 0.  1.
        -11    1    4    4    0    0 -0.62036962365E-02 -0.11211242416E-01 -0.23205966281E-02  0.13031657347E-01  0.51100000000E-03 0.  1.
         11    1    4    4    0    0 -0.62284192507E-01 -0.90846435830E-01 -0.41001900820E-01  0.11753217658E+00  0.51100000000E-03 0. -1.
</event>
<event>
 8    1  0.1030163E+005  0.1043930E+01  0.7957747E-01            NaN
         13   -1    0    0    0    0  0.00000000000E+00  0.00000000000E+00  0.74505805969E-08  0.10566000000E+00  0.10566000000E+00 0.  1.
     999900   -1    0    0    0    0 -0.00000000000E+00 -0.00000000000E+00 -0.74505805969E-08  0.93827000000E+00  0.93827000000E+00 0. -1.
     999902    2    1    2    0    0  0.11305869091E-01  0.64289046745E-02 -0.21244377748E-01  0.10190206227E+01  0.10187161295E+01 0.  0.
     999903    2    3    3    0    0 -0.68672577867E-01 -0.80840531414E-01 -0.71732237918E-01  0.12966044231E+00  0.20376502958E-01 0.  0.
         14    1    1    2    0    0 -0.11305869091E-01 -0.64289046745E-02  0.21244377748E-01  0.24909377293E-01  0.00000000000E+00 0.  1.
     999901    1    3    3    0    0  0.79978446958E-01  0.87269436088E-01  0.50487860170E-01  0.88936018040E+00  0.88000000000E+00 0. -1.
        -11    1    4    4    0    0 -0.15992209359E-01 -0.27270677457E-01 -0.12554512804E-01  0.34019369804E-01  0.51100000000E-03 0. -1.
         11    1    4    4    0    0 -0.52680368508E-01 -0.53569853957E-01 -0.59177725114E-01  0.95641072505E-01  0.51100000000E-03 0.  1.
</event>
<event>
 8    1  0.1030163E+005  0.1043930E+01  0.7957747E-01            NaN
         13   -1    0    0    0    0  0.00000000000E+00  0.00000000000E+00  0.74505805969E-08  0.10566000000E+00  0.10566000000E+00 0. -1.
     999900   -1    0    0    0    0 -0.00000000000E+00 -0.00000000000E+00 -0.74505805969E-08  0.93827000000E+00  0.93827000000E+00 0.  1.
     999902    2    1    2    0    0 -0.50862004707E-02  0.21373061518E-01 -0.84348816427E-02  0.10203965255E+01  0.10201251123E+01 0.  0.
     999903    2    3    3    0    0  0.41727050801E-01  0.92365205406E-01  0.81633887928E-01  0.13172124833E+00  0.20344966604E-01 0.  0.
         14    1    1    2    0    0  0.50862004707E-02 -0.21373061518E-01  0.84348816427E-02  0.23533474503E-01  0.00000000000E+00 0. -1.
     999901    1    3    3    0    0 -0.46813251272E-01 -0.70992143889E-01 -0.90068769570E-01  0.88867527716E+00  0.88000000000E+00 0.  1.
        -11    1    4    4    0    0  0.40425153618E-02  0.31103024595E-01  0.27192183653E-01  0.41514046324E-01  0.51100000000E-03 0.  1.
         11    1    4    4    0    0  0.37684535440E-01  0.61262180811E-01  0.54441704275E-01  0.90207202010E-01  0.51100000000E-03 0. -1.
</event>
<event>
 8    1  0.1030163E+005  0.1043930E+01  0.7957747E-01            NaN
         13   -1    0    0    0    0  0.00000000000E+00  0.00000000000E+00  0.74505805969E-08  0.10566000000E+00  0.10566000000E+00 0. -1.
     999900   -1    0    0    0    0 -0.00000000000E+00 -0.00000000000E+00 -0.74505805969E-08  0.93827000000E+00  0.93827000000E+00 0.  1.
     999902    2    1    2    0    0 -0.19115078947E-01  0.94279249347E-02 -0.75535842264E-02  0.10213174228E+01  0.10210670642E+01 0.  0.
     999903    2    3    3    0    0  0.22867392189E-01 -0.18401895234E-01  0.12501673222E+00  0.12996344400E+00  0.19994150812E-01 0.  0.
         14    1    1    2    0    0  0.19115078947E-01 -0.94279249347E-02  0.75535842264E-02  0.22612577172E-01  0.00000000000E+00 0. -1.
     999901    1    3    3    0    0 -0.41982471135E-01  0.27829820169E-01 -0.13257031645E+00  0.89135397883E+00  0.88000000000E+00 0.  1.
        -11    1    4    4    0    0  0.17493518727E-01 -0.75580022312E-02  0.42725013540E-01  0.46784981545E-01  0.51100000000E-03 0.  1.
         11    1    4    4    0    0  0.53738734617E-02 -0.10843893003E-01  0.82291718682E-01  0.83178462453E-01  0.51100000000E-03 0. -1.
</event>
<event>
 8    1  0.1030163E+005  0.1043930E+01  0.7957747E-01            NaN
         13   -1    0    0    0    0  0.00000000000E+00  0.00000000000E+00  0.74505805969E-08  0.10566000000E+00  0.10566000000E+00 0.  1.
     999900   -1    0    0    0    0 -0.00000000000E+00 -0.00000000000E+00 -0.74505805969E-08  0.93827000000E+00  0.93827000000E+00 0.  1.
     999902    2    1    2    0    0  0.97884028321E-02 -0.13563204473E-01  0.16997608696E-01  0.10200827350E+01  0.10198039489E+01 0.  0.
     999903    2    3    3    0    0  0.21375417055E-01 -0.12895269296E+00  0.61523854915E-02  0.13240790051E+00  0.20206305832E-01 0.  0.
         14    1    1    2    0    0 -0.97884028321E-02  0.13563204473E-01 -0.16997608696E-01  0.23847264978E-01  0.00000000000E+00 0. -1.
     999901    1    3    3    0    0 -0.11587014223E-01  0.11538948849E+00  0.10845223204E-01  0.88767483451E+00  0.88000000000E+00 0. -1.
        -11    1    4    4    0    0 -0.93548874680E-03 -0.54225374244E-01  0.91208988650E-03  0.54243519244E-01  0.51100000000E-03 0. -1.
         11    1    4    4    0    0  0.22310905802E-01 -0.74727318717E-01  0.52402956050E-02  0.78164381270E-01  0.51100000000E-03 0.  1.
</event>
<event>
 8    1  0.1030163E+005  0.1043930E+01  0.7957747E-01            NaN
         13   -1    0    0    0    0  0.00000000000E+00  0.00000000000E+00  0.74505805969E-08  0.10566000000E+00  0.10566000000E+00 0.  1.
     999900   -1    0    0    0    0 -0.00000000000E+00 -0.00000000000E+00 -0.74505805969E-08  0.93827000000E+00  0.93827000000E+00 0. -1.
     999902    2    1    2    0    0  0.19719233363E-01  0.11794272074E-01  0.67404678205E-02  0.10199845010E+01  0.10197033859E+01 0.  0.
     999903    2    3    3    0    0 -0.10977981353E+00  0.26913831237E-01  0.58629918506E-01  0.12886659668E+00  0.19828530637E-01 0.  0.
         14    1    1    2    0    0 -0.19719233363E-01 -0.11794272074E-01 -0.67404678205E-02  0.23945499047E-01  0.00000000000E+00 0.  1.
     999901    1    3    3    0    0  0.12949904689E+00 -0.15119559163E-01 -0.51889450685E-01  0.89111790427E+00  0.88000000000E+00 0. -1.
        -11    1    4    4    0    0 -0.53044035094E-01  0.18368054870E-01  0.38455567110E-01  0.68045182500E-01  0.51100000000E-03 0.  1.
         11    1    4    4    0    0 -0.56735778434E-01  0.85457763668E-02  0.20174351396E-01  0.60821414184E-01  0.51100000000E-03 0. -1.
</event>
<event>
 8    1  0.1030163E+005  0.1043930E+01  0.7957747E-01            NaN
         13   -1    0    0    0    0  0.00000000000E+00  0.00000000000E+00  0.74505805969E-08  0.10566000000E+00  0.10566000000E+00 0.  1.
     999900   -1    0    0    0    0 -0.00000000000E+00 -0.00000000000E+00 -0.74505805969E-08  0.93827000000E+00  0.93827000000E+00 0. -1.
     999902    2    1    2    0    0 -0.21195815553E-02  0.19196005837E-01  0.13151118490E-01  0.10205648297E+01  0.10202973294E+01 0.  0.
     999903    2    3    3    0    0  0.87080032889E-01 -0.92321464056E-01 -0.81364852951E-02  0.12879923303E+00  0.20417031694E-01 0.  0.
         14    1    1    2    0    0  0.21195815553E-02 -0.19196005837E-01 -0.13151118490E-01  0.23365170310E-01  0.00000000000E+00 0. -1.
     999901    1    3    3    0    0 -0.89199614445E-01  0.11151746989E+00  0.21287603785E-01  0.89176559666E+00  0.88000000000E+00 0. -1.
        -11    1    4    4    0    0  0.32760250739E-01 -0.44560428343E-01 -0.11073306877E-01  0.56406959223E-01  0.51100000000E-03 0.  1.
         11    1    4    4    0    0  0.54319782150E-01 -0.47761035713E-01  0.29368215815E-02  0.72392273809E-01  0.51100000000E-03 0. -1.
</event>
<event>
 8    1  0.1030163E+005  0.1043930E+01  0.7957747E-01            NaN
         13   -1    0    0    0    0  0.00000000000E+00  0.00000000000E+00  0.74505805969E-08  0.10566000000E+00  0.10566000000E+00 0.  1.
     999900   -1    0    0    0    0 -0.00000000000E+00 -0.00000000000E+00 -0.74505805969E-08  0.93827000000E+00  0.93827000000E+00 0.  1.
     999902    2    1    2    0    0  0.19403619935E-01 -0.97733844962E-02  0.10260828972E-01  0.10199028461E+01  0.10196197877E+01 0.  0.
     999903    2    3    3    0    0 -0.94384961680E-01  0.81983767035E-01  0.17654444877E-01  0.12781435181E+00  0.19873853611E-01 0.  0.
         14    1    1    2    0    0 -0.19403619935E-01  0.97733844962E-02 -0.10260828972E-01  0.24027153853E-01  0.00000000000E+00 0. -1.
     999901    1    3    3    0    0  0.11378858162E+00 -0.91757151531E-01 -0.73936159045E-02  0.89208849433E+00  0.88000000000E+00 0.  1.
        -11    1    4    4    0    0 -0.75657912194E-01  0.75173522000E-01  0.14834302049E-01  0.10768238354E+00  0.51100000000E-03 0. -1.
         11    1    4    4    0    0 -0.18727049486E-01  0.68102450352E-02  0.28201428277E-02  0.20131968271E-01  0.51100000000E-03 0.  1.
</event>
<event>
 8    1  0.1030163E+005  0.1043930E+01  0.7957747E-01            NaN
         13   -1    0    0    0    0  0.00000000000E+00  0.00000000000E+00  0.74505805969E-08  0.10566000000E+00  0.10566000000E+00 0.  1.
     999900   -1    0    0    0    0 -0.00000000000E+00 -0.00000000000E+00 -0.74505805969E-08  0.93827000000E+00  0.93827000000E+00 0.  1.
     999902    2    1    2    0    0 -0.21681036208E-01 -0.52410857168E-02 -0.64260491788E-02  0.10207172789E+01  0.10204532979E+01 0.  0.
     999903    2    3    3    0    0 -0.44294674860E-01 -0.11461269507E+00 -0.46312040676E-01  0.13276208982E+00  0.19567301550E-01 0.  0.
         14    1    1    2    0    0  0.21681036208E-01  0.52410857168E-02  0.64260491788E-02  0.23212721051E-01  0.00000000000E+00 0. -1.
     999901    1    3    3    0    0  0.22613638652E-01  0.10937160935E+00  0.39885991497E-01  0.88795518913E+00  0.88000000000E+00 0. -1.
        -11    1    4    4    0    0 -0.13522178719E-01 -0.61967625152E-01 -0.24585779887E-01  0.68026153632E-01  0.51100000000E-03 0. -1.
         11    1    4    4    0    0 -0.30772496141E-01 -0.52645069916E-01 -0.21726260789E-01  0.64735936187E-01  0.51100000000E-03 0.  1.
</event>
