<event>
 8    1  0.1054086E+005  0.1043930E+01  0.7957747E-01            NaN
         13   -1    0    0    0    0  0.00000000000E+00  0.00000000000E+00  0.74505805969E-08  0.10566000000E+00  0.10566000000E+00 0. -1.
     999900   -1    0    0    0    0 -0.00000000000E+00 -0.00000000000E+00 -0.74505805969E-08  0.93827000000E+00  0.93827000000E+00 0.  1.
     999902    2    1    2    0    0 -0.17760092435E-01 -0.97197819233E-02 -0.94991081160E-02  0.10215664560E+01  0.10213216418E+01 0.  0.
     999903    2    3    3    0    0  0.58795807801E-01 -0.80279653171E-01  0.81822560942E-01  0.13073586129E+00  0.22252285700E-01 0.  0.
         14    1    1    2    0    0  0.17760092435E-01  0.97197819233E-02  0.94991081160E-02  0.22363543971E-01  0.00000000000E+00 0. -1.
     999901    1    3    3    0    0 -0.76555900236E-01  0.70559871247E-01 -0.91321669058E-01  0.89083059474E+00  0.88000000000E+00 0.  1.
        -11    1    4    4    0    0  0.13613591791E-01 -0.33523122817E-01  0.21797311822E-01  0.42243503270E-01  0.51100000000E-03 0. -1.
         11    1    4    4    0    0  0.45182216010E-01 -0.46756530353E-01  0.60025249120E-01  0.88492358016E-01  0.51100000000E-03 0.  1.
</event>
<event>
 8    1  0.1054086E+005  0.1043930E+01  0.7957747E-01            NaN
         13   -1    0    0    0    0  0.00000000000E+00  0.00000000000E+00  0.74505805969E-08  0.10566000000E+00  0.10566000000E+00 0.  1.
     999900   -1    0    0    0    0 -0.00000000000E+00 -0.00000000000E+00 -0.74505805969E-08  0.93827000000E+00  0.93827000000E+00 0.  1.
     999902    2    1    2    0    0  0.11815055724E-01  0.11240107841E-01  0.13196908547E-01  0.10229515834E+01  0.10227364510E+01 0.  0.
     999903    2    3    3    0    0 -0.59007734850E-01 -0.68642320902E-01 -0.91644547429E-01  0.13032131229E+00  0.19779797084E-01 0.  0.
         14    1    1    2    0    0 -0.11815055724E-01 -0.11240107841E-01 -0.13196908547E-01  0.20978416557E-01  0.00000000000E+00 0. -1.
     999901    1    3    3    0    0  0.70822790574E-01  0.79882428743E-01  0.10484145598E+00  0.89263027115E+00  0.88000000000E+00 0. -1.
        -11    1    4    4    0    0 -0.36752255653E-01 -0.32366644405E-01 -0.59022859093E-01  0.76696068883E-01  0.51100000000E-03 0.  1.
         11    1    4    4    0    0 -0.22255479198E-01 -0.36275676497E-01 -0.32621688336E-01  0.53625243408E-01  0.51100000000E-03 0. -1.
</event>
<event>
 8    1  0.1161046E+005  0.1043930E+01  0.7957747E-01            NaN
         13   -1    0    0    0    0  0.00000000000E+00  0.00000000000E+00  0.74505805969E-08  0.10566000000E+00  0.10566000000E+00 0.  1.
     999900   -1    0    0    0    0 -0.00000000000E+00 -0.00000000000E+00 -0.74505805969E-08  0.93827000000E+00  0.93827000000E+00 0.  1.
     999902    2    1    2    0    0 -0.12101479107E-01  0.16778502231E-01  0.44854827235E-02  0.10227620174E+01  0.10225429383E+01 0.  0.
     999903    2    3    3    0    0  0.50245957834E-01  0.12266436446E+00 -0.23062492780E-02  0.13419848765E+00  0.20801747886E-01 0.  0.
         14    1    1    2    0    0  0.12101479107E-01 -0.16778502231E-01 -0.44854827235E-02  0.21167982638E-01  0.00000000000E+00 0. -1.
     999901    1    3    3    0    0 -0.62347436941E-01 -0.10588586223E+00  0.67917320015E-02  0.88856352971E+00  0.88000000000E+00 0.  1.
        -11    1    4    4    0    0  0.26081123389E-01  0.57232064536E-01  0.89901043521E-02  0.63535952858E-01  0.51100000000E-03 0.  1.
         11    1    4    4    0    0  0.24164834445E-01  0.65432299922E-01 -0.11296353630E-01  0.70662534791E-01  0.51100000000E-03 0. -1.
</event>
<event>
 8    1  0.1054086E+005  0.1043930E+01  0.7957747E-01            NaN
         13   -1    0    0    0    0  0.00000000000E+00  0.00000000000E+00  0.74505805969E-08  0.10566000000E+00  0.10566000000E+00 0.  1.
     999900   -1    0    0    0    0 -0.00000000000E+00 -0.00000000000E+00 -0.74505805969E-08  0.93827000000E+00  0.93827000000E+00 0.  1.
     999902    2    1    2    0    0  0.70464500798E-02  0.46669579548E-02  0.22413527934E-01  0.10199758941E+01  0.10196945745E+01 0.  0.
     999903    2    3    3    0    0  0.68509224600E-01 -0.10811403687E+00  0.18305054788E-01  0.13064237679E+00  0.18713544789E-01 0.  0.
         14    1    1    2    0    0 -0.70464500798E-02 -0.46669579548E-02 -0.22413527934E-01  0.23954105905E-01  0.00000000000E+00 0. -1.
     999901    1    3    3    0    0 -0.61462774520E-01  0.11278099483E+00  0.41084731460E-02  0.88933351730E+00  0.88000000000E+00 0.  1.
        -11    1    4    4    0    0  0.51461670689E-01 -0.80942300922E-01  0.54206236629E-02  0.96070827573E-01  0.51100000000E-03 0. -1.
         11    1    4    4    0    0  0.17047553911E-01 -0.27171735952E-01  0.12884431125E-01  0.34571549219E-01  0.51100000000E-03 0.  1.
</event>
<event>
 8    1  0.1054086E+005  0.1043930E+01  0.7957747E-01            NaN
         13   -1    0    0    0    0  0.00000000000E+00  0.00000000000E+00  0.74505805969E-08  0.10566000000E+00  0.10566000000E+00 0. -1.
     999900   -1    0    0    0    0 -0.00000000000E+00 -0.00000000000E+00 -0.74505805969E-08  0.93827000000E+00  0.93827000000E+00 0. -1.
     999902    2    1    2    0    0 -0.20215726884E-02 -0.18731728062E-01  0.16632928197E-01  0.10187979748E+01  0.10184879453E+01 0.  0.
     999903    2    3    3    0    0  0.28202467371E-02  0.11543546439E+00 -0.47169609146E-01  0.12633226532E+00  0.20039186732E-01 0.  0.
         14    1    1    2    0    0  0.20215726884E-02  0.18731728062E-01 -0.16632928197E-01  0.25132025242E-01  0.00000000000E+00 0.  1.
     999901    1    3    3    0    0 -0.48418194254E-02 -0.13416719245E+00  0.63802537343E-01  0.89246570943E+00  0.88000000000E+00 0.  1.
        -11    1    4    4    0    0  0.32831392249E-02  0.93056895293E-01 -0.29088969469E-01  0.97554056966E-01  0.51100000000E-03 0.  1.
         11    1    4    4    0    0 -0.46289248781E-03  0.22378569095E-01 -0.18080639677E-01  0.28778208358E-01  0.51100000000E-03 0. -1.
</event>
<event>
 8    1  0.1054086E+005  0.1043930E+01  0.7957747E-01            NaN
         13   -1    0    0    0    0  0.00000000000E+00  0.00000000000E+00  0.74505805969E-08  0.10566000000E+00  0.10566000000E+00 0.  1.
     999900   -1    0    0    0    0 -0.00000000000E+00 -0.00000000000E+00 -0.74505805969E-08  0.93827000000E+00  0.93827000000E+00 0. -1.
     999902    2    1    2    0    0  0.62340695315E-02 -0.13253756617E-03 -0.21932410820E-01  0.10211284248E+01  0.10208738159E+01 0.  0.
     999903    2    3    3    0    0 -0.27079359079E-01 -0.80435298063E-01 -0.10002336370E+00  0.13340295211E+00  0.24259956342E-01 0.  0.
         14    1    1    2    0    0 -0.62340695315E-02  0.13253756617E-03  0.21932410820E-01  0.22801575242E-01  0.00000000000E+00 0.  1.
     999901    1    3    3    0    0  0.33313428611E-01  0.80302760497E-01  0.78090952885E-01  0.88772547265E+00  0.88000000000E+00 0. -1.
        -11    1    4    4    0    0 -0.23228204648E-01 -0.35814165707E-01 -0.57735250564E-01  0.71804068374E-01  0.51100000000E-03 0.  1.
         11    1    4    4    0    0 -0.38511544309E-02 -0.44621132356E-01 -0.42288113141E-01  0.61598883734E-01  0.51100000000E-03 0. -1.
</event>
<event>
 8    1  0.1054086E+005  0.1043930E+01  0.7957747E-01            NaN
         13   -1    0    0    0    0  0.00000000000E+00  0.00000000000E+00  0.74505805969E-08  0.10566000000E+00  0.10566000000E+00 0. -1.
     999900   -1    0    0    0    0 -0.00000000000E+00 -0.00000000000E+00 -0.74505805969E-08  0.93827000000E+00  0.93827000000E+00 0.  1.
     999902    2    1    2    0    0  0.10965922286E-01 -0.22646993549E-02 -0.21107306777E-01  0.10200365131E+01  0.10197566325E+01 0.  0.
     999903    2    3    3    0    0 -0.53119348676E-01 -0.31370830352E-01 -0.11477485786E+00  0.13227094784E+00  0.22727548143E-01 0.  0.
         14    1    1    2    0    0 -0.10965922286E-01  0.22646993549E-02  0.21107306777E-01  0.23893486856E-01  0.00000000000E+00 0. -1.
     999901    1    3    3    0    0  0.64085270962E-01  0.29106130997E-01  0.93667551083E-01  0.88776556531E+00  0.88000000000E+00 0. -1.
        -11    1    4    4    0    0 -0.15079639639E-01 -0.66951958866E-02 -0.53852222614E-01  0.56325342263E-01  0.51100000000E-03 0.  1.
         11    1    4    4    0    0 -0.38039709037E-01 -0.24675634465E-01 -0.60922635247E-01  0.75945605576E-01  0.51100000000E-03 0. -1.
</event>
<event>
 8    1  0.1054086E+005  0.1043930E+01  0.7957747E-01            NaN
         13   -1    0    0    0    0  0.00000000000E+00  0.00000000000E+00  0.74505805969E-08  0.10566000000E+00  0.10566000000E+00 0. -1.
     999900   -1    0    0    0    0 -0.00000000000E+00 -0.00000000000E+00 -0.74505805969E-08  0.93827000000E+00  0.93827000000E+00 0. -1.
     999902    2    1    2    0    0 -0.48178365090E-02  0.19868223889E-01  0.12210343203E-01  0.10201171810E+01  0.10198392092E+01 0.  0.
     999903    2    3    3    0    0 -0.72168691040E-01  0.10794273073E+00 -0.18089600180E-01  0.13264248109E+00  0.20170301702E-01 0.  0.
         14    1    1    2    0    0  0.48178365090E-02 -0.19868223889E-01 -0.12210343203E-01  0.23812819032E-01  0.00000000000E+00 0.  1.
     999901    1    3    3    0    0  0.67350854531E-01 -0.88074506839E-01  0.30299943383E-01  0.88747469988E+00  0.88000000000E+00 0.  1.
        -11    1    4    4    0    0 -0.43287057553E-01  0.48775064394E-01 -0.41959298340E-02  0.65350158427E-01  0.51100000000E-03 0.  1.
         11    1    4    4    0    0 -0.28881633487E-01  0.59167666333E-01 -0.13893670346E-01  0.67292322659E-01  0.51100000000E-03 0. -1.
</event>
<event>
 8    1  0.1054086E+005  0.1043930E+01  0.7957747E-01            NaN
         13   -1    0    0    0    0  0.00000000000E+00  0.00000000000E+00  0.74505805969E-08  0.10566000000E+00  0.10566000000E+00 0. -1.
     999900   -1    0    0    0    0 -0.00000000000E+00 -0.00000000000E+00 -0.74505805969E-08  0.93827000000E+00  0.93827000000E+00 0.  1.
     999902    2    1    2    0    0  0.92398751917E-02 -0.22317765411E-01  0.67219031332E-02  0.10188572672E+01  0.10185487171E+01 0.  0.
     999903    2    3    3    0    0 -0.10121918975E+00 -0.61863533212E-01  0.49368191978E-01  0.13004695073E+00  0.20064144628E-01 0.  0.
         14    1    1    2    0    0 -0.92398751917E-02  0.22317765411E-01 -0.67219031332E-02  0.25072732764E-01  0.00000000000E+00 0.  1.
     999901    1    3    3    0    0  0.11045906494E+00  0.39545767801E-01 -0.42646288844E-01  0.88881031651E+00  0.88000000000E+00 0.  1.
        -11    1    4    4    0    0 -0.67369614618E-01 -0.51051688733E-01  0.30928890686E-01  0.90009984426E-01  0.51100000000E-03 0.  1.
         11    1    4    4    0    0 -0.33849575131E-01 -0.10811844479E-01  0.18439301292E-01  0.40036966303E-01  0.51100000000E-03 0. -1.
</event>
<event>
 8    1  0.1054086E+005  0.1043930E+01  0.7957747E-01            NaN
         13   -1    0    0    0    0  0.00000000000E+00  0.00000000000E+00  0.74505805969E-08  0.10566000000E+00  0.10566000000E+00 0.  1.
     999900   -1    0    0    0    0 -0.00000000000E+00 -0.00000000000E+00 -0.74505805969E-08  0.93827000000E+00  0.93827000000E+00 0.  1.
     999902    2    1    2    0    0 -0.17734153932E-01  0.16414859815E-01 -0.16519619309E-02  0.10197085876E+01  0.10194208782E+01 0.  0.
     999903    2    3    3    0    0 -0.88850730227E-01  0.23510057610E-01  0.92328942818E-01  0.13182327989E+00  0.20138728099E-01 0.  0.
         14    1    1    2    0    0  0.17734153932E-01 -0.16414859815E-01  0.16519619309E-02  0.24221412359E-01  0.00000000000E+00 0. -1.
     999901    1    3    3    0    0  0.71116576295E-01 -0.70951977953E-02 -0.93980904749E-01  0.88788530775E+00  0.88000000000E+00 0.  1.
        -11    1    4    4    0    0 -0.74387376936E-01  0.17416955371E-01  0.65026021730E-01  0.10032684987E+00  0.51100000000E-03 0. -1.
         11    1    4    4    0    0 -0.14463353291E-01  0.60931022393E-02  0.27302921088E-01  0.31496430024E-01  0.51100000000E-03 0.  1.
</event>
<event>
 8    1  0.1054086E+005  0.1043930E+01  0.7957747E-01            NaN
         13   -1    0    0    0    0  0.00000000000E+00  0.00000000000E+00  0.74505805969E-08  0.10566000000E+00  0.10566000000E+00 0. -1.
     999900   -1    0    0    0    0 -0.00000000000E+00 -0.00000000000E+00 -0.74505805969E-08  0.93827000000E+00  0.93827000000E+00 0.  1.
     999902    2    1    2    0    0 -0.24050499011E-02  0.82761448399E-02 -0.22156124073E-01  0.10201566394E+01  0.10198795989E+01 0.  0.
     999903    2    3    3    0    0  0.12533150515E+00  0.28214163663E-01 -0.12741701449E-01  0.13066083650E+00  0.20146414691E-01 0.  0.
         14    1    1    2    0    0  0.24050499011E-02 -0.82761448399E-02  0.22156124073E-01  0.23773360561E-01  0.00000000000E+00 0. -1.
     999901    1    3    3    0    0 -0.12773655505E+00 -0.19938018823E-01 -0.94144226232E-02  0.88949580294E+00  0.88000000000E+00 0. -1.
        -11    1    4    4    0    0  0.17559499674E-01  0.93310081379E-02 -0.70293288637E-02  0.21096832154E-01  0.51100000000E-03 0. -1.
         11    1    4    4    0    0  0.10777200548E+00  0.18883155525E-01 -0.57123725857E-02  0.10956400435E+00  0.51100000000E-03 0.  1.
</event>
<event>
 7    1  0.1054086E+005  0.1043930E+01  0.7957747E-01            NaN
         13   -1    0    0    0    0  0.00000000000E+00  0.00000000000E+00  0.74505805969E-08  0.10566000000E+00  0.10566000000E+00 0.  1.
     999900   -1    0    0    0    0 -0.00000000000E+00 -0.00000000000E+00 -0.74505805969E-08  0.93827000000E+00  0.93827000000E+00 0. -1.
     999903    2    1    2    0    0  0.16603115576E-01 -0.41257664702E-01  0.53755118782E-01  0.72545092910E-01  0.19882639829E-01 0.  0.
         14    1    1    2    0    0 -0.32460677083E-01 -0.53258793641E-01  0.50246437541E-01  0.80093065507E-01  0.00000000000E+00 0.  1.
     999901    1    1    2    0    0  0.15857561507E-01  0.94516458343E-01 -0.10400155632E+00  0.89129184158E+00  0.88000000000E+00 0. -1.
        -11    1    3    3    0    0  0.12448240075E-01 -0.16946907134E-01  0.12472626218E-01  0.24453708679E-01  0.51100000000E-03 0.  1.
         11    1    3    3    0    0  0.41548755005E-02 -0.24310757568E-01  0.41282492565E-01  0.48091384232E-01  0.51100000000E-03 0. -1.
</event>
<event>
 8    1  0.1054086E+005  0.1043930E+01  0.7957747E-01            NaN
         13   -1    0    0    0    0  0.00000000000E+00  0.00000000000E+00  0.74505805969E-08  0.10566000000E+00  0.10566000000E+00 0.  1.
     999900   -1    0    0    0    0 -0.00000000000E+00 -0.00000000000E+00 -0.74505805969E-08  0.93827000000E+00  0.93827000000E+00 0. -1.
     999902    2    1    2    0    0  0.64823546315E-02 -0.45005344129E-02  0.22769175985E-01  0.10198320518E+01  0.10195473029E+01 0.  0.
     999903    2    3    3    0    0  0.11554387932E+00  0.41948724609E-02 -0.55000858954E-01  0.12965330314E+00  0.20418117589E-01 0.  0.
         14    1    1    2    0    0 -0.64823546315E-02  0.45005344129E-02 -0.22769175985E-01  0.24097948182E-01  0.00000000000E+00 0. -1.
     999901    1    3    3    0    0 -0.10906152469E+00 -0.86954068738E-02  0.77770034938E-01  0.89017874868E+00  0.88000000000E+00 0.  1.
        -11    1    4    4    0    0  0.10309608340E+00 -0.11757771930E-02 -0.53036219167E-01  0.11594518761E+00  0.51100000000E-03 0. -1.
         11    1    4    4    0    0  0.12447795918E-01  0.53706496539E-02 -0.19646397863E-02  0.13708115531E-01  0.51100000000E-03 0.  1.
</event>
<event>
 8    1  0.1054086E+005  0.1043930E+01  0.7957747E-01            NaN
         13   -1    0    0    0    0  0.00000000000E+00  0.00000000000E+00  0.74505805969E-08  0.10566000000E+00  0.10566000000E+00 0. -1.
     999900   -1    0    0    0    0 -0.00000000000E+00 -0.00000000000E+00 -0.74505805969E-08  0.93827000000E+00  0.93827000000E+00 0. -1.
     999902    2    1    2    0    0 -0.20807788777E-01 -0.10884198890E-01  0.76975872308E-02  0.10192180048E+01  0.10189183768E+01 0.  0.
     999903    2    3    3    0    0  0.22978793974E-01  0.11341940655E+00  0.51571552675E-01  0.12832318718E+00  0.20377157979E-01 0.  0.
         14    1    1    2    0    0  0.20807788777E-01  0.10884198890E-01 -0.76975872308E-02  0.24711995234E-01  0.00000000000E+00 0.  1.
     999901    1    3    3    0    0 -0.43786582751E-01 -0.12430360544E+00 -0.43873965445E-01  0.89089481758E+00  0.88000000000E+00 0. -1.
        -11    1    4    4    0    0  0.49063620067E-02  0.15955673814E-01  0.15653654208E-01  0.22890039888E-01  0.51100000000E-03 0.  1.
         11    1    4    4    0    0  0.18072431967E-01  0.97463732740E-01  0.35917898468E-01  0.10543314729E+00  0.51100000000E-03 0. -1.
</event>
<event>
 8    1  0.1054086E+005  0.1043930E+01  0.7957747E-01            NaN
         13   -1    0    0    0    0  0.00000000000E+00  0.00000000000E+00  0.74505805969E-08  0.10566000000E+00  0.10566000000E+00 0.  1.
     999900   -1    0    0    0    0 -0.00000000000E+00 -0.00000000000E+00 -0.74505805969E-08  0.93827000000E+00  0.93827000000E+00 0. -1.
     999902    2    1    2    0    0  0.76242884598E-02 -0.13005188159E-01 -0.19953328193E-01  0.10189220013E+01  0.10186150621E+01 0.  0.
     999903    2    3    3    0    0  0.78421450802E-01 -0.71158244970E-01  0.71618063799E-01  0.12943937861E+00  0.20297435798E-01 0.  0.
         14    1    1    2    0    0 -0.76242884598E-02  0.13005188159E-01  0.19953328193E-01  0.25007998712E-01  0.00000000000E+00 0.  1.
     999901    1    3    3    0    0 -0.70797162342E-01  0.58153056811E-01 -0.91571391993E-01  0.88948262268E+00  0.88000000000E+00 0. -1.
        -11    1    4    4    0    0  0.30834126135E-01 -0.15260017678E-01  0.22593506308E-01  0.41162350788E-01  0.51100000000E-03 0. -1.
         11    1    4    4    0    0  0.47587324666E-01 -0.55898227292E-01  0.49024557491E-01  0.88277027824E-01  0.51100000000E-03 0.  1.
</event>
<event>
 8    1  0.1054086E+005  0.1043930E+01  0.7957747E-01            NaN
         13   -1    0    0    0    0  0.00000000000E+00  0.00000000000E+00  0.74505805969E-08  0.10566000000E+00  0.10566000000E+00 0. -1.
     999900   -1    0    0    0    0 -0.00000000000E+00 -0.00000000000E+00 -0.74505805969E-08  0.93827000000E+00  0.93827000000E+00 0. -1.
     999902    2    1    2    0    0  0.12340933593E-01  0.30347034496E-02  0.20316054462E-01  0.10199664832E+01  0.10196849400E+01 0.  0.
     999903    2    3    3    0    0 -0.60410009310E-03 -0.90304346049E-01 -0.89563610338E-01  0.12814066347E+00  0.15593251284E-01 0.  0.
         14    1    1    2    0    0 -0.12340933593E-01 -0.30347034496E-02 -0.20316054462E-01  0.23963516768E-01  0.00000000000E+00 0.  1.
     999901    1    3    3    0    0  0.12945033686E-01  0.93339049498E-01  0.10987966480E+00  0.89182581976E+00  0.88000000000E+00 0. -1.
        -11    1    4    4    0    0  0.50878677934E-02 -0.66461579593E-01 -0.71003070854E-01  0.97389553610E-01  0.51100000000E-03 0. -1.
         11    1    4    4    0    0 -0.56919678865E-02 -0.23842766456E-01 -0.18560539483E-01  0.30751109860E-01  0.51100000000E-03 0.  1.
</event>
<event>
 8    1  0.1054086E+005  0.1043930E+01  0.7957747E-01            NaN
         13   -1    0    0    0    0  0.00000000000E+00  0.00000000000E+00  0.74505805969E-08  0.10566000000E+00  0.10566000000E+00 0. -1.
     999900   -1    0    0    0    0 -0.00000000000E+00 -0.00000000000E+00 -0.74505805969E-08  0.93827000000E+00  0.93827000000E+00 0. -1.
     999902    2    1    2    0    0  0.20843877230E-01  0.12894158204E-01  0.72144747935E-02  0.10183805346E+01  0.10180599875E+01 0.  0.
     999903    2    3    3    0    0  0.29614936984E-01  0.49833499550E-01  0.11562699279E+00  0.13091519983E+00  0.20217960179E-01 0.  0.
         14    1    1    2    0    0 -0.20843877230E-01 -0.12894158204E-01 -0.72144747935E-02  0.25549465363E-01  0.00000000000E+00 0.  1.
     999901    1    3    3    0    0 -0.87710597542E-02 -0.36939341345E-01 -0.10841251800E+00  0.88746533481E+00  0.88000000000E+00 0. -1.
        -11    1    4    4    0    0 -0.24776755787E-02  0.41282373534E-02  0.15824862289E-01  0.16548976022E-01  0.51100000000E-03 0.  1.
         11    1    4    4    0    0  0.32092612563E-01  0.45705262196E-01  0.99802130504E-01  0.11436622381E+00  0.51100000000E-03 0. -1.
</event>
<event>
 8    1  0.1054086E+005  0.1043930E+01  0.7957747E-01            NaN
         13   -1    0    0    0    0  0.00000000000E+00  0.00000000000E+00  0.74505805969E-08  0.10566000000E+00  0.10566000000E+00 0. -1.
     999900   -1    0    0    0    0 -0.00000000000E+00 -0.00000000000E+00 -0.74505805969E-08  0.93827000000E+00  0.93827000000E+00 0. -1.
     999902    2    1    2    0    0  0.21400371640E-01 -0.83997089857E-02 -0.54568886490E-02  0.10203014442E+01  0.10200278076E+01 0.  0.
     999903    2    3    3    0    0  0.10700442245E+00  0.58890347410E-01  0.46481437231E-01  0.13207084634E+00  0.19083107801E-01 0.  0.
         14    1    1    2    0    0 -0.21400371640E-01  0.83997089857E-02  0.54568886490E-02  0.23628555840E-01  0.00000000000E+00 0. -1.
     999901    1    3    3    0    0 -0.85604050814E-01 -0.67290056396E-01 -0.51938325880E-01  0.88823059782E+00  0.88000000000E+00 0. -1.
        -11    1    4    4    0    0  0.40639600754E-01  0.32759332328E-01  0.17109699856E-01  0.54934087361E-01  0.51100000000E-03 0. -1.
         11    1    4    4    0    0  0.66364821701E-01  0.26131015082E-01  0.29371737375E-01  0.77136758981E-01  0.51100000000E-03 0.  1.
</event>
<event>
 8    1  0.1054086E+005  0.1043930E+01  0.7957747E-01            NaN
         13   -1    0    0    0    0  0.00000000000E+00  0.00000000000E+00  0.74505805969E-08  0.10566000000E+00  0.10566000000E+00 0.  1.
     999900   -1    0    0    0    0 -0.00000000000E+00 -0.00000000000E+00 -0.74505805969E-08  0.93827000000E+00  0.93827000000E+00 0.  1.
     999902    2    1    2    0    0  0.11346134718E-01 -0.16861279958E-02 -0.19283789888E-01  0.10214924789E+01  0.10212460243E+01 0.  0.
     999903    2    3    3    0    0 -0.63273141898E-01  0.33590809671E-01 -0.11019102159E+00  0.13296750820E+00  0.20160952854E-01 0.  0.
         14    1    1    2    0    0 -0.11346134718E-01  0.16861279958E-02  0.19283789888E-01  0.22437521100E-01  0.00000000000E+00 0.  1.
     999901    1    3    3    0    0  0.74619276616E-01 -0.35276937667E-01  0.90907231698E-01  0.88852497070E+00  0.88000000000E+00 0. -1.
        -11    1    4    4    0    0 -0.48107824703E-01  0.28824539098E-01 -0.98054907789E-01  0.11296124519E+00  0.51100000000E-03 0.  1.
         11    1    4    4    0    0 -0.15165317195E-01  0.47662705727E-02 -0.12136113797E-01  0.20006263017E-01  0.51100000000E-03 0. -1.
</event>
<event>
 8    1  0.1054086E+005  0.1043930E+01  0.7957747E-01            NaN
         13   -1    0    0    0    0  0.00000000000E+00  0.00000000000E+00  0.74505805969E-08  0.10566000000E+00  0.10566000000E+00 0. -1.
     999900   -1    0    0    0    0 -0.00000000000E+00 -0.00000000000E+00 -0.74505805969E-08  0.93827000000E+00  0.93827000000E+00 0. -1.
     999902    2    1    2    0    0  0.75002894888E-02 -0.39143583353E-02  0.21989768030E-01  0.10203688786E+01  0.10200968199E+01 0.  0.
     999903    2    3    3    0    0  0.92011667014E-01  0.55106945441E-01  0.75596719624E-01  0.13273190749E+00  0.19999323600E-01 0.  0.
         14    1    1    2    0    0 -0.75002894888E-02  0.39143583353E-02 -0.21989768030E-01  0.23561121399E-01  0.00000000000E+00 0.  1.
     999901    1    3    3    0    0 -0.84511377525E-01 -0.59021303776E-01 -0.53606951594E-01  0.88763697111E+00  0.88000000000E+00 0. -1.
        -11    1    4    4    0    0  0.47245929081E-01  0.18381067162E-01  0.41626117175E-01  0.65597531941E-01  0.51100000000E-03 0. -1.
         11    1    4    4    0    0  0.44765737933E-01  0.36725878278E-01  0.33970602449E-01  0.67134375544E-01  0.51100000000E-03 0.  1.
</event>
<event>
 8    1  0.1054086E+005  0.1043930E+01  0.7957747E-01            NaN
         13   -1    0    0    0    0  0.00000000000E+00  0.00000000000E+00  0.74505805969E-08  0.10566000000E+00  0.10566000000E+00 0.  1.
     999900   -1    0    0    0    0 -0.00000000000E+00 -0.00000000000E+00 -0.74505805969E-08  0.93827000000E+00  0.93827000000E+00 0. -1.
     999902    2    1    2    0    0 -0.53145032907E-02 -0.22727451235E-01  0.53545520540E-02  0.10199831377E+01  0.10197019903E+01 0.  0.
     999903    2    3    3    0    0 -0.17221693872E-01 -0.11011379414E+00 -0.68835795743E-01  0.13246842697E+00  0.19694744668E-01 0.  0.
         14    1    1    2    0    0  0.53145032907E-02  0.22727451235E-01 -0.53545520540E-02  0.23946862270E-01  0.00000000000E+00 0. -1.
     999901    1    3    3    0    0  0.11907190582E-01  0.87386342907E-01  0.74190347797E-01  0.88751471076E+00  0.88000000000E+00 0.  1.
        -11    1    4    4    0    0 -0.14409755866E-01 -0.37351247897E-01 -0.29262044133E-01  0.49591179976E-01  0.51100000000E-03 0. -1.
         11    1    4    4    0    0 -0.28119380060E-02 -0.72762546245E-01 -0.39573751611E-01  0.82877246991E-01  0.51100000000E-03 0.  1.
</event>
<event>
 8    1  0.1054086E+005  0.1043930E+01  0.7957747E-01            NaN
         13   -1    0    0    0    0  0.00000000000E+00  0.00000000000E+00  0.74505805969E-08  0.10566000000E+00  0.10566000000E+00 0.  1.
     999900   -1    0    0    0    0 -0.00000000000E+00 -0.00000000000E+00 -0.74505805969E-08  0.93827000000E+00  0.93827000000E+00 0.  1.
     999902    2    1    2    0    0  0.19517442002E-01 -0.10045851909E-01 -0.94621381449E-02  0.10200264074E+01  0.10197462871E+01 0.  0.
     999903    2    3    3    0    0 -0.38354675549E-01 -0.11654957481E+00 -0.41819017714E-01  0.13112866710E+00  0.19774037730E-01 0.  0.
         14    1    1    2    0    0 -0.19517442002E-01  0.10045851909E-01  0.94621381449E-02  0.23903592641E-01  0.00000000000E+00 0.  1.
     999901    1    3    3    0    0  0.57872117551E-01  0.10650372290E+00  0.32356879569E-01  0.88889774026E+00  0.88000000000E+00 0. -1.
        -11    1    4    4    0    0 -0.12706349771E-01 -0.30232490801E-01 -0.25713442878E-02  0.32898750082E-01  0.51100000000E-03 0.  1.
         11    1    4    4    0    0 -0.25648325779E-01 -0.86317084008E-01 -0.39247673427E-01  0.98229917018E-01  0.51100000000E-03 0. -1.
</event>
<event>
 8    1  0.1054086E+005  0.1043930E+01  0.7957747E-01            NaN
         13   -1    0    0    0    0  0.00000000000E+00  0.00000000000E+00  0.74505805969E-08  0.10566000000E+00  0.10566000000E+00 0.  1.
     999900   -1    0    0    0    0 -0.00000000000E+00 -0.00000000000E+00 -0.74505805969E-08  0.93827000000E+00  0.93827000000E+00 0. -1.
     999902    2    1    2    0    0  0.23432620879E-01 -0.31302381611E-02  0.95822035339E-03  0.10202698162E+01  0.10199954380E+01 0.  0.
     999903    2    3    3    0    0  0.11445452487E+00 -0.63299396015E-01 -0.16945709208E-01  0.13335050460E+00  0.19711626426E-01 0.  0.
         14    1    1    2    0    0 -0.23432620879E-01  0.31302381611E-02 -0.95822035339E-03  0.23660183821E-01  0.00000000000E+00 0. -1.
     999901    1    3    3    0    0 -0.91021903992E-01  0.60169157854E-01  0.17903929562E-01  0.88691931158E+00  0.88000000000E+00 0. -1.
        -11    1    4    4    0    0  0.36499469402E-01 -0.27013627682E-01 -0.13157502876E-01  0.47279259196E-01  0.51100000000E-03 0.  1.
         11    1    4    4    0    0  0.77955055469E-01 -0.36285768333E-01 -0.37882063325E-02  0.86071245401E-01  0.51100000000E-03 0. -1.
</event>
<event>
 8    1  0.1451032E+005  0.1043930E+01  0.7957747E-01            NaN
         13   -1    0    0    0    0  0.00000000000E+00  0.00000000000E+00  0.74505805969E-08  0.10566000000E+00  0.10566000000E+00 0. -1.
     999900   -1    0    0    0    0 -0.00000000000E+00 -0.00000000000E+00 -0.74505805969E-08  0.93827000000E+00  0.93827000000E+00 0.  1.
     999902    2    1    2    0    0 -0.10525580889E-01 -0.81249332040E-02 -0.27838171302E-01  0.10130792922E+01  0.10126094440E+01 0.  0.
     999903    2    3    3    0    0  0.23259432730E-01 -0.46844577299E-01 -0.11444180127E+00  0.12733619921E+00  0.19549069521E-01 0.  0.
         14    1    1    2    0    0  0.10525580889E-01  0.81249332040E-02  0.27838171302E-01  0.30850707837E-01  0.00000000000E+00 0. -1.
     999901    1    3    3    0    0 -0.33785013619E-01  0.38719644095E-01  0.86603629968E-01  0.88574309295E+00  0.88000000000E+00 0. -1.
        -11    1    4    4    0    0  0.15011631650E-01 -0.10596160669E-01 -0.32108402337E-01  0.36997815170E-01  0.51100000000E-03 0. -1.
         11    1    4    4    0    0  0.82478010795E-02 -0.36248416629E-01 -0.82333398933E-01  0.90338384043E-01  0.51100000000E-03 0.  1.
</event>
<event>
 8    1  0.1054086E+005  0.1043930E+01  0.7957747E-01            NaN
         13   -1    0    0    0    0  0.00000000000E+00  0.00000000000E+00  0.74505805969E-08  0.10566000000E+00  0.10566000000E+00 0.  1.
     999900   -1    0    0    0    0 -0.00000000000E+00 -0.00000000000E+00 -0.74505805969E-08  0.93827000000E+00  0.93827000000E+00 0.  1.
     999902    2    1    2    0    0 -0.81005809099E-02  0.30487968699E-01  0.20208736993E-01  0.10064663016E+01  0.10057688042E+01 0.  0.
     999903    2    3    3    0    0  0.17297076506E-01 -0.22378765295E-01 -0.10942490004E+00  0.11503777816E+00  0.21444898331E-01 0.  0.
         14    1    1    2    0    0  0.81005809099E-02 -0.30487968699E-01 -0.20208736993E-01  0.37463698393E-01  0.00000000000E+00 0. -1.
     999901    1    3    3    0    0 -0.25397657416E-01  0.52866733993E-01  0.12963363703E+00  0.89142852345E+00  0.88000000000E+00 0.  1.
        -11    1    4    4    0    0 -0.27259448978E-02  0.23714998146E-02 -0.11916975329E-01  0.12463154053E-01  0.51100000000E-03 0. -1.
         11    1    4    4    0    0  0.20023021404E-01 -0.24750265109E-01 -0.97507924707E-01  0.10257462411E+00  0.51100000000E-03 0.  1.
</event>
<event>
 8    1  0.1054086E+005  0.1043930E+01  0.7957747E-01            NaN
         13   -1    0    0    0    0  0.00000000000E+00  0.00000000000E+00  0.74505805969E-08  0.10566000000E+00  0.10566000000E+00 0.  1.
     999900   -1    0    0    0    0 -0.00000000000E+00 -0.00000000000E+00 -0.74505805969E-08  0.93827000000E+00  0.93827000000E+00 0. -1.
     999902    2    1    2    0    0 -0.10656131910E-01  0.16468485780E-01 -0.11871617994E-01  0.10210018626E+01  0.10207443872E+01 0.  0.
     999903    2    3    3    0    0 -0.38288190796E-01  0.79812462468E-01  0.95575084333E-01  0.13177704068E+00  0.19863961995E-01 0.  0.
         14    1    1    2    0    0  0.10656131910E-01 -0.16468485780E-01  0.11871617994E-01  0.22928137407E-01  0.00000000000E+00 0.  1.
     999901    1    3    3    0    0  0.27632058886E-01 -0.63343976688E-01 -0.10744670233E+00  0.88922482191E+00  0.88000000000E+00 0.  1.
        -11    1    4    4    0    0 -0.13502117936E-01  0.41467154411E-01  0.58448132019E-01  0.72926520150E-01  0.51100000000E-03 0.  1.
         11    1    4    4    0    0 -0.24786072860E-01  0.38345308057E-01  0.37126952314E-01  0.58850520532E-01  0.51100000000E-03 0. -1.
</event>
<event>
 8    1  0.1054086E+005  0.1043930E+01  0.7957747E-01            NaN
         13   -1    0    0    0    0  0.00000000000E+00  0.00000000000E+00  0.74505805969E-08  0.10566000000E+00  0.10566000000E+00 0.  1.
     999900   -1    0    0    0    0 -0.00000000000E+00 -0.00000000000E+00 -0.74505805969E-08  0.93827000000E+00  0.93827000000E+00 0.  1.
     999902    2    1    2    0    0 -0.14557574964E-01 -0.15678540612E-01 -0.13505160951E-01  0.10186292293E+01  0.10183149699E+01 0.  0.
     999903    2    3    3    0    0  0.28086798455E-01  0.71115626938E-01 -0.10193333279E+00  0.12892629481E+00  0.19628665719E-01 0.  0.
         14    1    1    2    0    0  0.14557574964E-01  0.15678540612E-01  0.13505160951E-01  0.25300770677E-01  0.00000000000E+00 0.  1.
     999901    1    3    3    0    0 -0.42644373420E-01 -0.86794167550E-01  0.88428171838E-01  0.88970293451E+00  0.88000000000E+00 0. -1.
        -11    1    4    4    0    0  0.17962739376E-01  0.42277141838E-01 -0.76165218982E-01  0.88946154676E-01  0.51100000000E-03 0. -1.
         11    1    4    4    0    0  0.10124059079E-01  0.28838485100E-01 -0.25768113806E-01  0.39980140135E-01  0.51100000000E-03 0.  1.
</event>
<event>
 8    1  0.1054086E+005  0.1043930E+01  0.7957747E-01            NaN
         13   -1    0    0    0    0  0.00000000000E+00  0.00000000000E+00  0.74505805969E-08  0.10566000000E+00  0.10566000000E+00 0.  1.
     999900   -1    0    0    0    0 -0.00000000000E+00 -0.00000000000E+00 -0.74505805969E-08  0.93827000000E+00  0.93827000000E+00 0.  1.
     999902    2    1    2    0    0  0.20354349709E-01  0.14279255932E-01  0.43921497198E-02  0.10186814816E+01  0.10183685351E+01 0.  0.
     999903    2    3    3    0    0  0.69673814447E-01 -0.88248330797E-01 -0.60122380692E-01  0.12901500462E+00  0.19696762367E-01 0.  0.
         14    1    1    2    0    0 -0.20354349709E-01 -0.14279255932E-01 -0.43921497198E-02  0.25248518397E-01  0.00000000000E+00 0. -1.
     999901    1    3    3    0    0 -0.49319464738E-01  0.10252758673E+00  0.64514530411E-01  0.88966647699E+00  0.88000000000E+00 0. -1.
        -11    1    4    4    0    0  0.45844146416E-01 -0.50249838118E-01 -0.26689052203E-01  0.73070504446E-01  0.51100000000E-03 0.  1.
         11    1    4    4    0    0  0.23829668031E-01 -0.37998492679E-01 -0.33433328488E-01  0.55944500169E-01  0.51100000000E-03 0. -1.
</event>
<event>
 8    1  0.1054086E+005  0.1043930E+01  0.7957747E-01            NaN
         13   -1    0    0    0    0  0.00000000000E+00  0.00000000000E+00  0.74505805969E-08  0.10566000000E+00  0.10566000000E+00 0. -1.
     999900   -1    0    0    0    0 -0.00000000000E+00 -0.00000000000E+00 -0.74505805969E-08  0.93827000000E+00  0.93827000000E+00 0.  1.
     999902    2    1    2    0    0  0.18824370879E-01  0.81006903936E-02  0.12155207217E-01  0.10201029736E+01  0.10198246661E+01 0.  0.
     999903    2    3    3    0    0  0.90354507862E-01 -0.22268650454E-01 -0.89730101267E-01  0.13082266154E+00  0.20081031223E-01 0.  0.
         14    1    1    2    0    0 -0.18824370879E-01 -0.81006903936E-02 -0.12155207217E-01  0.23827026385E-01  0.00000000000E+00 0.  1.
     999901    1    3    3    0    0 -0.71530136983E-01  0.30369340848E-01  0.10188530848E+00  0.88928031208E+00  0.88000000000E+00 0. -1.
        -11    1    4    4    0    0  0.70519133349E-01 -0.16985626424E-01 -0.57302142698E-01  0.92440555775E-01  0.51100000000E-03 0.  1.
         11    1    4    4    0    0  0.19835374513E-01 -0.52830240299E-02 -0.32427958568E-01  0.38382105764E-01  0.51100000000E-03 0. -1.
</event>
<event>
 8    1  0.1148148E+005  0.1043930E+01  0.7957747E-01            NaN
         13   -1    0    0    0    0  0.00000000000E+00  0.00000000000E+00  0.74505805969E-08  0.10566000000E+00  0.10566000000E+00 0.  1.
     999900   -1    0    0    0    0 -0.00000000000E+00 -0.00000000000E+00 -0.74505805969E-08  0.93827000000E+00  0.93827000000E+00 0.  1.
     999902    2    1    2    0    0  0.13700409214E-01 -0.10006086670E-01  0.12837583081E-01  0.10226549789E+01  0.10224336552E+01 0.  0.
     999903    2    3    3    0    0 -0.31224664033E-01  0.11930022371E+00  0.41276143093E-01  0.13161786644E+00  0.20298269783E-01 0.  0.
         14    1    1    2    0    0 -0.13700409214E-01  0.10006086670E-01 -0.12837583081E-01  0.21275021091E-01  0.00000000000E+00 0. -1.
     999901    1    3    3    0    0  0.44925073248E-01 -0.12930631038E+00 -0.28438560012E-01  0.89103711247E+00  0.88000000000E+00 0. -1.
        -11    1    4    4    0    0 -0.26607033385E-01  0.64374352757E-01  0.19356363897E-01  0.72297451288E-01  0.51100000000E-03 0. -1.
         11    1    4    4    0    0 -0.46176306483E-02  0.54925870948E-01  0.21919779196E-01  0.59320415147E-01  0.51100000000E-03 0.  1.
</event>
<event>
 8    1  0.1054086E+005  0.1043930E+01  0.7957747E-01            NaN
         13   -1    0    0    0    0  0.00000000000E+00  0.00000000000E+00  0.74505805969E-08  0.10566000000E+00  0.10566000000E+00 0. -1.
     999900   -1    0    0    0    0 -0.00000000000E+00 -0.00000000000E+00 -0.74505805969E-08  0.93827000000E+00  0.93827000000E+00 0. -1.
     999902    2    1    2    0    0  0.18693165938E-01  0.61589600291E-03 -0.10816752265E-01  0.10223240770E+01  0.10220957403E+01 0.  0.
     999903    2    3    3    0    0 -0.11686611890E-01 -0.14164402749E-01 -0.13074652168E+00  0.13354708709E+00  0.20073971611E-01 0.  0.
         14    1    1    2    0    0 -0.18693165938E-01 -0.61589600291E-03  0.10816752265E-01  0.21605923036E-01  0.00000000000E+00 0. -1.
     999901    1    3    3    0    0  0.30379777828E-01  0.14780298752E-01  0.11992976942E+00  0.88877698987E+00  0.88000000000E+00 0.  1.
        -11    1    4    4    0    0  0.15681511462E-02 -0.73906231572E-03 -0.67992289787E-01  0.68016306152E-01  0.51100000000E-03 0. -1.
         11    1    4    4    0    0 -0.13254763036E-01 -0.13425340434E-01 -0.62754231895E-01  0.65530780940E-01  0.51100000000E-03 0.  1.
</event>
<event>
 8    1  0.1054086E+005  0.1043930E+01  0.7957747E-01            NaN
         13   -1    0    0    0    0  0.00000000000E+00  0.00000000000E+00  0.74505805969E-08  0.10566000000E+00  0.10566000000E+00 0. -1.
     999900   -1    0    0    0    0 -0.00000000000E+00 -0.00000000000E+00 -0.74505805969E-08  0.93827000000E+00  0.93827000000E+00 0. -1.
     999902    2    1    2    0    0 -0.80938172923E-02  0.13549889534E-01  0.19181162568E-01  0.10190899843E+01  0.10187872053E+01 0.  0.
     999903    2    3    3    0    0  0.10859836499E+00 -0.34209014625E-03 -0.63694085102E-01  0.12741831868E+00  0.19615543697E-01 0.  0.
         14    1    1    2    0    0  0.80938172923E-02 -0.13549889534E-01 -0.19181162568E-01  0.24840015745E-01  0.00000000000E+00 0.  1.
     999901    1    3    3    0    0 -0.11669218228E+00  0.13891979680E-01  0.82875247670E-01  0.89167166557E+00  0.88000000000E+00 0. -1.
        -11    1    4    4    0    0  0.38858239576E-01 -0.71214376687E-02 -0.15838876423E-01  0.42565347229E-01  0.51100000000E-03 0.  1.
         11    1    4    4    0    0  0.69740125417E-01  0.67793475225E-02 -0.47855208679E-01  0.84852971455E-01  0.51100000000E-03 0. -1.
</event>
<event>
 8    1  0.1054086E+005  0.1043930E+01  0.7957747E-01            NaN
         13   -1    0    0    0    0  0.00000000000E+00  0.00000000000E+00  0.74505805969E-08  0.10566000000E+00  0.10566000000E+00 0. -1.
     999900   -1    0    0    0    0 -0.00000000000E+00 -0.00000000000E+00 -0.74505805969E-08  0.93827000000E+00  0.93827000000E+00 0. -1.
     999902    2    1    2    0    0 -0.82649367367E-02  0.15576359000E-01  0.16824046549E-01  0.10195582811E+01  0.10192669463E+01 0.  0.
     999903    2    3    3    0    0  0.92814952724E-01  0.28860212705E-01  0.85935306697E-01  0.13098078247E+00  0.17987804565E-01 0.  0.
         14    1    1    2    0    0  0.82649367367E-02 -0.15576359000E-01 -0.16824046549E-01  0.24371718881E-01  0.00000000000E+00 0.  1.
     999901    1    3    3    0    0 -0.10107988946E+00 -0.13283853705E-01 -0.69111260149E-01  0.88857749865E+00  0.88000000000E+00 0. -1.
        -11    1    4    4    0    0  0.59444953733E-01  0.10429349387E-01  0.47087778716E-01  0.76550596851E-01  0.51100000000E-03 0.  1.
         11    1    4    4    0    0  0.33369998992E-01  0.18430863318E-01  0.38847527982E-01  0.54430185620E-01  0.51100000000E-03 0. -1.
</event>
<event>
 8    1  0.1054086E+005  0.1043930E+01  0.7957747E-01            NaN
         13   -1    0    0    0    0  0.00000000000E+00  0.00000000000E+00  0.74505805969E-08  0.10566000000E+00  0.10566000000E+00 0.  1.
     999900   -1    0    0    0    0 -0.00000000000E+00 -0.00000000000E+00 -0.74505805969E-08  0.93827000000E+00  0.93827000000E+00 0.  1.
     999902    2    1    2    0    0  0.42109668884E-02  0.16988469792E-01 -0.14897412458E-01  0.10209458044E+01  0.10206870541E+01 0.  0.
     999903    2    3    3    0    0 -0.11050414996E+00  0.52395918114E-02 -0.68653553909E-01  0.13179603251E+00  0.20451485021E-01 0.  0.
         14    1    1    2    0    0 -0.42109668884E-02 -0.16988469792E-01  0.14897412458E-01  0.22984195569E-01  0.00000000000E+00 0.  1.
     999901    1    3    3    0    0  0.11471511685E+00  0.11748877981E-01  0.53756141452E-01  0.88914977192E+00  0.88000000000E+00 0. -1.
        -11    1    4    4    0    0 -0.92836623807E-01  0.10036173901E-01 -0.51187299304E-01  0.10648832911E+00  0.51100000000E-03 0.  1.
         11    1    4    4    0    0 -0.17667526153E-01 -0.47965820895E-02 -0.17466254605E-01  0.25307703393E-01  0.51100000000E-03 0. -1.
</event>
<event>
 8    1  0.1054086E+005  0.1043930E+01  0.7957747E-01            NaN
         13   -1    0    0    0    0  0.00000000000E+00  0.00000000000E+00  0.74505805969E-08  0.10566000000E+00  0.10566000000E+00 0.  1.
     999900   -1    0    0    0    0 -0.00000000000E+00 -0.00000000000E+00 -0.74505805969E-08  0.93827000000E+00  0.93827000000E+00 0.  1.
     999902    2    1    2    0    0  0.99189947216E-03  0.15356638161E-01 -0.26944949045E-01  0.10129003291E+01  0.10124249286E+01 0.  0.
     999903    2    3    3    0    0  0.29169516957E-01  0.10080830847E+00  0.62577400335E-01  0.12379391409E+00  0.19895385346E-01 0.  0.
         14    1    1    2    0    0 -0.99189947216E-03 -0.15356638161E-01  0.26944949045E-01  0.31029670949E-01  0.00000000000E+00 0.  1.
     999901    1    3    3    0    0 -0.28177617485E-01 -0.85451670305E-01 -0.89522349380E-01  0.88910641496E+00  0.88000000000E+00 0. -1.
        -11    1    4    4    0    0  0.18983550500E-01  0.76689678403E-01  0.55862572243E-01  0.96760374440E-01  0.51100000000E-03 0.  1.
         11    1    4    4    0    0  0.10185966457E-01  0.24118630062E-01  0.67148280917E-02  0.27033539650E-01  0.51100000000E-03 0. -1.
</event>
<event>
 8    1  0.1054086E+005  0.1043930E+01  0.7957747E-01            NaN
         13   -1    0    0    0    0  0.00000000000E+00  0.00000000000E+00  0.74505805969E-08  0.10566000000E+00  0.10566000000E+00 0.  1.
     999900   -1    0    0    0    0 -0.00000000000E+00 -0.00000000000E+00 -0.74505805969E-08  0.93827000000E+00  0.93827000000E+00 0.  1.
     999902    2    1    2    0    0  0.68846259807E-02 -0.98765581436E-02 -0.19157107035E-01  0.10213039260E+01  0.10210532650E+01 0.  0.
     999903    2    3    3    0    0  0.36712331752E-01  0.11992959622E+00 -0.32616186499E-01  0.13118007136E+00  0.20334506322E-01 0.  0.
         14    1    1    2    0    0 -0.68846259807E-02  0.98765581436E-02  0.19157107035E-01  0.22626074021E-01  0.00000000000E+00 0.  1.
     999901    1    3    3    0    0 -0.29827705771E-01 -0.12980615437E+00  0.13459079465E-01  0.89012385462E+00  0.88000000000E+00 0. -1.
        -11    1    4    4    0    0  0.30365150711E-01  0.11375752121E+00 -0.27385838233E-01  0.12088449556E+00  0.51100000000E-03 0. -1.
         11    1    4    4    0    0  0.63471810403E-02  0.61720750156E-02 -0.52303482665E-02  0.10295575804E-01  0.51100000000E-03 0.  1.
</event>
<event>
 8    1  0.1054086E+005  0.1043930E+01  0.7957747E-01            NaN
         13   -1    0    0    0    0  0.00000000000E+00  0.00000000000E+00  0.74505805969E-08  0.10566000000E+00  0.10566000000E+00 0.  1.
     999900   -1    0    0    0    0 -0.00000000000E+00 -0.00000000000E+00 -0.74505805969E-08  0.93827000000E+00  0.93827000000E+00 0.  1.
     999902    2    1    2    0    0 -0.19105734985E-01 -0.10927961600E-01  0.97915371670E-02  0.10198400923E+01  0.10195555356E+01 0.  0.
     999903    2    3    3    0    0  0.83361122738E-01  0.14094801269E-01 -0.93085928380E-01  0.12759048117E+00  0.21600940193E-01 0.  0.
         14    1    1    2    0    0  0.19105734985E-01  0.10927961600E-01 -0.97915371670E-02  0.24089907724E-01  0.00000000000E+00 0. -1.
     999901    1    3    3    0    0 -0.10246685772E+00 -0.25022762869E-01  0.10287746555E+00  0.89224961110E+00  0.88000000000E+00 0. -1.
        -11    1    4    4    0    0  0.33194161833E-01  0.10623651191E-01 -0.52248608934E-01  0.62808380022E-01  0.51100000000E-03 0. -1.
         11    1    4    4    0    0  0.50166960905E-01  0.34711500785E-02 -0.40837319445E-01  0.64782101153E-01  0.51100000000E-03 0.  1.
</event>
<event>
 8    1  0.1054086E+005  0.1043930E+01  0.7957747E-01            NaN
         13   -1    0    0    0    0  0.00000000000E+00  0.00000000000E+00  0.74505805969E-08  0.10566000000E+00  0.10566000000E+00 0. -1.
     999900   -1    0    0    0    0 -0.00000000000E+00 -0.00000000000E+00 -0.74505805969E-08  0.93827000000E+00  0.93827000000E+00 0.  1.
     999902    2    1    2    0    0  0.99400457588E-02  0.14066096919E-01 -0.16804751666E-01  0.10198663496E+01  0.10195824203E+01 0.  0.
     999903    2    3    3    0    0 -0.98150090768E-01  0.80947967266E-01 -0.26247381998E-01  0.13068367688E+00  0.14257791491E-01 0.  0.
         14    1    1    2    0    0 -0.99400457588E-02 -0.14066096919E-01  0.16804751666E-01  0.24063650404E-01  0.00000000000E+00 0. -1.
     999901    1    3    3    0    0  0.10809013653E+00 -0.66881870347E-01  0.94426303324E-02  0.88918267272E+00  0.88000000000E+00 0. -1.
        -11    1    4    4    0    0 -0.34466829522E-01  0.33729169073E-01 -0.42861731143E-02  0.48417471894E-01  0.51100000000E-03 0.  1.
         11    1    4    4    0    0 -0.63683261246E-01  0.47218798193E-01 -0.21961208884E-01  0.82266204983E-01  0.51100000000E-03 0. -1.
</event>
<event>
 8    1  0.1054086E+005  0.1043930E+01  0.7957747E-01            NaN
         13   -1    0    0    0    0  0.00000000000E+00  0.00000000000E+00  0.74505805969E-08  0.10566000000E+00  0.10566000000E+00 0. -1.
     999900   -1    0    0    0    0 -0.00000000000E+00 -0.00000000000E+00 -0.74505805969E-08  0.93827000000E+00  0.93827000000E+00 0.  1.
     999902    2    1    2    0    0 -0.30985097944E-03  0.23519085429E-01  0.20944240831E-02  0.10203158094E+01  0.10200425093E+01 0.  0.
     999903    2    3    3    0    0  0.29576524069E-01 -0.11650653197E+00 -0.38159602658E-01  0.12783569440E+00  0.20910923481E-01 0.  0.
         14    1    1    2    0    0  0.30985097944E-03 -0.23519085429E-01 -0.20944240831E-02  0.23614190634E-01  0.00000000000E+00 0.  1.
     999901    1    3    3    0    0 -0.29886375048E-01  0.14002561740E+00  0.40254026741E-01  0.89248011497E+00  0.88000000000E+00 0. -1.
        -11    1    4    4    0    0 -0.24278313596E-02 -0.14565503809E-01 -0.14016849582E-02  0.14841634278E-01  0.51100000000E-03 0.  1.
         11    1    4    4    0    0  0.32004355428E-01 -0.10194102816E+00 -0.36757917700E-01  0.11299406012E+00  0.51100000000E-03 0. -1.
</event>
<event>
 8    1  0.1054086E+005  0.1043930E+01  0.7957747E-01            NaN
         13   -1    0    0    0    0  0.00000000000E+00  0.00000000000E+00  0.74505805969E-08  0.10566000000E+00  0.10566000000E+00 0.  1.
     999900   -1    0    0    0    0 -0.00000000000E+00 -0.00000000000E+00 -0.74505805969E-08  0.93827000000E+00  0.93827000000E+00 0.  1.
     999902    2    1    2    0    0  0.63284289343E-02  0.15719487076E-01  0.16923761482E-01  0.10199807831E+01  0.10196995797E+01 0.  0.
     999903    2    3    3    0    0 -0.11055121347E+00 -0.73786711739E-02  0.66169934764E-01  0.13058797827E+00  0.19968580667E-01 0.  0.
         14    1    1    2    0    0 -0.63284289343E-02 -0.15719487076E-01 -0.16923761482E-01  0.23949216885E-01  0.00000000000E+00 0. -1.
     999901    1    3    3    0    0  0.11687964241E+00  0.23098158250E-01 -0.49246173281E-01  0.88939280484E+00  0.88000000000E+00 0.  1.
        -11    1    4    4    0    0 -0.97231745902E-01 -0.75251645063E-02  0.49881269228E-01  0.10954014174E+00  0.51100000000E-03 0.  1.
         11    1    4    4    0    0 -0.13319467572E-01  0.14649333235E-03  0.16288665535E-01  0.21047836530E-01  0.51100000000E-03 0. -1.
</event>
<event>
 8    1  0.1054086E+005  0.1043930E+01  0.7957747E-01            NaN
         13   -1    0    0    0    0  0.00000000000E+00  0.00000000000E+00  0.74505805969E-08  0.10566000000E+00  0.10566000000E+00 0.  1.
     999900   -1    0    0    0    0 -0.00000000000E+00 -0.00000000000E+00 -0.74505805969E-08  0.93827000000E+00  0.93827000000E+00 0. -1.
     999902    2    1    2    0    0  0.16187937235E-01  0.19314724729E-01 -0.21464043747E-03  0.10187277387E+01  0.10184159522E+01 0.  0.
     999903    2    3    3    0    0 -0.11165545226E-01 -0.95629190724E-01 -0.80448227818E-01  0.12721343976E+00  0.21017382743E-01 0.  0.
         14    1    1    2    0    0 -0.16187937235E-01 -0.19314724729E-01  0.21464043747E-03  0.25202261284E-01  0.00000000000E+00 0.  1.
     999901    1    3    3    0    0  0.27353482461E-01  0.11494391545E+00  0.80233587381E-01  0.89151429896E+00  0.88000000000E+00 0.  1.
        -11    1    4    4    0    0 -0.11315142598E-01 -0.20708296028E-01 -0.20369929678E-01  0.31177894933E-01  0.51100000000E-03 0. -1.
         11    1    4    4    0    0  0.14959737201E-03 -0.74920894697E-01 -0.60078298140E-01  0.96035544826E-01  0.51100000000E-03 0.  1.
</event>
<event>
 8    1  0.1054086E+005  0.1043930E+01  0.7957747E-01            NaN
         13   -1    0    0    0    0  0.00000000000E+00  0.00000000000E+00  0.74505805969E-08  0.10566000000E+00  0.10566000000E+00 0.  1.
     999900   -1    0    0    0    0 -0.00000000000E+00 -0.00000000000E+00 -0.74505805969E-08  0.93827000000E+00  0.93827000000E+00 0. -1.
     999902    2    1    2    0    0 -0.17826208269E-01 -0.10495604627E-01  0.11451277187E-01  0.10202854834E+01  0.10200114727E+01 0.  0.
     999903    2    3    3    0    0  0.10610772945E+00  0.68892247335E-01  0.61074196870E-02  0.12804638493E+00  0.18803832800E-01 0.  0.
         14    1    1    2    0    0  0.17826208269E-01  0.10495604627E-01 -0.11451277187E-01  0.23644516636E-01  0.00000000000E+00 0. -1.
     999901    1    3    3    0    0 -0.12393393772E+00 -0.79387851961E-01  0.53438574999E-02  0.89223909843E+00  0.88000000000E+00 0.  1.
        -11    1    4    4    0    0  0.51363727605E-01  0.22923858200E-01 -0.53894880637E-03  0.56251998854E-01  0.51100000000E-03 0.  1.
         11    1    4    4    0    0  0.54744001842E-01  0.45968389135E-01  0.66463684934E-02  0.71794386079E-01  0.51100000000E-03 0. -1.
</event>
<event>
 8    1  0.1054086E+005  0.1043930E+01  0.7957747E-01            NaN
         13   -1    0    0    0    0  0.00000000000E+00  0.00000000000E+00  0.74505805969E-08  0.10566000000E+00  0.10566000000E+00 0. -1.
     999900   -1    0    0    0    0 -0.00000000000E+00 -0.00000000000E+00 -0.74505805969E-08  0.93827000000E+00  0.93827000000E+00 0.  1.
     999902    2    1    2    0    0  0.85811165945E-02  0.13961387989E-01  0.51042238980E-03  0.10275343772E+01  0.10274035623E+01 0.  0.
     999903    2    3    3    0    0 -0.12009766219E-01 -0.30684428397E-01 -0.13066845556E+00  0.13645349904E+00  0.21436965538E-01 0.  0.
         14    1    1    2    0    0 -0.85811165945E-02 -0.13961387989E-01 -0.51042238980E-03  0.16395622818E-01  0.00000000000E+00 0.  1.
     999901    1    3    3    0    0  0.20590882814E-01  0.44645816386E-01  0.13117887795E+00  0.89108087814E+00  0.88000000000E+00 0. -1.
        -11    1    4    4    0    0 -0.12654682221E-01 -0.26954643412E-01 -0.75628048145E-01  0.81280726933E-01  0.51100000000E-03 0.  1.
         11    1    4    4    0    0  0.64491600158E-03 -0.37297849850E-02 -0.55040407411E-01  0.55172772104E-01  0.51100000000E-03 0. -1.
</event>
<event>
 8    1  0.1054086E+005  0.1043930E+01  0.7957747E-01            NaN
         13   -1    0    0    0    0  0.00000000000E+00  0.00000000000E+00  0.74505805969E-08  0.10566000000E+00  0.10566000000E+00 0. -1.
     999900   -1    0    0    0    0 -0.00000000000E+00 -0.00000000000E+00 -0.74505805969E-08  0.93827000000E+00  0.93827000000E+00 0. -1.
     999902    2    1    2    0    0  0.35891693877E-02 -0.12738010845E-02 -0.23297854551E-01  0.10203229093E+01  0.10200497755E+01 0.  0.
     999903    2    3    3    0    0 -0.11778261114E+00  0.44310638959E-01 -0.29380591077E-01  0.13080278585E+00  0.20247800947E-01 0.  0.
         14    1    1    2    0    0 -0.35891693877E-02  0.12738010845E-02  0.23297854551E-01  0.23607090731E-01  0.00000000000E+00 0. -1.
     999901    1    3    3    0    0  0.12137178052E+00 -0.45584440044E-01  0.60827365264E-02  0.88952012342E+00  0.88000000000E+00 0.  1.
        -11    1    4    4    0    0 -0.44298089508E-01  0.25801209975E-01 -0.17030771942E-01  0.54021583503E-01  0.51100000000E-03 0. -1.
         11    1    4    4    0    0 -0.73484521629E-01  0.18509428984E-01 -0.12349819135E-01  0.76781202348E-01  0.51100000000E-03 0.  1.
</event>
<event>
 8    1  0.1054086E+005  0.1043930E+01  0.7957747E-01            NaN
         13   -1    0    0    0    0  0.00000000000E+00  0.00000000000E+00  0.74505805969E-08  0.10566000000E+00  0.10566000000E+00 0. -1.
     999900   -1    0    0    0    0 -0.00000000000E+00 -0.00000000000E+00 -0.74505805969E-08  0.93827000000E+00  0.93827000000E+00 0.  1.
     999902    2    1    2    0    0 -0.10436444253E-01 -0.95332572757E-02  0.19323887630E-01  0.10199880912E+01  0.10197070615E+01 0.  0.
     999903    2    3    3    0    0 -0.88851313473E-01  0.69408032259E-01 -0.60279654470E-01  0.12941673371E+00  0.20075442010E-01 0.  0.
         14    1    1    2    0    0  0.10436444253E-01  0.95332572757E-02 -0.19323887630E-01  0.23941908781E-01  0.00000000000E+00 0.  1.
     999901    1    3    3    0    0  0.78414869221E-01 -0.78941289535E-01  0.79603542101E-01  0.89057135751E+00  0.88000000000E+00 0. -1.
        -11    1    4    4    0    0 -0.63897148459E-01  0.37815840542E-01 -0.38339998139E-01  0.83564944536E-01  0.51100000000E-03 0. -1.
         11    1    4    4    0    0 -0.24954165015E-01  0.31592191718E-01 -0.21939656331E-01  0.45851789169E-01  0.51100000000E-03 0.  1.
</event>
<event>
 8    1  0.1175741E+005  0.1043930E+01  0.7957747E-01            NaN
         13   -1    0    0    0    0  0.00000000000E+00  0.00000000000E+00  0.74505805969E-08  0.10566000000E+00  0.10566000000E+00 0. -1.
     999900   -1    0    0    0    0 -0.00000000000E+00 -0.00000000000E+00 -0.74505805969E-08  0.93827000000E+00  0.93827000000E+00 0. -1.
     999902    2    1    2    0    0  0.16858785252E-01 -0.97404867049E-02  0.31948635844E-03  0.10244569984E+01  0.10242719091E+01 0.  0.
     999903    2    3    3    0    0 -0.12575994920E+00 -0.98146199738E-02  0.34839588968E-01  0.13230692892E+00  0.19479088613E-01 0.  0.
         14    1    1    2    0    0 -0.16858785252E-01  0.97404867049E-02 -0.31948635844E-03  0.19473001642E-01  0.00000000000E+00 0.  1.
     999901    1    3    3    0    0  0.14261873445E+00  0.74133268906E-04 -0.34520102609E-01  0.89215006944E+00  0.88000000000E+00 0. -1.
        -11    1    4    4    0    0 -0.36402962231E-01 -0.11670949876E-01  0.11716095222E-01  0.39986431929E-01  0.51100000000E-03 0. -1.
         11    1    4    4    0    0 -0.89356986968E-01  0.18563299019E-02  0.23123493746E-01  0.92320496991E-01  0.51100000000E-03 0.  1.
</event>
<event>
 8    1  0.1054086E+005  0.1043930E+01  0.7957747E-01            NaN
         13   -1    0    0    0    0  0.00000000000E+00  0.00000000000E+00  0.74505805969E-08  0.10566000000E+00  0.10566000000E+00 0. -1.
     999900   -1    0    0    0    0 -0.00000000000E+00 -0.00000000000E+00 -0.74505805969E-08  0.93827000000E+00  0.93827000000E+00 0.  1.
     999902    2    1    2    0    0  0.74295344710E-02  0.22909089416E-01 -0.47421527032E-03  0.10198416368E+01  0.10195571171E+01 0.  0.
     999903    2    3    3    0    0 -0.83216635531E-01  0.93694840284E-01 -0.35347686096E-01  0.13167301003E+00  0.19610995188E-01 0.  0.
         14    1    1    2    0    0 -0.74295344710E-02 -0.22909089416E-01  0.47421527032E-03  0.24088363175E-01  0.00000000000E+00 0. -1.
     999901    1    3    3    0    0  0.90646170002E-01 -0.70785750869E-01  0.34873470826E-01  0.88816862680E+00  0.88000000000E+00 0.  1.
        -11    1    4    4    0    0 -0.52847079852E-01  0.45604080006E-01 -0.16239790778E-01  0.71669644115E-01  0.51100000000E-03 0. -1.
         11    1    4    4    0    0 -0.30369555678E-01  0.48090760278E-01 -0.19107895318E-01  0.60003365911E-01  0.51100000000E-03 0.  1.
</event>
<event>
 8    1  0.1054086E+005  0.1043930E+01  0.7957747E-01            NaN
         13   -1    0    0    0    0  0.00000000000E+00  0.00000000000E+00  0.74505805969E-08  0.10566000000E+00  0.10566000000E+00 0.  1.
     999900   -1    0    0    0    0 -0.00000000000E+00 -0.00000000000E+00 -0.74505805969E-08  0.93827000000E+00  0.93827000000E+00 0.  1.
     999902    2    1    2    0    0 -0.18413943121E-01 -0.44911407888E-02  0.13976290639E-01  0.10203804703E+01  0.10201086824E+01 0.  0.
     999903    2    3    3    0    0 -0.11628737993E+00  0.52243553874E-02 -0.58920227927E-01  0.13190565195E+00  0.19428307665E-01 0.  0.
         14    1    1    2    0    0  0.18413943121E-01  0.44911407888E-02 -0.13976290639E-01  0.23549529653E-01  0.00000000000E+00 0.  1.
     999901    1    3    3    0    0  0.97873436807E-01 -0.97154961762E-02  0.72896518566E-01  0.88847481839E+00  0.88000000000E+00 0. -1.
        -11    1    4    4    0    0 -0.10411872662E+00  0.10308864232E-01 -0.49896787758E-01  0.11591778321E+00  0.51100000000E-03 0.  1.
         11    1    4    4    0    0 -0.12168653313E-01 -0.50845088444E-02 -0.90234401690E-02  0.15987868749E-01  0.51100000000E-03 0. -1.
</event>
<event>
 8    1  0.1054086E+005  0.1043930E+01  0.7957747E-01            NaN
         13   -1    0    0    0    0  0.00000000000E+00  0.00000000000E+00  0.74505805969E-08  0.10566000000E+00  0.10566000000E+00 0. -1.
     999900   -1    0    0    0    0 -0.00000000000E+00 -0.00000000000E+00 -0.74505805969E-08  0.93827000000E+00  0.93827000000E+00 0. -1.
     999902    2    1    2    0    0 -0.15932128180E-01  0.28894799308E-02  0.16511262543E-01  0.10208041791E+01  0.10205421934E+01 0.  0.
     999903    2    3    3    0    0  0.31441591234E-01 -0.10204638021E+00  0.74049937598E-01  0.13144120303E+00  0.19782801207E-01 0.  0.
         14    1    1    2    0    0  0.15932128180E-01 -0.28894799308E-02 -0.16511262543E-01  0.23125820923E-01  0.00000000000E+00 0.  1.
     999901    1    3    3    0    0 -0.47373719414E-01  0.10493586014E+00 -0.57538675055E-01  0.88936297605E+00  0.88000000000E+00 0. -1.
        -11    1    4    4    0    0  0.96234086892E-02 -0.22666943113E-01  0.80064683890E-02  0.25899130525E-01  0.51100000000E-03 0.  1.
         11    1    4    4    0    0  0.21818182545E-01 -0.79379437092E-01  0.66043469209E-01  0.10554207251E+00  0.51100000000E-03 0. -1.
</event>
<event>
 8    1  0.1054086E+005  0.1043930E+01  0.7957747E-01            NaN
         13   -1    0    0    0    0  0.00000000000E+00  0.00000000000E+00  0.74505805969E-08  0.10566000000E+00  0.10566000000E+00 0. -1.
     999900   -1    0    0    0    0 -0.00000000000E+00 -0.00000000000E+00 -0.74505805969E-08  0.93827000000E+00  0.93827000000E+00 0. -1.
     999902    2    1    2    0    0 -0.17339433004E-01 -0.10487062618E-01  0.56013588684E-02  0.10229059747E+01  0.10226898960E+01 0.  0.
     999903    2    3    3    0    0 -0.93170580850E-01 -0.30970981412E-01 -0.89407011481E-01  0.13431352347E+00  0.20163086586E-01 0.  0.
         14    1    1    2    0    0  0.17339433004E-01  0.10487062618E-01 -0.56013588684E-02  0.21024025314E-01  0.00000000000E+00 0.  1.
     999901    1    3    3    0    0  0.75831147847E-01  0.20483918795E-01  0.95008370349E-01  0.88859245121E+00  0.88000000000E+00 0.  1.
        -11    1    4    4    0    0 -0.20396942703E-01 -0.12268009156E-01 -0.12898028286E-01  0.27076919599E-01  0.51100000000E-03 0.  1.
         11    1    4    4    0    0 -0.72773638148E-01 -0.18702972256E-01 -0.76508983194E-01  0.10723660388E+00  0.51100000000E-03 0. -1.
</event>
<event>
 8    1  0.1054086E+005  0.1043930E+01  0.7957747E-01            NaN
         13   -1    0    0    0    0  0.00000000000E+00  0.00000000000E+00  0.74505805969E-08  0.10566000000E+00  0.10566000000E+00 0.  1.
     999900   -1    0    0    0    0 -0.00000000000E+00 -0.00000000000E+00 -0.74505805969E-08  0.93827000000E+00  0.93827000000E+00 0.  1.
     999902    2    1    2    0    0  0.46459272403E-04  0.14856529213E-01  0.19375432601E-01  0.10195143082E+01  0.10192219084E+01 0.  0.
     999903    2    3    3    0    0 -0.41234623375E-01 -0.11353903075E+00  0.40867760222E-01  0.12897993616E+00  0.19345398359E-01 0.  0.
         14    1    1    2    0    0 -0.46459272403E-04 -0.14856529213E-01 -0.19375432601E-01  0.24415691824E-01  0.00000000000E+00 0. -1.
     999901    1    3    3    0    0  0.41281082647E-01  0.12839555996E+00 -0.21492327621E-01  0.89053437202E+00  0.88000000000E+00 0. -1.
        -11    1    4    4    0    0 -0.37062079936E-01 -0.91409398501E-01  0.39992789696E-01  0.10643758853E+00  0.51100000000E-03 0.  1.
         11    1    4    4    0    0 -0.41725434381E-02 -0.22129632246E-01  0.87497052617E-03  0.22542347627E-01  0.51100000000E-03 0. -1.
</event>
<event>
 8    1  0.1054086E+005  0.1043930E+01  0.7957747E-01            NaN
         13   -1    0    0    0    0  0.00000000000E+00  0.00000000000E+00  0.74505805969E-08  0.10566000000E+00  0.10566000000E+00 0. -1.
     999900   -1    0    0    0    0 -0.00000000000E+00 -0.00000000000E+00 -0.74505805969E-08  0.93827000000E+00  0.93827000000E+00 0. -1.
     999902    2    1    2    0    0 -0.90374337913E-02 -0.14663610546E-01  0.16415129599E-01  0.10201360267E+01  0.10198584999E+01 0.  0.
     999903    2    3    3    0    0  0.12580487146E+00  0.61058145694E-02  0.23180128558E-01  0.12959709917E+00  0.19847999866E-01 0.  0.
         14    1    1    2    0    0  0.90374337913E-02  0.14663610546E-01 -0.16415129599E-01  0.23793973261E-01  0.00000000000E+00 0.  1.
     999901    1    3    3    0    0 -0.13484230525E+00 -0.20769425116E-01 -0.67649989592E-02  0.89053892757E+00  0.88000000000E+00 0.  1.
        -11    1    4    4    0    0  0.22785510134E-01 -0.55724084845E-02  0.81235884907E-02  0.24829116363E-01  0.51100000000E-03 0.  1.
         11    1    4    4    0    0  0.10301936133E+00  0.11678223054E-01  0.15056540067E-01  0.10476798281E+00  0.51100000000E-03 0. -1.
</event>
<event>
 8    1  0.1054086E+005  0.1043930E+01  0.7957747E-01            NaN
         13   -1    0    0    0    0  0.00000000000E+00  0.00000000000E+00  0.74505805969E-08  0.10566000000E+00  0.10566000000E+00 0.  1.
     999900   -1    0    0    0    0 -0.00000000000E+00 -0.00000000000E+00 -0.74505805969E-08  0.93827000000E+00  0.93827000000E+00 0.  1.
     999902    2    1    2    0    0  0.11828558163E-01 -0.12489177836E-01 -0.19833611434E-01  0.10176761147E+01  0.10173374111E+01 0.  0.
     999903    2    3    3    0    0  0.19195025033E-01  0.98057446603E-01  0.73743986318E-01  0.12580640010E+00  0.20133627775E-01 0.  0.
         14    1    1    2    0    0 -0.11828558163E-01  0.12489177836E-01  0.19833611434E-01  0.26253885307E-01  0.00000000000E+00 0.  1.
     999901    1    3    3    0    0 -0.73664668707E-02 -0.11054662444E+00 -0.93577597752E-01  0.89186971459E+00  0.88000000000E+00 0.  1.
        -11    1    4    4    0    0  0.10907173474E-01  0.26501477308E-01  0.12561671288E-01  0.31294591214E-01  0.51100000000E-03 0.  1.
         11    1    4    4    0    0  0.82878515591E-02  0.71555969295E-01  0.61182315030E-01  0.94511808884E-01  0.51100000000E-03 0. -1.
</event>
<event>
 8    1  0.1054086E+005  0.1043930E+01  0.7957747E-01            NaN
         13   -1    0    0    0    0  0.00000000000E+00  0.00000000000E+00  0.74505805969E-08  0.10566000000E+00  0.10566000000E+00 0. -1.
     999900   -1    0    0    0    0 -0.00000000000E+00 -0.00000000000E+00 -0.74505805969E-08  0.93827000000E+00  0.93827000000E+00 0. -1.
     999902    2    1    2    0    0 -0.13136231374E-01  0.14125584662E-01 -0.11211674247E-01  0.10216186944E+01  0.10213750352E+01 0.  0.
     999903    2    3    3    0    0 -0.81888258026E-01  0.84822041268E-01 -0.61862588370E-01  0.13466303306E+00  0.20166485674E-01 0.  0.
         14    1    1    2    0    0  0.13136231374E-01 -0.14125584662E-01  0.11211674247E-01  0.22311305569E-01  0.00000000000E+00 0. -1.
     999901    1    3    3    0    0  0.68752026651E-01 -0.70696456606E-01  0.50650914123E-01  0.88695566138E+00  0.88000000000E+00 0. -1.
        -11    1    4    4    0    0 -0.53207074031E-01  0.50735631507E-01 -0.27874791820E-01  0.78627998648E-01  0.51100000000E-03 0.  1.
         11    1    4    4    0    0 -0.28681183995E-01  0.34086409761E-01 -0.33987796549E-01  0.56035034407E-01  0.51100000000E-03 0. -1.
</event>
<event>
 8    1  0.1054086E+005  0.1043930E+01  0.7957747E-01            NaN
         13   -1    0    0    0    0  0.00000000000E+00  0.00000000000E+00  0.74505805969E-08  0.10566000000E+00  0.10566000000E+00 0.  1.
     999900   -1    0    0    0    0 -0.00000000000E+00 -0.00000000000E+00 -0.74505805969E-08  0.93827000000E+00  0.93827000000E+00 0.  1.
     999902    2    1    2    0    0 -0.12347686869E-01 -0.22120936738E-02 -0.17192883236E-01  0.10226472849E+01  0.10224257994E+01 0.  0.
     999903    2    3    3    0    0  0.56833973794E-01  0.59365557461E-01  0.99304620803E-01  0.13015102284E+00  0.17986412727E-01 0.  0.
         14    1    1    2    0    0  0.12347686869E-01  0.22120936738E-02  0.17192883236E-01  0.21282715133E-01  0.00000000000E+00 0.  1.
     999901    1    3    3    0    0 -0.69181660664E-01 -0.61577651134E-01 -0.11649750404E+00  0.89249626203E+00  0.88000000000E+00 0.  1.
        -11    1    4    4    0    0  0.16091873154E-01  0.20743337192E-01  0.44653255532E-01  0.51801629030E-01  0.51100000000E-03 0.  1.
         11    1    4    4    0    0  0.40742100640E-01  0.38622220268E-01  0.54651365270E-01  0.78349393807E-01  0.51100000000E-03 0. -1.
</event>
<event>
 8    1  0.1054086E+005  0.1043930E+01  0.7957747E-01            NaN
         13   -1    0    0    0    0  0.00000000000E+00  0.00000000000E+00  0.74505805969E-08  0.10566000000E+00  0.10566000000E+00 0.  1.
     999900   -1    0    0    0    0 -0.00000000000E+00 -0.00000000000E+00 -0.74505805969E-08  0.93827000000E+00  0.93827000000E+00 0. -1.
     999902    2    1    2    0    0 -0.19796196607E-01  0.10068116891E-01  0.19137607612E-01  0.10146126945E+01  0.10141890432E+01 0.  0.
     999903    2    3    3    0    0 -0.54730119191E-01  0.10139712418E+00  0.53387447862E-01  0.12853458389E+00  0.19853385793E-01 0.  0.
         14    1    1    2    0    0  0.19796196607E-01 -0.10068116891E-01 -0.19137607612E-01  0.29317305519E-01  0.00000000000E+00 0. -1.
     999901    1    3    3    0    0  0.34933922585E-01 -0.91329007285E-01 -0.34249840250E-01  0.88607811060E+00  0.88000000000E+00 0. -1.
        -11    1    4    4    0    0 -0.29557756168E-01  0.36406223376E-01  0.16783066496E-01  0.49809702792E-01  0.51100000000E-03 0. -1.
         11    1    4    4    0    0 -0.25172363023E-01  0.64990900800E-01  0.36604381366E-01  0.78724881093E-01  0.51100000000E-03 0.  1.
</event>
<event>
 8    1  0.1054086E+005  0.1043930E+01  0.7957747E-01            NaN
         13   -1    0    0    0    0  0.00000000000E+00  0.00000000000E+00  0.74505805969E-08  0.10566000000E+00  0.10566000000E+00 0. -1.
     999900   -1    0    0    0    0 -0.00000000000E+00 -0.00000000000E+00 -0.74505805969E-08  0.93827000000E+00  0.93827000000E+00 0. -1.
     999902    2    1    2    0    0 -0.61475956021E-02 -0.18834646954E-01 -0.90034019047E-02  0.10221676908E+01  0.10219360009E+01 0.  0.
     999903    2    3    3    0    0  0.30770328740E-01 -0.10069690013E+00 -0.81544685967E-01  0.13462805811E+00  0.19710387977E-01 0.  0.
         14    1    1    2    0    0  0.61475956021E-02  0.18834646954E-01  0.90034019047E-02  0.21762309239E-01  0.00000000000E+00 0.  1.
     999901    1    3    3    0    0 -0.36917924342E-01  0.81862253178E-01  0.72541284062E-01  0.88753963265E+00  0.88000000000E+00 0.  1.
        -11    1    4    4    0    0  0.25442741210E-01 -0.74850857993E-01 -0.70812968505E-01  0.10613539302E+00  0.51100000000E-03 0. -1.
         11    1    4    4    0    0  0.53275875302E-02 -0.25846042138E-01 -0.10731717462E-01  0.28492665088E-01  0.51100000000E-03 0.  1.
</event>
<event>
 8    1  0.1054086E+005  0.1043930E+01  0.7957747E-01            NaN
         13   -1    0    0    0    0  0.00000000000E+00  0.00000000000E+00  0.74505805969E-08  0.10566000000E+00  0.10566000000E+00 0. -1.
     999900   -1    0    0    0    0 -0.00000000000E+00 -0.00000000000E+00 -0.74505805969E-08  0.93827000000E+00  0.93827000000E+00 0. -1.
     999902    2    1    2    0    0  0.18533083680E-01 -0.14460833262E-01 -0.59708048286E-02  0.10196763116E+01  0.10193878257E+01 0.  0.
     999903    2    3    3    0    0 -0.98397014617E-01 -0.81322456280E-01  0.33253914741E-02  0.12937886482E+00  0.20797068392E-01 0.  0.
         14    1    1    2    0    0 -0.18533083680E-01  0.14460833262E-01  0.59708048286E-02  0.24253688372E-01  0.00000000000E+00 0. -1.
     999901    1    3    3    0    0  0.11693009830E+00  0.66861623018E-01 -0.92961963027E-02  0.89029744680E+00  0.88000000000E+00 0.  1.
        -11    1    4    4    0    0 -0.63852514636E-01 -0.46573398025E-01  0.10945656340E-01  0.79789056534E-01  0.51100000000E-03 0. -1.
         11    1    4    4    0    0 -0.34544499981E-01 -0.34749058255E-01 -0.76202648663E-02  0.49589808290E-01  0.51100000000E-03 0.  1.
</event>
<event>
 8    1  0.1207486E+005  0.1043930E+01  0.7957747E-01            NaN
         13   -1    0    0    0    0  0.00000000000E+00  0.00000000000E+00  0.74505805969E-08  0.10566000000E+00  0.10566000000E+00 0. -1.
     999900   -1    0    0    0    0 -0.00000000000E+00 -0.00000000000E+00 -0.74505805969E-08  0.93827000000E+00  0.93827000000E+00 0.  1.
     999902    2    1    2    0    0  0.20743239248E-01 -0.11382823480E-01  0.18752680618E-02  0.10201946408E+01  0.10199184957E+01 0.  0.
     999903    2    3    3    0    0 -0.12059946051E+00  0.94065036958E-02  0.35744186870E-01  0.12803038545E+00  0.21941297060E-01 0.  0.
         14    1    1    2    0    0 -0.20743239248E-01  0.11382823480E-01 -0.18752680618E-02  0.23735359175E-01  0.00000000000E+00 0. -1.
     999901    1    3    3    0    0  0.14134269976E+00 -0.20789327176E-01 -0.33868918808E-01  0.89216425537E+00  0.88000000000E+00 0.  1.
        -11    1    4    4    0    0 -0.40485792511E-01 -0.71811677760E-02  0.11460959472E-01  0.42688210069E-01  0.51100000000E-03 0.  1.
         11    1    4    4    0    0 -0.80113668002E-01  0.16587671472E-01  0.24283227398E-01  0.85342175385E-01  0.51100000000E-03 0. -1.
</event>
<event>
 8    1  0.1054086E+005  0.1043930E+01  0.7957747E-01            NaN
         13   -1    0    0    0    0  0.00000000000E+00  0.00000000000E+00  0.74505805969E-08  0.10566000000E+00  0.10566000000E+00 0. -1.
     999900   -1    0    0    0    0 -0.00000000000E+00 -0.00000000000E+00 -0.74505805969E-08  0.93827000000E+00  0.93827000000E+00 0.  1.
     999902    2    1    2    0    0 -0.19692151694E-01  0.10988126820E-01 -0.12219951334E-01  0.10182814722E+01  0.10179584027E+01 0.  0.
     999903    2    3    3    0    0  0.89403582963E-01  0.35850540048E-01  0.79550388092E-01  0.12646208793E+00  0.19650281641E-01 0.  0.
         14    1    1    2    0    0  0.19692151694E-01 -0.10988126820E-01  0.12219951334E-01  0.25648527832E-01  0.00000000000E+00 0. -1.
     999901    1    3    3    0    0 -0.10909573466E+00 -0.24862413228E-01 -0.91770339426E-01  0.89181938424E+00  0.88000000000E+00 0.  1.
        -11    1    4    4    0    0  0.46488883876E-01  0.21515413023E-01  0.54271947569E-01  0.74631325430E-01  0.51100000000E-03 0.  1.
         11    1    4    4    0    0  0.42914699087E-01  0.14335127026E-01  0.25278440523E-01  0.51830762495E-01  0.51100000000E-03 0. -1.
</event>
<event>
 8    1  0.1054086E+005  0.1043930E+01  0.7957747E-01            NaN
         13   -1    0    0    0    0  0.00000000000E+00  0.00000000000E+00  0.74505805969E-08  0.10566000000E+00  0.10566000000E+00 0.  1.
     999900   -1    0    0    0    0 -0.00000000000E+00 -0.00000000000E+00 -0.74505805969E-08  0.93827000000E+00  0.93827000000E+00 0. -1.
     999902    2    1    2    0    0 -0.58344822438E-02 -0.16385654704E-01  0.16661356718E-01  0.10198440773E+01  0.10195596159E+01 0.  0.
     999903    2    3    3    0    0 -0.12329714061E+00 -0.27260708108E-01  0.29381086774E-01  0.13188150243E+00  0.24169222840E-01 0.  0.
         14    1    1    2    0    0  0.58344822438E-02  0.16385654704E-01 -0.16661356718E-01  0.24085922669E-01  0.00000000000E+00 0. -1.
     999901    1    3    3    0    0  0.11746265837E+00  0.10875053405E-01 -0.12719730056E-01  0.88796257490E+00  0.88000000000E+00 0. -1.
        -11    1    4    4    0    0 -0.70664117628E-01 -0.16586746974E-01  0.45971603598E-02  0.72731923526E-01  0.51100000000E-03 0.  1.
         11    1    4    4    0    0 -0.52633022984E-01 -0.10673961134E-01  0.24783926414E-01  0.59149578902E-01  0.51100000000E-03 0. -1.
</event>
<event>
 8    1  0.1054086E+005  0.1043930E+01  0.7957747E-01            NaN
         13   -1    0    0    0    0  0.00000000000E+00  0.00000000000E+00  0.74505805969E-08  0.10566000000E+00  0.10566000000E+00 0. -1.
     999900   -1    0    0    0    0 -0.00000000000E+00 -0.00000000000E+00 -0.74505805969E-08  0.93827000000E+00  0.93827000000E+00 0.  1.
     999902    2    1    2    0    0 -0.20924833672E-01 -0.10439567831E-01 -0.69547891436E-02  0.10195332311E+01  0.10192412899E+01 0.  0.
     999903    2    3    3    0    0 -0.70949413781E-01  0.99654577990E-01 -0.40935366688E-01  0.13061374138E+00  0.20479037101E-01 0.  0.
         14    1    1    2    0    0  0.20924833672E-01  0.10439567831E-01  0.69547891436E-02  0.24396768899E-01  0.00000000000E+00 0.  1.
     999901    1    3    3    0    0  0.50024580109E-01 -0.11009414582E+00  0.33980577544E-01  0.88891948972E+00  0.88000000000E+00 0. -1.
        -11    1    4    4    0    0 -0.48296412941E-01  0.50362330873E-01 -0.23484441288E-01  0.73625321579E-01  0.51100000000E-03 0. -1.
         11    1    4    4    0    0 -0.22653000840E-01  0.49292247117E-01 -0.17450925400E-01  0.56988419799E-01  0.51100000000E-03 0.  1.
</event>
<event>
 8    1  0.1054086E+005  0.1043930E+01  0.7957747E-01            NaN
         13   -1    0    0    0    0  0.00000000000E+00  0.00000000000E+00  0.74505805969E-08  0.10566000000E+00  0.10566000000E+00 0. -1.
     999900   -1    0    0    0    0 -0.00000000000E+00 -0.00000000000E+00 -0.74505805969E-08  0.93827000000E+00  0.93827000000E+00 0.  1.
     999902    2    1    2    0    0 -0.33869966131E-01  0.49567017562E-02 -0.23816555881E-02  0.10096165073E+01  0.10090332383E+01 0.  0.
     999903    2    3    3    0    0  0.10842047322E+00 -0.17796850078E-02  0.41186916922E-01  0.11709750551E+00  0.16040491891E-01 0.  0.
         14    1    1    2    0    0  0.33869966131E-01 -0.49567017562E-02  0.23816555881E-02  0.34313492701E-01  0.00000000000E+00 0. -1.
     999901    1    3    3    0    0 -0.14229043935E+00  0.67363867640E-02 -0.43568572510E-01  0.89251900179E+00  0.88000000000E+00 0.  1.
        -11    1    4    4    0    0  0.66068421527E-01 -0.50461496046E-02  0.17833713561E-01  0.68620714142E-01  0.51100000000E-03 0. -1.
         11    1    4    4    0    0  0.42352051692E-01  0.32664645968E-02  0.23353203361E-01  0.48476791372E-01  0.51100000000E-03 0.  1.
</event>
<event>
 8    1  0.1054086E+005  0.1043930E+01  0.7957747E-01            NaN
         13   -1    0    0    0    0  0.00000000000E+00  0.00000000000E+00  0.74505805969E-08  0.10566000000E+00  0.10566000000E+00 0. -1.
     999900   -1    0    0    0    0 -0.00000000000E+00 -0.00000000000E+00 -0.74505805969E-08  0.93827000000E+00  0.93827000000E+00 0. -1.
     999902    2    1    2    0    0 -0.60682759460E-02  0.19686942953E-01 -0.12935746597E-01  0.10196044325E+01  0.10193142133E+01 0.  0.
     999903    2    3    3    0    0 -0.10935911410E+00 -0.60641360069E-01 -0.27987309484E-01  0.12980210439E+00  0.20700396684E-01 0.  0.
         14    1    1    2    0    0  0.60682759460E-02 -0.19686942953E-01  0.12935746597E-01  0.24325567533E-01  0.00000000000E+00 0. -1.
     999901    1    3    3    0    0  0.10329083815E+00  0.80328303022E-01  0.15051562887E-01  0.88980232808E+00  0.88000000000E+00 0.  1.
        -11    1    4    4    0    0 -0.32272576110E-01 -0.17097981953E-01 -0.17953076950E-01  0.40699315088E-01  0.51100000000E-03 0.  1.
         11    1    4    4    0    0 -0.77086537991E-01 -0.43543378115E-01 -0.10034232534E-01  0.89102789298E-01  0.51100000000E-03 0. -1.
</event>
<event>
 8    1  0.1054086E+005  0.1043930E+01  0.7957747E-01            NaN
         13   -1    0    0    0    0  0.00000000000E+00  0.00000000000E+00  0.74505805969E-08  0.10566000000E+00  0.10566000000E+00 0.  1.
     999900   -1    0    0    0    0 -0.00000000000E+00 -0.00000000000E+00 -0.74505805969E-08  0.93827000000E+00  0.93827000000E+00 0. -1.
     999902    2    1    2    0    0  0.28400816632E-02 -0.23021291280E-01 -0.34405111235E-02  0.10204804151E+01  0.10202109559E+01 0.  0.
     999903    2    3    3    0    0 -0.82044463279E-01 -0.57693127233E-01  0.82753390286E-01  0.13152771059E+00  0.19789496335E-01 0.  0.
         14    1    1    2    0    0 -0.28400816632E-02  0.23021291280E-01  0.34405111235E-02  0.23449584918E-01  0.00000000000E+00 0.  1.
     999901    1    3    3    0    0  0.84884544943E-01  0.34671835954E-01 -0.86193901410E-01  0.88895270449E+00  0.88000000000E+00 0. -1.
        -11    1    4    4    0    0 -0.39572589711E-01 -0.26485908792E-01  0.51975299550E-01  0.70492454243E-01  0.51100000000E-03 0.  1.
         11    1    4    4    0    0 -0.42471873569E-01 -0.31207218441E-01  0.30778090736E-01  0.61035256349E-01  0.51100000000E-03 0. -1.
</event>
<event>
 8    1  0.1054086E+005  0.1043930E+01  0.7957747E-01            NaN
         13   -1    0    0    0    0  0.00000000000E+00  0.00000000000E+00  0.74505805969E-08  0.10566000000E+00  0.10566000000E+00 0. -1.
     999900   -1    0    0    0    0 -0.00000000000E+00 -0.00000000000E+00 -0.74505805969E-08  0.93827000000E+00  0.93827000000E+00 0.  1.
     999902    2    1    2    0    0 -0.24355066765E-02 -0.38755469898E-02  0.19291942146E-01  0.10241024790E+01  0.10239105219E+01 0.  0.
     999903    2    3    3    0    0  0.23944660242E-01 -0.40814828737E-01 -0.12163786247E+00  0.13173392645E+00  0.17856673620E-01 0.  0.
         14    1    1    2    0    0  0.24355066765E-02  0.38755469898E-02 -0.19291942146E-01  0.19827521000E-01  0.00000000000E+00 0.  1.
     999901    1    3    3    0    0 -0.26380166918E-01  0.36939281747E-01  0.14092980462E+00  0.89236855255E+00  0.88000000000E+00 0. -1.
        -11    1    4    4    0    0  0.16446272886E-01 -0.15146562109E-01 -0.71392537096E-01  0.74813459414E-01  0.51100000000E-03 0. -1.
         11    1    4    4    0    0  0.74983873560E-02 -0.25668266629E-01 -0.50245325379E-01  0.56920467040E-01  0.51100000000E-03 0.  1.
</event>
<event>
 8    1  0.1054086E+005  0.1043930E+01  0.7957747E-01            NaN
         13   -1    0    0    0    0  0.00000000000E+00  0.00000000000E+00  0.74505805969E-08  0.10566000000E+00  0.10566000000E+00 0. -1.
     999900   -1    0    0    0    0 -0.00000000000E+00 -0.00000000000E+00 -0.74505805969E-08  0.93827000000E+00  0.93827000000E+00 0.  1.
     999902    2    1    2    0    0  0.93028719195E-02  0.17006611777E-01  0.14337264868E-01  0.10198193087E+01  0.10195342549E+01 0.  0.
     999903    2    3    3    0    0 -0.78962688649E-01  0.55018912607E-01 -0.83955336616E-01  0.12914698979E+00  0.19190088155E-01 0.  0.
         14    1    1    2    0    0 -0.93028719195E-02 -0.17006611777E-01 -0.14337264868E-01  0.24110691279E-01  0.00000000000E+00 0.  1.
     999901    1    3    3    0    0  0.88265560568E-01 -0.38012300830E-01  0.98292601484E-01  0.89067231893E+00  0.88000000000E+00 0. -1.
        -11    1    4    4    0    0 -0.21819331928E-01  0.12855822102E-01 -0.33651054672E-01  0.42118998198E-01  0.51100000000E-03 0.  1.
         11    1    4    4    0    0 -0.57143356721E-01  0.42163090504E-01 -0.50304281945E-01  0.87027991595E-01  0.51100000000E-03 0. -1.
</event>
<event>
 8    1  0.1054086E+005  0.1043930E+01  0.7957747E-01            NaN
         13   -1    0    0    0    0  0.00000000000E+00  0.00000000000E+00  0.74505805969E-08  0.10566000000E+00  0.10566000000E+00 0. -1.
     999900   -1    0    0    0    0 -0.00000000000E+00 -0.00000000000E+00 -0.74505805969E-08  0.93827000000E+00  0.93827000000E+00 0. -1.
     999902    2    1    2    0    0 -0.21557179486E-01  0.21230023351E-02  0.96663037483E-02  0.10202096173E+01  0.10199338247E+01 0.  0.
     999903    2    3    3    0    0 -0.12027149440E+00 -0.44483404562E-01 -0.27824618870E-01  0.13267243928E+00  0.19589820894E-01 0.  0.
         14    1    1    2    0    0  0.21557179486E-01 -0.21230023351E-02 -0.96663037483E-02  0.23720382679E-01  0.00000000000E+00 0. -1.
     999901    1    3    3    0    0  0.98714314910E-01  0.46606406897E-01  0.37490922619E-01  0.88753717804E+00  0.88000000000E+00 0.  1.
        -11    1    4    4    0    0 -0.70657646541E-01 -0.34143679568E-01 -0.10849785106E-01  0.79222931194E-01  0.51100000000E-03 0. -1.
         11    1    4    4    0    0 -0.49613847855E-01 -0.10339724995E-01 -0.16974833765E-01  0.53449508083E-01  0.51100000000E-03 0.  1.
</event>
<event>
 8    1  0.1054086E+005  0.1043930E+01  0.7957747E-01            NaN
         13   -1    0    0    0    0  0.00000000000E+00  0.00000000000E+00  0.74505805969E-08  0.10566000000E+00  0.10566000000E+00 0.  1.
     999900   -1    0    0    0    0 -0.00000000000E+00 -0.00000000000E+00 -0.74505805969E-08  0.93827000000E+00  0.93827000000E+00 0. -1.
     999902    2    1    2    0    0  0.58097132402E-02 -0.22768803168E-01  0.35510636291E-02  0.10201648739E+01  0.10198880275E+01 0.  0.
     999903    2    3    3    0    0  0.10316000729E+00  0.73342713796E-01 -0.19353132041E-01  0.12930062744E+00  0.17971303930E-01 0.  0.
         14    1    1    2    0    0 -0.58097132402E-02  0.22768803168E-01 -0.35510636291E-02  0.23765126100E-01  0.00000000000E+00 0.  1.
     999901    1    3    3    0    0 -0.97350294051E-01 -0.96111516964E-01  0.22904195670E-01  0.89086424646E+00  0.88000000000E+00 0.  1.
        -11    1    4    4    0    0  0.52883093618E-01  0.45705640558E-01 -0.16691358233E-01  0.71864384295E-01  0.51100000000E-03 0. -1.
         11    1    4    4    0    0  0.50276913673E-01  0.27637073238E-01 -0.26617738078E-02  0.57436243143E-01  0.51100000000E-03 0.  1.
</event>
<event>
 8    1  0.1054086E+005  0.1043930E+01  0.7957747E-01            NaN
         13   -1    0    0    0    0  0.00000000000E+00  0.00000000000E+00  0.74505805969E-08  0.10566000000E+00  0.10566000000E+00 0. -1.
     999900   -1    0    0    0    0 -0.00000000000E+00 -0.00000000000E+00 -0.74505805969E-08  0.93827000000E+00  0.93827000000E+00 0.  1.
     999902    2    1    2    0    0  0.20711683947E-01  0.92008082913E-02  0.80130787472E-02  0.10198917356E+01  0.10196084122E+01 0.  0.
     999903    2    3    3    0    0  0.55385377633E-01 -0.11625213781E+00 -0.23994100773E-02  0.13025746992E+00  0.19471818125E-01 0.  0.
         14    1    1    2    0    0 -0.20711683947E-01 -0.92008082913E-02 -0.80130787472E-02  0.24038264416E-01  0.00000000000E+00 0.  1.
     999901    1    3    3    0    0 -0.34673693685E-01  0.12545294610E+00  0.10412488824E-01  0.88963426566E+00  0.88000000000E+00 0.  1.
        -11    1    4    4    0    0  0.24166924577E-01 -0.54247881027E-01  0.84677124878E-02  0.59990300176E-01  0.51100000000E-03 0. -1.
         11    1    4    4    0    0  0.31218453056E-01 -0.62004256780E-01 -0.10867122565E-01  0.70267169744E-01  0.51100000000E-03 0.  1.
</event>
<event>
 8    1  0.1054086E+005  0.1043930E+01  0.7957747E-01            NaN
         13   -1    0    0    0    0  0.00000000000E+00  0.00000000000E+00  0.74505805969E-08  0.10566000000E+00  0.10566000000E+00 0. -1.
     999900   -1    0    0    0    0 -0.00000000000E+00 -0.00000000000E+00 -0.74505805969E-08  0.93827000000E+00  0.93827000000E+00 0.  1.
     999902    2    1    2    0    0 -0.20243619983E-02 -0.95252011493E-02 -0.23852199282E-01  0.10181665587E+01  0.10178405505E+01 0.  0.
     999903    2    3    3    0    0  0.10048722224E+00 -0.20749334905E-01 -0.78245275108E-01  0.13047674079E+00  0.19329771767E-01 0.  0.
         14    1    1    2    0    0  0.20243619983E-02  0.95252011493E-02  0.23852199282E-01  0.25763441327E-01  0.00000000000E+00 0. -1.
     999901    1    3    3    0    0 -0.10251158424E+00  0.11224133756E-01  0.54393075827E-01  0.88768981789E+00  0.88000000000E+00 0. -1.
        -11    1    4    4    0    0  0.38230402979E-01 -0.30654264261E-02 -0.19312480003E-01  0.42944074749E-01  0.51100000000E-03 0.  1.
         11    1    4    4    0    0  0.62256819263E-01 -0.17683908479E-01 -0.58932795105E-01  0.87532666038E-01  0.51100000000E-03 0. -1.
</event>
<event>
 8    1  0.1853929E+005  0.1043930E+01  0.7957747E-01            NaN
         13   -1    0    0    0    0  0.00000000000E+00  0.00000000000E+00  0.74505805969E-08  0.10566000000E+00  0.10566000000E+00 0. -1.
     999900   -1    0    0    0    0 -0.00000000000E+00 -0.00000000000E+00 -0.74505805969E-08  0.93827000000E+00  0.93827000000E+00 0.  1.
     999902    2    1    2    0    0  0.24233463842E-02 -0.11398788222E-01  0.20508054749E-01  0.10203421792E+01  0.10200694963E+01 0.  0.
     999903    2    3    3    0    0  0.53311140902E-01 -0.11664772644E+00  0.28052762676E-01  0.13257879335E+00  0.18477259669E-01 0.  0.
         14    1    1    2    0    0 -0.24233463842E-02  0.11398788222E-01 -0.20508054749E-01  0.23587820803E-01  0.00000000000E+00 0.  1.
     999901    1    3    3    0    0 -0.50887794518E-01  0.10524893822E+00 -0.75447079270E-02  0.88776338584E+00  0.88000000000E+00 0. -1.
        -11    1    4    4    0    0  0.23517569643E-01 -0.72799662986E-01  0.14645425752E-01  0.77894907595E-01  0.51100000000E-03 0. -1.
         11    1    4    4    0    0  0.29793571259E-01 -0.43848063456E-01  0.13407336925E-01  0.54683885758E-01  0.51100000000E-03 0.  1.
</event>
<event>
 8    1  0.1054086E+005  0.1043930E+01  0.7957747E-01            NaN
         13   -1    0    0    0    0  0.00000000000E+00  0.00000000000E+00  0.74505805969E-08  0.10566000000E+00  0.10566000000E+00 0. -1.
     999900   -1    0    0    0    0 -0.00000000000E+00 -0.00000000000E+00 -0.74505805969E-08  0.93827000000E+00  0.93827000000E+00 0. -1.
     999902    2    1    2    0    0  0.12190513534E-01  0.31794774077E-03 -0.20667918167E-01  0.10199326553E+01  0.10196503071E+01 0.  0.
     999903    2    3    3    0    0 -0.44532875496E-01  0.10523379251E+00  0.55449906918E-01  0.12863091031E+00  0.20344306905E-01 0.  0.
         14    1    1    2    0    0 -0.12190513534E-01 -0.31794774077E-03  0.20667918167E-01  0.23997344694E-01  0.00000000000E+00 0. -1.
     999901    1    3    3    0    0  0.56723389030E-01 -0.10491584477E+00 -0.76117825085E-01  0.89130174500E+00  0.88000000000E+00 0. -1.
        -11    1    4    4    0    0 -0.19132427538E-01  0.68995523188E-01  0.37984932681E-01  0.81052749708E-01  0.51100000000E-03 0.  1.
         11    1    4    4    0    0 -0.25400447958E-01  0.36238269319E-01  0.17464974237E-01  0.47578160597E-01  0.51100000000E-03 0. -1.
</event>
<event>
 8    1  0.1054086E+005  0.1043930E+01  0.7957747E-01            NaN
         13   -1    0    0    0    0  0.00000000000E+00  0.00000000000E+00  0.74505805969E-08  0.10566000000E+00  0.10566000000E+00 0. -1.
     999900   -1    0    0    0    0 -0.00000000000E+00 -0.00000000000E+00 -0.74505805969E-08  0.93827000000E+00  0.93827000000E+00 0.  1.
     999902    2    1    2    0    0  0.21022361550E-01 -0.10937075484E-01 -0.21176344665E-02  0.10201383275E+01  0.10198608550E+01 0.  0.
     999903    2    3    3    0    0 -0.42594876969E-02  0.10842123211E+00 -0.67511070855E-01  0.12931742572E+00  0.19797603418E-01 0.  0.
         14    1    1    2    0    0 -0.21022361550E-01  0.10937075484E-01  0.21176344665E-02  0.23791672514E-01  0.00000000000E+00 0.  1.
     999901    1    3    3    0    0  0.25281849247E-01 -0.11935830759E+00  0.65393436388E-01  0.89082090176E+00  0.88000000000E+00 0. -1.
        -11    1    4    4    0    0  0.42975021724E-02  0.84319557600E-01 -0.55647834443E-01  0.10111972566E+00  0.51100000000E-03 0.  1.
         11    1    4    4    0    0 -0.85569898692E-02  0.24101674507E-01 -0.11863236411E-01  0.28197700062E-01  0.51100000000E-03 0. -1.
</event>
<event>
 8    1  0.1054086E+005  0.1043930E+01  0.7957747E-01            NaN
         13   -1    0    0    0    0  0.00000000000E+00  0.00000000000E+00  0.74505805969E-08  0.10566000000E+00  0.10566000000E+00 0.  1.
     999900   -1    0    0    0    0 -0.00000000000E+00 -0.00000000000E+00 -0.74505805969E-08  0.93827000000E+00  0.93827000000E+00 0. -1.
     999902    2    1    2    0    0 -0.91911447488E-02  0.18757161228E-01 -0.13343516828E-01  0.10191437603E+01  0.10188423069E+01 0.  0.
     999903    2    3    3    0    0 -0.90296004976E-01 -0.78502968022E-01  0.41940677269E-01  0.12836102962E+00  0.20036192547E-01 0.  0.
         14    1    1    2    0    0  0.91911447488E-02 -0.18757161228E-01  0.13343516828E-01  0.24786239740E-01  0.00000000000E+00 0.  1.
     999901    1    3    3    0    0  0.81104860227E-01  0.97260129250E-01 -0.55284194097E-01  0.89078273064E+00  0.88000000000E+00 0. -1.
        -11    1    4    4    0    0 -0.60656668271E-01 -0.42035286275E-01  0.19797116271E-01  0.76409316393E-01  0.51100000000E-03 0. -1.
         11    1    4    4    0    0 -0.29639336705E-01 -0.36467681747E-01  0.22143560998E-01  0.51951713225E-01  0.51100000000E-03 0.  1.
</event>
<event>
 8    1  0.1054086E+005  0.1043930E+01  0.7957747E-01            NaN
         13   -1    0    0    0    0  0.00000000000E+00  0.00000000000E+00  0.74505805969E-08  0.10566000000E+00  0.10566000000E+00 0. -1.
     999900   -1    0    0    0    0 -0.00000000000E+00 -0.00000000000E+00 -0.74505805969E-08  0.93827000000E+00  0.93827000000E+00 0. -1.
     999902    2    1    2    0    0  0.88472197716E-02  0.99452242935E-02  0.20848818625E-01  0.10191943168E+01  0.10188941071E+01 0.  0.
     999903    2    3    3    0    0  0.50972634072E-01 -0.10391162132E+00 -0.50519365954E-01  0.12799773380E+00  0.20865738734E-01 0.  0.
         14    1    1    2    0    0 -0.88472197716E-02 -0.99452242935E-02 -0.20848818625E-01  0.24735683172E-01  0.00000000000E+00 0.  1.
     999901    1    3    3    0    0 -0.42125414301E-01  0.11385684561E+00  0.71368184579E-01  0.89119658302E+00  0.88000000000E+00 0.  1.
        -11    1    4    4    0    0  0.28364157487E-01 -0.41710585797E-01 -0.30069940302E-01  0.58726151144E-01  0.51100000000E-03 0. -1.
         11    1    4    4    0    0  0.22608476586E-01 -0.62201035523E-01 -0.20449425652E-01  0.69271582660E-01  0.51100000000E-03 0.  1.
</event>
<event>
 8    1  0.1054086E+005  0.1043930E+01  0.7957747E-01            NaN
         13   -1    0    0    0    0  0.00000000000E+00  0.00000000000E+00  0.74505805969E-08  0.10566000000E+00  0.10566000000E+00 0.  1.
     999900   -1    0    0    0    0 -0.00000000000E+00 -0.00000000000E+00 -0.74505805969E-08  0.93827000000E+00  0.93827000000E+00 0. -1.
     999902    2    1    2    0    0  0.12964243121E-01  0.19839109818E-01  0.32989769174E-02  0.10200020848E+01  0.10197213874E+01 0.  0.
     999903    2    3    3    0    0 -0.42177589372E-01  0.12112897723E+00  0.25028499245E-01  0.13221132617E+00  0.20055693061E-01 0.  0.
         14    1    1    2    0    0 -0.12964243121E-01 -0.19839109818E-01 -0.32989769174E-02  0.23927915220E-01  0.00000000000E+00 0. -1.
     999901    1    3    3    0    0  0.55141832493E-01 -0.10128986741E+00 -0.21729522327E-01  0.88779075861E+00  0.88000000000E+00 0. -1.
        -11    1    4    4    0    0 -0.23433442075E-01  0.40295479964E-01  0.52874731443E-02  0.46915566780E-01  0.51100000000E-03 0. -1.
         11    1    4    4    0    0 -0.18744147297E-01  0.80833497263E-01  0.19741026100E-01  0.85295759391E-01  0.51100000000E-03 0.  1.
</event>
<event>
 8    1  0.1054086E+005  0.1043930E+01  0.7957747E-01            NaN
         13   -1    0    0    0    0  0.00000000000E+00  0.00000000000E+00  0.74505805969E-08  0.10566000000E+00  0.10566000000E+00 0.  1.
     999900   -1    0    0    0    0 -0.00000000000E+00 -0.00000000000E+00 -0.74505805969E-08  0.93827000000E+00  0.93827000000E+00 0. -1.
     999902    2    1    2    0    0 -0.27003445564E-02  0.18518839867E-01 -0.14607919187E-01  0.10201890945E+01  0.10199128188E+01 0.  0.
     999903    2    3    3    0    0 -0.33406971838E-01 -0.10040396296E+00 -0.72370198815E-01  0.12978356277E+00  0.20232299537E-01 0.  0.
         14    1    1    2    0    0  0.27003445564E-02 -0.18518839867E-01  0.14607919187E-01  0.23740905495E-01  0.00000000000E+00 0.  1.
     999901    1    3    3    0    0  0.30706627282E-01  0.11892280282E+00  0.57762279629E-01  0.89040553173E+00  0.88000000000E+00 0. -1.
        -11    1    4    4    0    0 -0.31433527074E-01 -0.82822148600E-01 -0.67652193705E-01  0.11146593810E+00  0.51100000000E-03 0. -1.
         11    1    4    4    0    0 -0.19734447636E-02 -0.17581814358E-01 -0.47180051102E-02  0.18317624670E-01  0.51100000000E-03 0.  1.
</event>
<event>
 8    1  0.1054086E+005  0.1043930E+01  0.7957747E-01            NaN
         13   -1    0    0    0    0  0.00000000000E+00  0.00000000000E+00  0.74505805969E-08  0.10566000000E+00  0.10566000000E+00 0.  1.
     999900   -1    0    0    0    0 -0.00000000000E+00 -0.00000000000E+00 -0.74505805969E-08  0.93827000000E+00  0.93827000000E+00 0. -1.
     999902    2    1    2    0    0 -0.13521794544E-01  0.34330754123E-02 -0.19032672376E-01  0.10203319587E+01  0.10200590367E+01 0.  0.
     999903    2    3    3    0    0  0.65902778222E-01  0.10984904282E+00  0.95938315253E-02  0.12990953223E+00  0.19350880445E-01 0.  0.
         14    1    1    2    0    0  0.13521794544E-01 -0.34330754123E-02  0.19032672376E-01  0.23598041280E-01  0.00000000000E+00 0.  1.
     999901    1    3    3    0    0 -0.79424572766E-01 -0.10641596741E+00 -0.28626503901E-01  0.89042242649E+00  0.88000000000E+00 0.  1.
        -11    1    4    4    0    0  0.17302291217E-01  0.38402927115E-01  0.10815653930E-01  0.43490155016E-01  0.51100000000E-03 0.  1.
         11    1    4    4    0    0  0.48600487005E-01  0.71446115705E-01 -0.12218224043E-02  0.86419377210E-01  0.51100000000E-03 0. -1.
</event>
<event>
 8    1  0.1054086E+005  0.1043930E+01  0.7957747E-01            NaN
         13   -1    0    0    0    0  0.00000000000E+00  0.00000000000E+00  0.74505805969E-08  0.10566000000E+00  0.10566000000E+00 0. -1.
     999900   -1    0    0    0    0 -0.00000000000E+00 -0.00000000000E+00 -0.74505805969E-08  0.93827000000E+00  0.93827000000E+00 0.  1.
     999902    2    1    2    0    0 -0.88378245623E-02  0.18963659727E-01 -0.10844205663E-01  0.10203646795E+01  0.10200925227E+01 0.  0.
     999903    2    3    3    0    0 -0.60772486936E-01  0.10039571124E+00  0.58097243485E-01  0.13239997775E+00  0.19541504625E-01 0.  0.
         14    1    1    2    0    0  0.88378245623E-02 -0.18963659727E-01  0.10844205663E-01  0.23565320488E-01  0.00000000000E+00 0. -1.
     999901    1    3    3    0    0  0.51934662374E-01 -0.81432051513E-01 -0.68941449148E-01  0.88796470176E+00  0.88000000000E+00 0.  1.
        -11    1    4    4    0    0 -0.14137825109E-01  0.24990372637E-01  0.52811322474E-02  0.29198429789E-01  0.51100000000E-03 0.  1.
         11    1    4    4    0    0 -0.46634661827E-01  0.75405338604E-01  0.52816111238E-01  0.10320154796E+00  0.51100000000E-03 0. -1.
</event>
<event>
 8    1  0.1054086E+005  0.1043930E+01  0.7957747E-01            NaN
         13   -1    0    0    0    0  0.00000000000E+00  0.00000000000E+00  0.74505805969E-08  0.10566000000E+00  0.10566000000E+00 0. -1.
     999900   -1    0    0    0    0 -0.00000000000E+00 -0.00000000000E+00 -0.74505805969E-08  0.93827000000E+00  0.93827000000E+00 0. -1.
     999902    2    1    2    0    0 -0.12382091840E-01 -0.34558508870E-02 -0.19435413228E-01  0.10206277600E+01  0.10203617153E+01 0.  0.
     999903    2    3    3    0    0  0.11609899374E+00  0.46830457049E-01  0.23563811126E-01  0.12884020935E+00  0.19299696762E-01 0.  0.
         14    1    1    2    0    0  0.12382091840E-01  0.34558508870E-02  0.19435413228E-01  0.23302240044E-01  0.00000000000E+00 0. -1.
     999901    1    3    3    0    0 -0.12848108558E+00 -0.50286307936E-01 -0.42999224354E-01  0.89178755060E+00  0.88000000000E+00 0.  1.
        -11    1    4    4    0    0  0.27016914067E-01  0.11888832462E-01  0.13998224505E-01  0.32672150118E-01  0.51100000000E-03 0.  1.
         11    1    4    4    0    0  0.89082079677E-01  0.34941624587E-01  0.95655866207E-02  0.96168059234E-01  0.51100000000E-03 0. -1.
</event>
<event>
 8    1  0.1326936E+005  0.1043930E+01  0.7957747E-01            NaN
         13   -1    0    0    0    0  0.00000000000E+00  0.00000000000E+00  0.74505805969E-08  0.10566000000E+00  0.10566000000E+00 0. -1.
     999900   -1    0    0    0    0 -0.00000000000E+00 -0.00000000000E+00 -0.74505805969E-08  0.93827000000E+00  0.93827000000E+00 0. -1.
     999902    2    1    2    0    0 -0.17514836086E-01 -0.15987417843E-01 -0.42679628875E-02  0.10198347200E+01  0.10195500348E+01 0.  0.
     999903    2    3    3    0    0 -0.59454029530E-01  0.13075998980E-01 -0.11481962460E+00  0.13145121717E+00  0.19751276551E-01 0.  0.
         14    1    1    2    0    0  0.17514836086E-01  0.15987417843E-01  0.42679628875E-02  0.24095280028E-01  0.00000000000E+00 0.  1.
     999901    1    3    3    0    0  0.41939193444E-01 -0.29063416823E-01  0.11055166171E+00  0.88838350280E+00  0.88000000000E+00 0.  1.
        -11    1    4    4    0    0 -0.32737155080E-01 -0.83558708698E-03 -0.47486011918E-01  0.57685370567E-01  0.51100000000E-03 0.  1.
         11    1    4    4    0    0 -0.26716874450E-01  0.13911586067E-01 -0.67333612682E-01  0.73765846603E-01  0.51100000000E-03 0. -1.
</event>
<event>
 8    1  0.1054086E+005  0.1043930E+01  0.7957747E-01            NaN
         13   -1    0    0    0    0  0.00000000000E+00  0.00000000000E+00  0.74505805969E-08  0.10566000000E+00  0.10566000000E+00 0.  1.
     999900   -1    0    0    0    0 -0.00000000000E+00 -0.00000000000E+00 -0.74505805969E-08  0.93827000000E+00  0.93827000000E+00 0. -1.
     999902    2    1    2    0    0 -0.69458413077E-02  0.16510613944E-01  0.15985105650E-01  0.10199223203E+01  0.10196397259E+01 0.  0.
     999903    2    3    3    0    0 -0.49338292504E-01  0.95193316824E-01 -0.72440026237E-01  0.13098638803E+00  0.20343101331E-01 0.  0.
         14    1    1    2    0    0  0.69458413077E-02 -0.16510613944E-01 -0.15985105650E-01  0.24007679749E-01  0.00000000000E+00 0. -1.
     999901    1    3    3    0    0  0.42392451196E-01 -0.78682702880E-01  0.88425131887E-01  0.88893593222E+00  0.88000000000E+00 0. -1.
        -11    1    4    4    0    0 -0.66420667603E-02  0.79452072525E-02 -0.14686960945E-01  0.17978078649E-01  0.51100000000E-03 0. -1.
         11    1    4    4    0    0 -0.42696225743E-01  0.87248109571E-01 -0.57753065293E-01  0.11300830938E+00  0.51100000000E-03 0.  1.
</event>
<event>
 8    1  0.1054086E+005  0.1043930E+01  0.7957747E-01            NaN
         13   -1    0    0    0    0  0.00000000000E+00  0.00000000000E+00  0.74505805969E-08  0.10566000000E+00  0.10566000000E+00 0.  1.
     999900   -1    0    0    0    0 -0.00000000000E+00 -0.00000000000E+00 -0.74505805969E-08  0.93827000000E+00  0.93827000000E+00 0.  1.
     999902    2    1    2    0    0  0.20285505611E-01 -0.11617599244E-01 -0.55073590177E-02  0.10199133109E+01  0.10196305019E+01 0.  0.
     999903    2    3    3    0    0  0.33929845212E-01  0.12334037684E+00  0.27245645299E-02  0.12948218622E+00  0.19852716192E-01 0.  0.
         14    1    1    2    0    0 -0.20285505611E-01  0.11617599244E-01  0.55073590177E-02  0.24016689061E-01  0.00000000000E+00 0.  1.
     999901    1    3    3    0    0 -0.13644339600E-01 -0.13495797608E+00 -0.82319235476E-02  0.89043112472E+00  0.88000000000E+00 0. -1.
        -11    1    4    4    0    0  0.13885917070E-01  0.22356058272E-01 -0.21587279742E-02  0.26410854999E-01  0.51100000000E-03 0. -1.
         11    1    4    4    0    0  0.20043928142E-01  0.10098431857E+00  0.48832925041E-02  0.10307133122E+00  0.51100000000E-03 0.  1.
</event>
<event>
 8    1  0.1054086E+005  0.1043930E+01  0.7957747E-01            NaN
         13   -1    0    0    0    0  0.00000000000E+00  0.00000000000E+00  0.74505805969E-08  0.10566000000E+00  0.10566000000E+00 0. -1.
     999900   -1    0    0    0    0 -0.00000000000E+00 -0.00000000000E+00 -0.74505805969E-08  0.93827000000E+00  0.93827000000E+00 0.  1.
     999902    2    1    2    0    0 -0.14271982494E-01  0.13363078404E-01  0.83362883655E-04  0.10243783173E+01  0.10241917148E+01 0.  0.
     999903    2    3    3    0    0 -0.13154849645E+00 -0.18416902444E-01 -0.20535457166E-01  0.13579017664E+00  0.19315223400E-01 0.  0.
         14    1    1    2    0    0  0.14271982494E-01 -0.13363078404E-01 -0.83362883655E-04  0.19551682744E-01  0.00000000000E+00 0. -1.
     999901    1    3    3    0    0  0.11727651396E+00  0.31779980848E-01  0.20618820050E-01  0.88858814062E+00  0.88000000000E+00 0. -1.
        -11    1    4    4    0    0 -0.45665654832E-01 -0.15084662217E-01 -0.39655602496E-02  0.48258531417E-01  0.51100000000E-03 0.  1.
         11    1    4    4    0    0 -0.85882841622E-01 -0.33322402278E-02 -0.16569896916E-01  0.87531645220E-01  0.51100000000E-03 0. -1.
</event>
<event>
 8    1  0.1054086E+005  0.1043930E+01  0.7957747E-01            NaN
         13   -1    0    0    0    0  0.00000000000E+00  0.00000000000E+00  0.74505805969E-08  0.10566000000E+00  0.10566000000E+00 0.  1.
     999900   -1    0    0    0    0 -0.00000000000E+00 -0.00000000000E+00 -0.74505805969E-08  0.93827000000E+00  0.93827000000E+00 0. -1.
     999902    2    1    2    0    0 -0.13267137503E-01 -0.78276753128E-02 -0.21199253670E-01  0.10177250807E+01  0.10173876558E+01 0.  0.
     999903    2    3    3    0    0  0.11218060560E+00  0.50609994361E-01 -0.23774721796E-01  0.12690594615E+00  0.19849986622E-01 0.  0.
         14    1    1    2    0    0  0.13267137503E-01  0.78276753128E-02  0.21199253670E-01  0.26204919280E-01  0.00000000000E+00 0.  1.
     999901    1    3    3    0    0 -0.12544774310E+00 -0.58437669674E-01  0.25754681270E-02  0.89081913457E+00  0.88000000000E+00 0.  1.
        -11    1    4    4    0    0  0.59544491800E-01  0.16025499988E-01 -0.10948494823E-01  0.62629815691E-01  0.51100000000E-03 0.  1.
         11    1    4    4    0    0  0.52636113800E-01  0.34584494373E-01 -0.12826226974E-01  0.64276130456E-01  0.51100000000E-03 0. -1.
</event>
<event>
 8    1  0.1054086E+005  0.1043930E+01  0.7957747E-01            NaN
         13   -1    0    0    0    0  0.00000000000E+00  0.00000000000E+00  0.74505805969E-08  0.10566000000E+00  0.10566000000E+00 0. -1.
     999900   -1    0    0    0    0 -0.00000000000E+00 -0.00000000000E+00 -0.74505805969E-08  0.93827000000E+00  0.93827000000E+00 0.  1.
     999902    2    1    2    0    0 -0.62592034994E-02  0.19470117790E-01 -0.11089351461E-01  0.10206655028E+01  0.10204003291E+01 0.  0.
     999903    2    3    3    0    0 -0.47484464137E-01 -0.28893773011E-01 -0.11795387106E+00  0.13192560067E+00  0.20040557891E-01 0.  0.
         14    1    1    2    0    0  0.62592034994E-02 -0.19470117790E-01  0.11089351461E-01  0.23264497223E-01  0.00000000000E+00 0.  1.
     999901    1    3    3    0    0  0.41225260637E-01  0.48363890801E-01  0.10686451960E+00  0.88873990211E+00  0.88000000000E+00 0. -1.
        -11    1    4    4    0    0 -0.39028418388E-01 -0.31552968469E-01 -0.10134490975E+00  0.11309225930E+00  0.51100000000E-03 0. -1.
         11    1    4    4    0    0 -0.84560457489E-02  0.26591954579E-02 -0.16608961310E-01  0.18833341365E-01  0.51100000000E-03 0.  1.
</event>
<event>
 8    1  0.1054086E+005  0.1043930E+01  0.7957747E-01            NaN
         13   -1    0    0    0    0  0.00000000000E+00  0.00000000000E+00  0.74505805969E-08  0.10566000000E+00  0.10566000000E+00 0. -1.
     999900   -1    0    0    0    0 -0.00000000000E+00 -0.00000000000E+00 -0.74505805969E-08  0.93827000000E+00  0.93827000000E+00 0.  1.
     999902    2    1    2    0    0  0.17263760682E-01 -0.13177462797E-01 -0.16340343041E-01  0.10167511522E+01  0.10163878274E+01 0.  0.
     999903    2    3    3    0    0 -0.11929104255E-01 -0.98918461860E-01 -0.79739314615E-01  0.12983335898E+00  0.23899313448E-01 0.  0.
         14    1    1    2    0    0 -0.17263760682E-01  0.13177462797E-01  0.16340343041E-01  0.27178847830E-01  0.00000000000E+00 0. -1.
     999901    1    3    3    0    0  0.29192864937E-01  0.85740999064E-01  0.63398971573E-01  0.88691779319E+00  0.88000000000E+00 0. -1.
        -11    1    4    4    0    0 -0.78650589604E-02 -0.81377239593E-01 -0.75592685511E-01  0.11134913336E+00  0.51100000000E-03 0.  1.
         11    1    4    4    0    0 -0.40640452945E-02 -0.17541222268E-01 -0.41466291034E-02  0.18484225619E-01  0.51100000000E-03 0. -1.
</event>
<event>
 8    1  0.1054086E+005  0.1043930E+01  0.7957747E-01            NaN
         13   -1    0    0    0    0  0.00000000000E+00  0.00000000000E+00  0.74505805969E-08  0.10566000000E+00  0.10566000000E+00 0. -1.
     999900   -1    0    0    0    0 -0.00000000000E+00 -0.00000000000E+00 -0.74505805969E-08  0.93827000000E+00  0.93827000000E+00 0. -1.
     999902    2    1    2    0    0 -0.11717215758E-01  0.19932703226E-01 -0.94011786968E-02  0.10189702732E+01  0.10186645324E+01 0.  0.
     999903    2    3    3    0    0 -0.11563350250E+00  0.58739971029E-01  0.12573176977E-01  0.13173441332E+00  0.19348895982E-01 0.  0.
         14    1    1    2    0    0  0.11717215758E-01 -0.19932703226E-01  0.94011786968E-02  0.24959726840E-01  0.00000000000E+00 0. -1.
     999901    1    3    3    0    0  0.10391628674E+00 -0.38807267803E-01 -0.21974355674E-01  0.88723585984E+00  0.88000000000E+00 0.  1.
        -11    1    4    4    0    0 -0.97032484786E-01  0.46871222251E-01  0.17359430872E-01  0.10915047201E+00  0.51100000000E-03 0.  1.
         11    1    4    4    0    0 -0.18601017714E-01  0.11868748779E-01 -0.47862538947E-02  0.22583941306E-01  0.51100000000E-03 0. -1.
</event>
<event>
 8    1  0.1054086E+005  0.1043930E+01  0.7957747E-01            NaN
         13   -1    0    0    0    0  0.00000000000E+00  0.00000000000E+00  0.74505805969E-08  0.10566000000E+00  0.10566000000E+00 0. -1.
     999900   -1    0    0    0    0 -0.00000000000E+00 -0.00000000000E+00 -0.74505805969E-08  0.93827000000E+00  0.93827000000E+00 0.  1.
     999902    2    1    2    0    0  0.14339973568E-01  0.31016530375E-02  0.16142484796E-01  0.10221163596E+01  0.10218835636E+01 0.  0.
     999903    2    3    3    0    0  0.86484708311E-01  0.30864597858E-02  0.10163424230E+00  0.13503479422E+00  0.20389836609E-01 0.  0.
         14    1    1    2    0    0 -0.14339973568E-01 -0.31016530375E-02 -0.16142484796E-01  0.21813640432E-01  0.00000000000E+00 0.  1.
     999901    1    3    3    0    0 -0.72144734743E-01  0.15193251658E-04 -0.85491757500E-01  0.88708156535E+00  0.88000000000E+00 0.  1.
        -11    1    4    4    0    0  0.30563426409E-01  0.57518342694E-02  0.23844365604E-01  0.39192110473E-01  0.51100000000E-03 0.  1.
         11    1    4    4    0    0  0.55921281903E-01 -0.26653744836E-02  0.77789876692E-01  0.95842683746E-01  0.51100000000E-03 0. -1.
</event>
<event>
 8    1  0.1054086E+005  0.1043930E+01  0.7957747E-01            NaN
         13   -1    0    0    0    0  0.00000000000E+00  0.00000000000E+00  0.74505805969E-08  0.10566000000E+00  0.10566000000E+00 0. -1.
     999900   -1    0    0    0    0 -0.00000000000E+00 -0.00000000000E+00 -0.74505805969E-08  0.93827000000E+00  0.93827000000E+00 0. -1.
     999902    2    1    2    0    0 -0.68411767351E-02 -0.81193642338E-03  0.22522534509E-01  0.10203773887E+01  0.10201055288E+01 0.  0.
     999903    2    3    3    0    0 -0.10647256382E+00 -0.69125235004E-01  0.31308346071E-01  0.13208109207E+00  0.18721575505E-01 0.  0.
         14    1    1    2    0    0  0.68411767351E-02  0.81193642338E-03 -0.22522534509E-01  0.23552611333E-01  0.00000000000E+00 0.  1.
     999901    1    3    3    0    0  0.99631387084E-01  0.68313298580E-01 -0.87858115611E-02  0.88829629659E+00  0.88000000000E+00 0. -1.
        -11    1    4    4    0    0 -0.71640018677E-01 -0.50516995960E-01  0.29691574237E-01  0.92553281187E-01  0.51100000000E-03 0. -1.
         11    1    4    4    0    0 -0.34832545142E-01 -0.18608239044E-01  0.16167718340E-02  0.39527810888E-01  0.51100000000E-03 0.  1.
</event>
<event>
 8    1  0.1054086E+005  0.1043930E+01  0.7957747E-01            NaN
         13   -1    0    0    0    0  0.00000000000E+00  0.00000000000E+00  0.74505805969E-08  0.10566000000E+00  0.10566000000E+00 0.  1.
     999900   -1    0    0    0    0 -0.00000000000E+00 -0.00000000000E+00 -0.74505805969E-08  0.93827000000E+00  0.93827000000E+00 0.  1.
     999902    2    1    2    0    0  0.20572554500E-01  0.12092784094E-01 -0.10113509428E-02  0.10200451040E+01  0.10197654269E+01 0.  0.
     999903    2    3    3    0    0  0.96708642199E-01  0.50081812118E-01  0.74007509616E-01  0.13276403268E+00  0.16983153788E-01 0.  0.
         14    1    1    2    0    0 -0.20572554500E-01 -0.12092784094E-01  0.10113509428E-02  0.23884895992E-01  0.00000000000E+00 0. -1.
     999901    1    3    3    0    0 -0.76136087699E-01 -0.37989028024E-01 -0.75018860558E-01  0.88728107133E+00  0.88000000000E+00 0.  1.
        -11    1    4    4    0    0  0.52955061487E-01  0.23373387399E-01  0.48429821890E-01  0.75473588393E-01  0.51100000000E-03 0. -1.
         11    1    4    4    0    0  0.43753580712E-01  0.26708424719E-01  0.25577687726E-01  0.57290444286E-01  0.51100000000E-03 0.  1.
</event>
<event>
 8    1  0.1054086E+005  0.1043930E+01  0.7957747E-01            NaN
         13   -1    0    0    0    0  0.00000000000E+00  0.00000000000E+00  0.74505805969E-08  0.10566000000E+00  0.10566000000E+00 0.  1.
     999900   -1    0    0    0    0 -0.00000000000E+00 -0.00000000000E+00 -0.74505805969E-08  0.93827000000E+00  0.93827000000E+00 0. -1.
     999902    2    1    2    0    0 -0.19236723818E-01  0.88424533361E-02  0.99566724858E-02  0.10205339351E+01  0.10202657188E+01 0.  0.
     999903    2    3    3    0    0  0.24623277886E-01 -0.12322213196E+00 -0.21272546242E-01  0.12905201241E+00  0.20295345919E-01 0.  0.
         14    1    1    2    0    0  0.19236723818E-01 -0.88424533361E-02 -0.99566724858E-02  0.23396064867E-01  0.00000000000E+00 0. -1.
     999901    1    3    3    0    0 -0.43860001704E-01  0.13206458529E+00  0.31229218728E-01  0.89148192272E+00  0.88000000000E+00 0.  1.
        -11    1    4    4    0    0 -0.33582078377E-02 -0.20762115308E-01 -0.46478293040E-02  0.21545450336E-01  0.51100000000E-03 0.  1.
         11    1    4    4    0    0  0.27981485724E-01 -0.10246001665E+00 -0.16624716938E-01  0.10750656207E+00  0.51100000000E-03 0. -1.
</event>
<event>
 8    1  0.1054086E+005  0.1043930E+01  0.7957747E-01            NaN
         13   -1    0    0    0    0  0.00000000000E+00  0.00000000000E+00  0.74505805969E-08  0.10566000000E+00  0.10566000000E+00 0.  1.
     999900   -1    0    0    0    0 -0.00000000000E+00 -0.00000000000E+00 -0.74505805969E-08  0.93827000000E+00  0.93827000000E+00 0.  1.
     999902    2    1    2    0    0 -0.74596116085E-02 -0.19165603094E-01  0.12499337212E-01  0.10198634344E+01  0.10195794355E+01 0.  0.
     999903    2    3    3    0    0 -0.39047021006E-03 -0.34853494923E-01 -0.12306091808E+00  0.12931716078E+00  0.19079306506E-01 0.  0.
         14    1    1    2    0    0  0.74596116085E-02  0.19165603094E-01 -0.12499337212E-01  0.24066565563E-01  0.00000000000E+00 0. -1.
     999901    1    3    3    0    0 -0.70691413985E-02  0.15687891830E-01  0.13556025530E+00  0.89054627366E+00  0.88000000000E+00 0. -1.
        -11    1    4    4    0    0 -0.60439159599E-02 -0.31141661691E-01 -0.86555164468E-01  0.92186710703E-01  0.51100000000E-03 0.  1.
         11    1    4    4    0    0  0.56534457498E-02 -0.37118332321E-02 -0.36505753616E-01  0.37130450076E-01  0.51100000000E-03 0. -1.
</event>
<event>
 8    1  0.1054086E+005  0.1043930E+01  0.7957747E-01            NaN
         13   -1    0    0    0    0  0.00000000000E+00  0.00000000000E+00  0.74505805969E-08  0.10566000000E+00  0.10566000000E+00 0.  1.
     999900   -1    0    0    0    0 -0.00000000000E+00 -0.00000000000E+00 -0.74505805969E-08  0.93827000000E+00  0.93827000000E+00 0. -1.
     999902    2    1    2    0    0  0.15514112125E-01  0.12209964749E-01 -0.78862808120E-02  0.10226705471E+01  0.10224495506E+01 0.  0.
     999903    2    3    3    0    0 -0.46165375560E-01 -0.11510417981E+00 -0.36632243138E-01  0.13090848185E+00  0.20368978140E-01 0.  0.
         14    1    1    2    0    0 -0.15514112125E-01 -0.12209964749E-01  0.78862808120E-02  0.21259452938E-01  0.00000000000E+00 0. -1.
     999901    1    3    3    0    0  0.61679487685E-01  0.12731414456E+00  0.28745962326E-01  0.89176206522E+00  0.88000000000E+00 0.  1.
        -11    1    4    4    0    0 -0.22997980512E-01 -0.32092350910E-01 -0.12185110861E-01  0.41322683144E-01  0.51100000000E-03 0. -1.
         11    1    4    4    0    0 -0.23167395048E-01 -0.83011828905E-01 -0.24447132277E-01  0.89585798702E-01  0.51100000000E-03 0.  1.
</event>
<event>
 8    1  0.1054086E+005  0.1043930E+01  0.7957747E-01            NaN
         13   -1    0    0    0    0  0.00000000000E+00  0.00000000000E+00  0.74505805969E-08  0.10566000000E+00  0.10566000000E+00 0.  1.
     999900   -1    0    0    0    0 -0.00000000000E+00 -0.00000000000E+00 -0.74505805969E-08  0.93827000000E+00  0.93827000000E+00 0.  1.
     999902    2    1    2    0    0  0.58477568511E-02 -0.41915581332E-02  0.21892084155E-01  0.10208859385E+01  0.10206258231E+01 0.  0.
     999903    2    3    3    0    0  0.64266216989E-01 -0.10998728457E+00 -0.24793443005E-01  0.13140013727E+00  0.20589605271E-01 0.  0.
         14    1    1    2    0    0 -0.58477568511E-02  0.41915581332E-02 -0.21892084155E-01  0.23044061457E-01  0.00000000000E+00 0. -1.
     999901    1    3    3    0    0 -0.58418460138E-01  0.10579572644E+00  0.46685527160E-01  0.88948580127E+00  0.88000000000E+00 0. -1.
        -11    1    4    4    0    0  0.22483188421E-01 -0.21361016056E-01 -0.45706838329E-02  0.31351858641E-01  0.51100000000E-03 0. -1.
         11    1    4    4    0    0  0.41783028568E-01 -0.88626268517E-01 -0.20222759172E-01  0.10004827863E+00  0.51100000000E-03 0.  1.
</event>
<event>
 8    1  0.1054086E+005  0.1043930E+01  0.7957747E-01            NaN
         13   -1    0    0    0    0  0.00000000000E+00  0.00000000000E+00  0.74505805969E-08  0.10566000000E+00  0.10566000000E+00 0. -1.
     999900   -1    0    0    0    0 -0.00000000000E+00 -0.00000000000E+00 -0.74505805969E-08  0.93827000000E+00  0.93827000000E+00 0.  1.
     999902    2    1    2    0    0 -0.18705150208E-01  0.44262085213E-02 -0.20119321805E-01  0.10161044528E+01  0.10157233865E+01 0.  0.
     999903    2    3    3    0    0  0.26930998900E-01 -0.11885062451E+00 -0.26595249222E-01  0.12631696510E+00  0.19947900675E-01 0.  0.
         14    1    1    2    0    0  0.18705150208E-01 -0.44262085213E-02  0.20119321805E-01  0.27825547183E-01  0.00000000000E+00 0. -1.
     999901    1    3    3    0    0 -0.45636149108E-01  0.12327683303E+00  0.64759274173E-02  0.88978748772E+00  0.88000000000E+00 0.  1.
        -11    1    4    4    0    0  0.79376422517E-02 -0.62385687973E-01 -0.21745014898E-01  0.66543872914E-01  0.51100000000E-03 0.  1.
         11    1    4    4    0    0  0.18993356648E-01 -0.56464936538E-01 -0.48502343235E-02  0.59773092182E-01  0.51100000000E-03 0. -1.
</event>
<event>
 8    1  0.1054086E+005  0.1043930E+01  0.7957747E-01            NaN
         13   -1    0    0    0    0  0.00000000000E+00  0.00000000000E+00  0.74505805969E-08  0.10566000000E+00  0.10566000000E+00 0. -1.
     999900   -1    0    0    0    0 -0.00000000000E+00 -0.00000000000E+00 -0.74505805969E-08  0.93827000000E+00  0.93827000000E+00 0.  1.
     999902    2    1    2    0    0 -0.20654330038E-02  0.14538447992E-02 -0.24802396343E-01  0.10189993253E+01  0.10186943047E+01 0.  0.
     999903    2    3    3    0    0 -0.28288566798E-01 -0.12233568589E+00 -0.26762755062E-01  0.12994626518E+00  0.20087899861E-01 0.  0.
         14    1    1    2    0    0  0.20654330038E-02 -0.14538447992E-02  0.24802396343E-01  0.24930674731E-01  0.00000000000E+00 0. -1.
     999901    1    3    3    0    0  0.26223133794E-01  0.12378953069E+00  0.19603587184E-02  0.88905306009E+00  0.88000000000E+00 0. -1.
        -11    1    4    4    0    0 -0.15730587736E-01 -0.29155957943E-01 -0.65136888693E-02  0.33767003683E-01  0.51100000000E-03 0.  1.
         11    1    4    4    0    0 -0.12557979062E-01 -0.93179727948E-01 -0.20249066192E-01  0.96179261492E-01  0.51100000000E-03 0. -1.
</event>
<event>
 8    1  0.1054086E+005  0.1043930E+01  0.7957747E-01            NaN
         13   -1    0    0    0    0  0.00000000000E+00  0.00000000000E+00  0.74505805969E-08  0.10566000000E+00  0.10566000000E+00 0. -1.
     999900   -1    0    0    0    0 -0.00000000000E+00 -0.00000000000E+00 -0.74505805969E-08  0.93827000000E+00  0.93827000000E+00 0.  1.
     999902    2    1    2    0    0  0.14031257053E-01  0.16115804884E-01 -0.23045914163E-02  0.10224379902E+01  0.10222120805E+01 0.  0.
     999903    2    3    3    0    0  0.41443387518E-01  0.65617129525E-01  0.10712838895E+00  0.13385632083E+00  0.20441645034E-01 0.  0.
         14    1    1    2    0    0 -0.14031257053E-01 -0.16115804884E-01  0.23045914163E-02  0.21492009751E-01  0.00000000000E+00 0. -1.
     999901    1    3    3    0    0 -0.27412130464E-01 -0.49501324641E-01 -0.10943298036E+00  0.88858166942E+00  0.88000000000E+00 0.  1.
        -11    1    4    4    0    0  0.24028414394E-01  0.20917528583E-01  0.36172675147E-01  0.48204058425E-01  0.51100000000E-03 0.  1.
         11    1    4    4    0    0  0.17414973124E-01  0.44699600942E-01  0.70955713799E-01  0.85652262404E-01  0.51100000000E-03 0. -1.
</event>
<event>
 8    1  0.1054086E+005  0.1043930E+01  0.7957747E-01            NaN
         13   -1    0    0    0    0  0.00000000000E+00  0.00000000000E+00  0.74505805969E-08  0.10566000000E+00  0.10566000000E+00 0.  1.
     999900   -1    0    0    0    0 -0.00000000000E+00 -0.00000000000E+00 -0.74505805969E-08  0.93827000000E+00  0.93827000000E+00 0.  1.
     999902    2    1    2    0    0 -0.17692611938E-01  0.68714825030E-02 -0.16049335920E-01  0.10190738745E+01  0.10187706979E+01 0.  0.
     999903    2    3    3    0    0 -0.15979026636E-01  0.12714301289E+00  0.13306862048E-01  0.13040635306E+00  0.20200725723E-01 0.  0.
         14    1    1    2    0    0  0.17692611938E-01 -0.68714825030E-02  0.16049335920E-01  0.24856125452E-01  0.00000000000E+00 0.  1.
     999901    1    3    3    0    0 -0.17135853024E-02 -0.12027153039E+00 -0.29356197969E-01  0.88866752149E+00  0.88000000000E+00 0. -1.
        -11    1    4    4    0    0 -0.47316690209E-02  0.33706398679E-01  0.12580470993E-01  0.36291037117E-01  0.51100000000E-03 0. -1.
         11    1    4    4    0    0 -0.11247357615E-01  0.93436614215E-01  0.72639105534E-03  0.94115315939E-01  0.51100000000E-03 0.  1.
</event>
<event>
 8    1  0.1054086E+005  0.1043930E+01  0.7957747E-01            NaN
         13   -1    0    0    0    0  0.00000000000E+00  0.00000000000E+00  0.74505805969E-08  0.10566000000E+00  0.10566000000E+00 0. -1.
     999900   -1    0    0    0    0 -0.00000000000E+00 -0.00000000000E+00 -0.74505805969E-08  0.93827000000E+00  0.93827000000E+00 0.  1.
     999902    2    1    2    0    0 -0.68409726192E-03 -0.23297151447E-01 -0.23699798290E-03  0.10206216019E+01  0.10203554149E+01 0.  0.
     999903    2    3    3    0    0  0.11142890585E+00 -0.31374849451E-01  0.58888577095E-01  0.13150383224E+00  0.20606094816E-01 0.  0.
         14    1    1    2    0    0  0.68409726192E-03  0.23297151447E-01  0.23699798290E-03  0.23308398114E-01  0.00000000000E+00 0. -1.
     999901    1    3    3    0    0 -0.11211300312E+00  0.80776980042E-02 -0.59125575078E-01  0.88911776965E+00  0.88000000000E+00 0.  1.
        -11    1    4    4    0    0  0.46540680448E-01 -0.26535460833E-02  0.23323266922E-01  0.52127844232E-01  0.51100000000E-03 0.  1.
         11    1    4    4    0    0  0.64888225406E-01 -0.28721303367E-01  0.35565310173E-01  0.79375988008E-01  0.51100000000E-03 0. -1.
</event>
<event>
 8    1  0.1054086E+005  0.1043930E+01  0.7957747E-01            NaN
         13   -1    0    0    0    0  0.00000000000E+00  0.00000000000E+00  0.74505805969E-08  0.10566000000E+00  0.10566000000E+00 0.  1.
     999900   -1    0    0    0    0 -0.00000000000E+00 -0.00000000000E+00 -0.74505805969E-08  0.93827000000E+00  0.93827000000E+00 0. -1.
     999902    2    1    2    0    0 -0.10057093343E-01  0.14318120116E-01  0.14960811137E-01  0.10209087151E+01  0.10206491194E+01 0.  0.
     999903    2    3    3    0    0  0.34971791340E-02  0.11740157841E+00  0.60536842900E-01  0.13361671558E+00  0.19833216077E-01 0.  0.
         14    1    1    2    0    0  0.10057093343E-01 -0.14318120116E-01 -0.14960811137E-01  0.23021284935E-01  0.00000000000E+00 0. -1.
     999901    1    3    3    0    0 -0.13554272477E-01 -0.10308345829E+00 -0.45576031763E-01  0.88729199948E+00  0.88000000000E+00 0. -1.
        -11    1    4    4    0    0  0.97042303863E-02  0.95580003813E-01  0.44824436530E-01  0.10601509538E+00  0.51100000000E-03 0. -1.
         11    1    4    4    0    0 -0.62070512523E-02  0.21821574594E-01  0.15712406370E-01  0.27601620206E-01  0.51100000000E-03 0.  1.
</event>
<event>
 8    1  0.1054086E+005  0.1043930E+01  0.7957747E-01            NaN
         13   -1    0    0    0    0  0.00000000000E+00  0.00000000000E+00  0.74505805969E-08  0.10566000000E+00  0.10566000000E+00 0.  1.
     999900   -1    0    0    0    0 -0.00000000000E+00 -0.00000000000E+00 -0.74505805969E-08  0.93827000000E+00  0.93827000000E+00 0. -1.
     999902    2    1    2    0    0 -0.19534974348E-01  0.17148060672E-01  0.31953929476E-02  0.10177406559E+01  0.10174036372E+01 0.  0.
     999903    2    3    3    0    0 -0.31607210533E-01  0.11821099315E-01  0.12362741563E+00  0.12944003817E+00  0.18227216956E-01 0.  0.
         14    1    1    2    0    0  0.19534974348E-01 -0.17148060672E-01 -0.31953929476E-02  0.26189344086E-01  0.00000000000E+00 0.  1.
     999901    1    3    3    0    0  0.12072236185E-01  0.53269613574E-02 -0.12043202268E+00  0.88830061775E+00  0.88000000000E+00 0. -1.
        -11    1    4    4    0    0 -0.45213116162E-02  0.35559640527E-02  0.53471693585E-01  0.53782620566E-01  0.51100000000E-03 0. -1.
         11    1    4    4    0    0 -0.27085898917E-01  0.82651352621E-02  0.70155722047E-01  0.75657417600E-01  0.51100000000E-03 0.  1.
</event>
<event>
 8    1  0.1054086E+005  0.1043930E+01  0.7957747E-01            NaN
         13   -1    0    0    0    0  0.00000000000E+00  0.00000000000E+00  0.74505805969E-08  0.10566000000E+00  0.10566000000E+00 0.  1.
     999900   -1    0    0    0    0 -0.00000000000E+00 -0.00000000000E+00 -0.74505805969E-08  0.93827000000E+00  0.93827000000E+00 0.  1.
     999902    2    1    2    0    0  0.96281430062E-02  0.20638331428E-01 -0.66012212521E-02  0.10202188637E+01  0.10199432886E+01 0.  0.
     999903    2    3    3    0    0 -0.40998039187E-01  0.57339234176E-01  0.10788719573E+00  0.13060233722E+00  0.21182457200E-01 0.  0.
         14    1    1    2    0    0 -0.96281430062E-02 -0.20638331428E-01  0.66012212521E-02  0.23711136284E-01  0.00000000000E+00 0.  1.
     999901    1    3    3    0    0  0.50626182193E-01 -0.36700902749E-01 -0.11448841698E+00  0.88961652649E+00  0.88000000000E+00 0.  1.
        -11    1    4    4    0    0 -0.13360131105E-01  0.36620980384E-01  0.54309209577E-01  0.66853127625E-01  0.51100000000E-03 0.  1.
         11    1    4    4    0    0 -0.27637908082E-01  0.20718253792E-01  0.53577986152E-01  0.63749209598E-01  0.51100000000E-03 0. -1.
</event>
<event>
 8    1  0.1054086E+005  0.1043930E+01  0.7957747E-01            NaN
         13   -1    0    0    0    0  0.00000000000E+00  0.00000000000E+00  0.74505805969E-08  0.10566000000E+00  0.10566000000E+00 0. -1.
     999900   -1    0    0    0    0 -0.00000000000E+00 -0.00000000000E+00 -0.74505805969E-08  0.93827000000E+00  0.93827000000E+00 0. -1.
     999902    2    1    2    0    0  0.17047147836E-02 -0.74155075482E-02 -0.23754260112E-01  0.10189868511E+01  0.10186815214E+01 0.  0.
     999903    2    3    3    0    0 -0.78598090790E-01  0.92818503989E-01  0.33901320695E-01  0.12779688050E+00  0.19743570179E-01 0.  0.
         14    1    1    2    0    0 -0.17047147836E-02  0.74155075482E-02  0.23754260112E-01  0.24943148922E-01  0.00000000000E+00 0. -1.
     999901    1    3    3    0    0  0.80302805573E-01 -0.10023401154E+00 -0.57655580807E-01  0.89118997057E+00  0.88000000000E+00 0.  1.
        -11    1    4    4    0    0 -0.13769664580E-01  0.27443746557E-01  0.13217114962E-01  0.33432261914E-01  0.51100000000E-03 0. -1.
         11    1    4    4    0    0 -0.64828426210E-01  0.65374757432E-01  0.20684205733E-01  0.94364618591E-01  0.51100000000E-03 0.  1.
</event>
<event>
 8    1  0.1054086E+005  0.1043930E+01  0.7957747E-01            NaN
         13   -1    0    0    0    0  0.00000000000E+00  0.00000000000E+00  0.74505805969E-08  0.10566000000E+00  0.10566000000E+00 0. -1.
     999900   -1    0    0    0    0 -0.00000000000E+00 -0.00000000000E+00 -0.74505805969E-08  0.93827000000E+00  0.93827000000E+00 0. -1.
     999902    2    1    2    0    0 -0.25604771150E-02  0.23280773285E-01  0.44482989800E-02  0.10200901633E+01  0.10198115530E+01 0.  0.
     999903    2    3    3    0    0 -0.49028578491E-02  0.13117606607E+00 -0.11349798775E-01  0.13335657266E+00  0.20590269907E-01 0.  0.
         14    1    1    2    0    0  0.25604771150E-02 -0.23280773285E-01 -0.44482989800E-02  0.23839836652E-01  0.00000000000E+00 0. -1.
     999901    1    3    3    0    0  0.23423807340E-02 -0.10789529279E+00  0.15798097755E-01  0.88673359068E+00  0.88000000000E+00 0.  1.
        -11    1    4    4    0    0 -0.13019922286E-03  0.67747101492E-01  0.41799602744E-02  0.67877978029E-01  0.51100000000E-03 0.  1.
         11    1    4    4    0    0 -0.47726586262E-02  0.63428964582E-01 -0.15529759050E-01  0.65478594635E-01  0.51100000000E-03 0. -1.
</event>
<event>
 8    1  0.1054086E+005  0.1043930E+01  0.7957747E-01            NaN
         13   -1    0    0    0    0  0.00000000000E+00  0.00000000000E+00  0.74505805969E-08  0.10566000000E+00  0.10566000000E+00 0. -1.
     999900   -1    0    0    0    0 -0.00000000000E+00 -0.00000000000E+00 -0.74505805969E-08  0.93827000000E+00  0.93827000000E+00 0.  1.
     999902    2    1    2    0    0  0.40463397797E-02  0.20082416127E-01 -0.81550311645E-02  0.10218804912E+01  0.10216425782E+01 0.  0.
     999903    2    3    3    0    0 -0.11323858874E+00  0.24415016700E-01 -0.61370297038E-01  0.13249509087E+00  0.19224066309E-01 0.  0.
         14    1    1    2    0    0 -0.40463397797E-02 -0.20082416127E-01  0.81550311645E-02  0.22049508756E-01  0.00000000000E+00 0. -1.
     999901    1    3    3    0    0  0.11728492852E+00 -0.43326005729E-02  0.53215265873E-01  0.88938540038E+00  0.88000000000E+00 0. -1.
        -11    1    4    4    0    0 -0.43464078849E-01  0.96181783002E-02 -0.13233673051E-01  0.46443801820E-01  0.51100000000E-03 0.  1.
         11    1    4    4    0    0 -0.69774509887E-01  0.14796838399E-01 -0.48136623987E-01  0.86051289045E-01  0.51100000000E-03 0. -1.
</event>
<event>
 8    1  0.1054086E+005  0.1043930E+01  0.7957747E-01            NaN
         13   -1    0    0    0    0  0.00000000000E+00  0.00000000000E+00  0.74505805969E-08  0.10566000000E+00  0.10566000000E+00 0.  1.
     999900   -1    0    0    0    0 -0.00000000000E+00 -0.00000000000E+00 -0.74505805969E-08  0.93827000000E+00  0.93827000000E+00 0.  1.
     999902    2    1    2    0    0 -0.22153992868E-01  0.26530172723E-01 -0.14194723770E-02  0.10093371631E+01  0.10087441918E+01 0.  0.
     999903    2    3    3    0    0  0.54144621931E-01 -0.77790882132E-01 -0.66521029810E-01  0.11751735286E+00  0.20055407996E-01 0.  0.
         14    1    1    2    0    0  0.22153992868E-01 -0.26530172723E-01  0.14194723770E-02  0.34592836926E-01  0.00000000000E+00 0.  1.
     999901    1    3    3    0    0 -0.76298614799E-01  0.10432105486E+00  0.65101557433E-01  0.89181981021E+00  0.88000000000E+00 0.  1.
        -11    1    4    4    0    0  0.47036294286E-01 -0.52507648172E-01 -0.50950692596E-01  0.86981034104E-01  0.51100000000E-03 0. -1.
         11    1    4    4    0    0  0.71083276448E-02 -0.25283233960E-01 -0.15570337214E-01  0.30536318759E-01  0.51100000000E-03 0.  1.
</event>
<event>
 8    1  0.1054086E+005  0.1043930E+01  0.7957747E-01            NaN
         13   -1    0    0    0    0  0.00000000000E+00  0.00000000000E+00  0.74505805969E-08  0.10566000000E+00  0.10566000000E+00 0.  1.
     999900   -1    0    0    0    0 -0.00000000000E+00 -0.00000000000E+00 -0.74505805969E-08  0.93827000000E+00  0.93827000000E+00 0.  1.
     999902    2    1    2    0    0  0.11742474559E-02  0.23847358366E-01 -0.17317489112E-02  0.10199910294E+01  0.10197100695E+01 0.  0.
     999903    2    3    3    0    0  0.92134831582E-01  0.40749487257E-01 -0.81630667272E-01  0.13154106067E+00  0.22139035645E-01 0.  0.
         14    1    1    2    0    0 -0.11742474559E-02 -0.23847358366E-01  0.17317489112E-02  0.23938970580E-01  0.00000000000E+00 0.  1.
     999901    1    3    3    0    0 -0.90960584126E-01 -0.16902128891E-01  0.79898918360E-01  0.88844996876E+00  0.88000000000E+00 0. -1.
        -11    1    4    4    0    0  0.51362355245E-01  0.30478427188E-01 -0.37184800154E-01  0.70356211834E-01  0.51100000000E-03 0.  1.
         11    1    4    4    0    0  0.40772476337E-01  0.10271060069E-01 -0.44445867118E-01  0.61184848831E-01  0.51100000000E-03 0. -1.
</event>
<event>
 8    1  0.1054086E+005  0.1043930E+01  0.7957747E-01            NaN
         13   -1    0    0    0    0  0.00000000000E+00  0.00000000000E+00  0.74505805969E-08  0.10566000000E+00  0.10566000000E+00 0. -1.
     999900   -1    0    0    0    0 -0.00000000000E+00 -0.00000000000E+00 -0.74505805969E-08  0.93827000000E+00  0.93827000000E+00 0.  1.
     999902    2    1    2    0    0 -0.20690990078E-01 -0.25996176722E-02  0.12489105643E-01  0.10196225353E+01  0.10193327531E+01 0.  0.
     999903    2    3    3    0    0 -0.49606730478E-01  0.96744436995E-01  0.71425871453E-01  0.13160288254E+00  0.19933634461E-01 0.  0.
         14    1    1    2    0    0  0.20690990078E-01  0.25996176722E-02 -0.12489105643E-01  0.24307464742E-01  0.00000000000E+00 0.  1.
     999901    1    3    3    0    0  0.28915740400E-01 -0.99344054668E-01 -0.58936765811E-01  0.88801965271E+00  0.88000000000E+00 0.  1.
        -11    1    4    4    0    0 -0.39422916041E-01  0.66346577277E-01  0.59283627690E-01  0.97318262719E-01  0.51100000000E-03 0. -1.
         11    1    4    4    0    0 -0.10183814437E-01  0.30397859719E-01  0.12142243763E-01  0.34284619826E-01  0.51100000000E-03 0.  1.
</event>
<event>
 8    1  0.1054086E+005  0.1043930E+01  0.7957747E-01            NaN
         13   -1    0    0    0    0  0.00000000000E+00  0.00000000000E+00  0.74505805969E-08  0.10566000000E+00  0.10566000000E+00 0. -1.
     999900   -1    0    0    0    0 -0.00000000000E+00 -0.00000000000E+00 -0.74505805969E-08  0.93827000000E+00  0.93827000000E+00 0.  1.
     999902    2    1    2    0    0  0.21941192831E-01  0.60800860247E-02  0.69401631297E-02  0.10201277049E+01  0.10198499816E+01 0.  0.
     999903    2    3    3    0    0  0.30791668285E-01  0.22102211203E-01 -0.12308959395E+00  0.13038460873E+00  0.20309196919E-01 0.  0.
         14    1    1    2    0    0 -0.21941192831E-01 -0.60800860247E-02 -0.69401631297E-02  0.23802295124E-01  0.00000000000E+00 0.  1.
     999901    1    3    3    0    0 -0.88504754547E-02 -0.16022125178E-01  0.13002975708E+00  0.88974309614E+00  0.88000000000E+00 0. -1.
        -11    1    4    4    0    0  0.19881968823E-01  0.53180139071E-02 -0.83730745202E-01  0.86224548530E-01  0.51100000000E-03 0.  1.
         11    1    4    4    0    0  0.10909699463E-01  0.16784197296E-01 -0.39358848748E-01  0.44160060201E-01  0.51100000000E-03 0. -1.
</event>
<event>
 8    1  0.1054086E+005  0.1043930E+01  0.7957747E-01            NaN
         13   -1    0    0    0    0  0.00000000000E+00  0.00000000000E+00  0.74505805969E-08  0.10566000000E+00  0.10566000000E+00 0. -1.
     999900   -1    0    0    0    0 -0.00000000000E+00 -0.00000000000E+00 -0.74505805969E-08  0.93827000000E+00  0.93827000000E+00 0.  1.
     999902    2    1    2    0    0 -0.46236118086E-02 -0.14669184986E-01  0.17630664609E-01  0.10205333526E+01  0.10202651227E+01 0.  0.
     999903    2    3    3    0    0 -0.22602123323E-01 -0.10108161950E+00 -0.77480385480E-01  0.13101862673E+00  0.20840360787E-01 0.  0.
         14    1    1    2    0    0  0.46236118086E-02  0.14669184986E-01 -0.17630664609E-01  0.23396647385E-01  0.00000000000E+00 0.  1.
     999901    1    3    3    0    0  0.17978511514E-01  0.86412434511E-01  0.95111050089E-01  0.88951472588E+00  0.88000000000E+00 0. -1.
        -11    1    4    4    0    0 -0.58220258945E-02 -0.14776022292E-01 -0.21693735948E-01  0.26890632582E-01  0.51100000000E-03 0. -1.
         11    1    4    4    0    0 -0.16780097428E-01 -0.86305597205E-01 -0.55786649532E-01  0.10412799415E+00  0.51100000000E-03 0.  1.
</event>
<event>
 8    1  0.1054086E+005  0.1043930E+01  0.7957747E-01            NaN
         13   -1    0    0    0    0  0.00000000000E+00  0.00000000000E+00  0.74505805969E-08  0.10566000000E+00  0.10566000000E+00 0. -1.
     999900   -1    0    0    0    0 -0.00000000000E+00 -0.00000000000E+00 -0.74505805969E-08  0.93827000000E+00  0.93827000000E+00 0.  1.
     999902    2    1    2    0    0  0.97347316255E-03 -0.23668810936E-01 -0.10084176645E-01  0.10181841095E+01  0.10178585510E+01 0.  0.
     999903    2    3    3    0    0 -0.32374206794E-01 -0.10536810511E+00  0.66487039253E-01  0.13046230983E+00  0.21198138111E-01 0.  0.
         14    1    1    2    0    0 -0.97347316255E-03  0.23668810936E-01  0.10084176645E-01  0.25745890541E-01  0.00000000000E+00 0. -1.
     999901    1    3    3    0    0  0.33347679956E-01  0.81699294169E-01 -0.76571215899E-01  0.88772179963E+00  0.88000000000E+00 0.  1.
        -11    1    4    4    0    0  0.36990624314E-03 -0.18950948551E-01  0.17801563959E-01  0.26008307941E-01  0.51100000000E-03 0.  1.
         11    1    4    4    0    0 -0.32744113037E-01 -0.86417156555E-01  0.48685475294E-01  0.10445400189E+00  0.51100000000E-03 0. -1.
</event>
<event>
 8    1  0.1054086E+005  0.1043930E+01  0.7957747E-01            NaN
         13   -1    0    0    0    0  0.00000000000E+00  0.00000000000E+00  0.74505805969E-08  0.10566000000E+00  0.10566000000E+00 0.  1.
     999900   -1    0    0    0    0 -0.00000000000E+00 -0.00000000000E+00 -0.74505805969E-08  0.93827000000E+00  0.93827000000E+00 0.  1.
     999902    2    1    2    0    0  0.88625865480E-03  0.10476171781E-01 -0.21280407690E-01  0.10201941330E+01  0.10199179760E+01 0.  0.
     999903    2    3    3    0    0 -0.61790241410E-03  0.71560313364E-01  0.10549934059E+00  0.12901141359E+00  0.19813473129E-01 0.  0.
         14    1    1    2    0    0 -0.88625865480E-03 -0.10476171781E-01  0.21280407690E-01  0.23735866975E-01  0.00000000000E+00 0.  1.
     999901    1    3    3    0    0  0.15041610689E-02 -0.61084141584E-01 -0.12677974828E+00  0.89118271944E+00  0.88000000000E+00 0.  1.
        -11    1    4    4    0    0  0.62454717434E-02  0.47212622962E-01  0.56747570453E-01  0.74084988746E-01  0.51100000000E-03 0. -1.
         11    1    4    4    0    0 -0.68633741575E-02  0.24347690402E-01  0.48751770141E-01  0.54926424839E-01  0.51100000000E-03 0.  1.
</event>
<event>
 8    1  0.1054086E+005  0.1043930E+01  0.7957747E-01            NaN
         13   -1    0    0    0    0  0.00000000000E+00  0.00000000000E+00  0.74505805969E-08  0.10566000000E+00  0.10566000000E+00 0. -1.
     999900   -1    0    0    0    0 -0.00000000000E+00 -0.00000000000E+00 -0.74505805969E-08  0.93827000000E+00  0.93827000000E+00 0. -1.
     999902    2    1    2    0    0  0.68212797783E-02  0.18180078487E-01 -0.12944999466E-01  0.10205929453E+01  0.10203260958E+01 0.  0.
     999903    2    3    3    0    0 -0.83754015532E-01  0.74055626620E-01  0.64939705098E-01  0.13076600244E+00  0.19585993594E-01 0.  0.
         14    1    1    2    0    0 -0.68212797783E-02 -0.18180078487E-01  0.12944999466E-01  0.23337054716E-01  0.00000000000E+00 0. -1.
     999901    1    3    3    0    0  0.90575295311E-01 -0.55875548133E-01 -0.77884704565E-01  0.88982694284E+00  0.88000000000E+00 0. -1.
        -11    1    4    4    0    0 -0.53620383399E-01  0.34977456629E-01  0.33565153129E-01  0.72287264534E-01  0.51100000000E-03 0.  1.
         11    1    4    4    0    0 -0.30133632133E-01  0.39078169991E-01  0.31374551969E-01  0.58478737910E-01  0.51100000000E-03 0. -1.
</event>
<event>
 8    1  0.1054086E+005  0.1043930E+01  0.7957747E-01            NaN
         13   -1    0    0    0    0  0.00000000000E+00  0.00000000000E+00  0.74505805969E-08  0.10566000000E+00  0.10566000000E+00 0.  1.
     999900   -1    0    0    0    0 -0.00000000000E+00 -0.00000000000E+00 -0.74505805969E-08  0.93827000000E+00  0.93827000000E+00 0.  1.
     999902    2    1    2    0    0  0.12935843247E-01  0.14534193427E-01 -0.12968954878E-01  0.10205468306E+01  0.10202789133E+01 0.  0.
     999903    2    3    3    0    0  0.61210290298E-01 -0.10007183378E+00  0.51166617744E-01  0.12949221088E+00  0.19726589958E-01 0.  0.
         14    1    1    2    0    0 -0.12935843247E-01 -0.14534193427E-01  0.12968954878E-01  0.23383169368E-01  0.00000000000E+00 0.  1.
     999901    1    3    3    0    0 -0.48274447051E-01  0.11460602721E+00 -0.64135572622E-01  0.89105461975E+00  0.88000000000E+00 0.  1.
        -11    1    4    4    0    0 -0.26627148879E-03 -0.88995572151E-02  0.26700823503E-02  0.93093222035E-02  0.51100000000E-03 0.  1.
         11    1    4    4    0    0  0.61476561787E-01 -0.91172276567E-01  0.48496535394E-01  0.12018288867E+00  0.51100000000E-03 0. -1.
</event>
<event>
 8    1  0.1054086E+005  0.1043930E+01  0.7957747E-01            NaN
         13   -1    0    0    0    0  0.00000000000E+00  0.00000000000E+00  0.74505805969E-08  0.10566000000E+00  0.10566000000E+00 0. -1.
     999900   -1    0    0    0    0 -0.00000000000E+00 -0.00000000000E+00 -0.74505805969E-08  0.93827000000E+00  0.93827000000E+00 0.  1.
     999902    2    1    2    0    0  0.74275364686E-02 -0.59585701676E-02 -0.23135572832E-01  0.10189114551E+01  0.10186042538E+01 0.  0.
     999903    2    3    3    0    0 -0.95662223971E-01 -0.50784757784E-01  0.64237214939E-01  0.12746830505E+00  0.19783738057E-01 0.  0.
         14    1    1    2    0    0 -0.74275364686E-02  0.59585701676E-02  0.23135572832E-01  0.25018544856E-01  0.00000000000E+00 0. -1.
     999901    1    3    3    0    0  0.10308976044E+00  0.44826187617E-01 -0.87372787771E-01  0.89144315009E+00  0.88000000000E+00 0.  1.
        -11    1    4    4    0    0 -0.41587609612E-01 -0.24208910397E-01  0.39791371874E-01  0.62443694738E-01  0.51100000000E-03 0. -1.
         11    1    4    4    0    0 -0.54074614359E-01 -0.26575847387E-01  0.24445843065E-01  0.65024610314E-01  0.51100000000E-03 0.  1.
</event>
<event>
 8    1  0.1054086E+005  0.1043930E+01  0.7957747E-01            NaN
         13   -1    0    0    0    0  0.00000000000E+00  0.00000000000E+00  0.74505805969E-08  0.10566000000E+00  0.10566000000E+00 0. -1.
     999900   -1    0    0    0    0 -0.00000000000E+00 -0.00000000000E+00 -0.74505805969E-08  0.93827000000E+00  0.93827000000E+00 0. -1.
     999902    2    1    2    0    0  0.17062724032E-01  0.25926386652E-02  0.16740884030E-01  0.10198859670E+01  0.10196025059E+01 0.  0.
     999903    2    3    3    0    0 -0.32184316151E-01  0.80335904421E-01 -0.92396909303E-01  0.12838142728E+00  0.21328719528E-01 0.  0.
         14    1    1    2    0    0 -0.17062724032E-01 -0.25926386652E-02 -0.16740884030E-01  0.24044033039E-01  0.00000000000E+00 0.  1.
     999901    1    3    3    0    0  0.49247040183E-01 -0.77743265756E-01  0.10913779333E+00  0.89150453968E+00  0.88000000000E+00 0.  1.
        -11    1    4    4    0    0 -0.28802425944E-02  0.14347157064E-01 -0.28155694027E-01  0.31735483932E-01  0.51100000000E-03 0. -1.
         11    1    4    4    0    0 -0.29304073556E-01  0.65988747357E-01 -0.64241215276E-01  0.96645943349E-01  0.51100000000E-03 0.  1.
</event>
<event>
 8    1  0.1054086E+005  0.1043930E+01  0.7957747E-01            NaN
         13   -1    0    0    0    0  0.00000000000E+00  0.00000000000E+00  0.74505805969E-08  0.10566000000E+00  0.10566000000E+00 0. -1.
     999900   -1    0    0    0    0 -0.00000000000E+00 -0.00000000000E+00 -0.74505805969E-08  0.93827000000E+00  0.93827000000E+00 0. -1.
     999902    2    1    2    0    0 -0.12402560090E-02 -0.44049472405E-02  0.22551659522E-01  0.10209187171E+01  0.10206593495E+01 0.  0.
     999903    2    3    3    0    0  0.10491639924E-01 -0.71370985183E-01  0.11090101358E+00  0.13388563088E+00  0.20553231145E-01 0.  0.
         14    1    1    2    0    0  0.12402560090E-02  0.44049472405E-02 -0.22551659522E-01  0.23011282935E-01  0.00000000000E+00 0.  1.
     999901    1    3    3    0    0 -0.11731895933E-01  0.66966037943E-01 -0.88349354054E-01  0.88703308618E+00  0.88000000000E+00 0. -1.
        -11    1    4    4    0    0  0.15417750955E-01 -0.44692890184E-01  0.62121883772E-01  0.78067605586E-01  0.51100000000E-03 0. -1.
         11    1    4    4    0    0 -0.49261110311E-02 -0.26678094999E-01  0.48779129803E-01  0.55818025296E-01  0.51100000000E-03 0.  1.
</event>
<event>
 8    1  0.1054086E+005  0.1043930E+01  0.7957747E-01            NaN
         13   -1    0    0    0    0  0.00000000000E+00  0.00000000000E+00  0.74505805969E-08  0.10566000000E+00  0.10566000000E+00 0. -1.
     999900   -1    0    0    0    0 -0.00000000000E+00 -0.00000000000E+00 -0.74505805969E-08  0.93827000000E+00  0.93827000000E+00 0.  1.
     999902    2    1    2    0    0 -0.22376125462E-01 -0.56626088529E-02 -0.31039605490E-02  0.10206407170E+01  0.10203749716E+01 0.  0.
     999903    2    3    3    0    0 -0.57488460021E-01  0.10778969280E+00  0.43993285960E-01  0.13141495751E+00  0.20271678214E-01 0.  0.
         14    1    1    2    0    0  0.22376125462E-01  0.56626088529E-02  0.31039605490E-02  0.23289282961E-01  0.00000000000E+00 0. -1.
     999901    1    3    3    0    0  0.35112334558E-01 -0.11345230165E+00 -0.47097246509E-01  0.88922575953E+00  0.88000000000E+00 0.  1.
        -11    1    4    4    0    0 -0.29376519558E-01  0.62809483365E-01  0.34782246579E-01  0.77576265056E-01  0.51100000000E-03 0.  1.
         11    1    4    4    0    0 -0.28111940463E-01  0.44980209434E-01  0.92110393806E-02  0.53838692450E-01  0.51100000000E-03 0. -1.
</event>
<event>
 8    1  0.1054086E+005  0.1043930E+01  0.7957747E-01            NaN
         13   -1    0    0    0    0  0.00000000000E+00  0.00000000000E+00  0.74505805969E-08  0.10566000000E+00  0.10566000000E+00 0. -1.
     999900   -1    0    0    0    0 -0.00000000000E+00 -0.00000000000E+00 -0.74505805969E-08  0.93827000000E+00  0.93827000000E+00 0. -1.
     999902    2    1    2    0    0 -0.13782807157E-01  0.20383979973E-01 -0.64667613911E-02  0.10184880776E+01  0.10181702573E+01 0.  0.
     999903    2    3    3    0    0 -0.55964614780E-01 -0.95326970939E-01 -0.61916580015E-01  0.12818306725E+00  0.19441356798E-01 0.  0.
         14    1    1    2    0    0  0.13782807157E-01 -0.20383979973E-01  0.64667613911E-02  0.25441922403E-01  0.00000000000E+00 0.  1.
     999901    1    3    3    0    0  0.42181807623E-01  0.11571095091E+00  0.55449818624E-01  0.89030501034E+00  0.88000000000E+00 0.  1.
        -11    1    4    4    0    0 -0.28626108696E-01 -0.33778801322E-01 -0.18105863094E-01  0.47838738667E-01  0.51100000000E-03 0. -1.
         11    1    4    4    0    0 -0.27338506084E-01 -0.61548169617E-01 -0.43810716922E-01  0.80344328588E-01  0.51100000000E-03 0.  1.
</event>
<event>
 8    1  0.1054086E+005  0.1043930E+01  0.7957747E-01            NaN
         13   -1    0    0    0    0  0.00000000000E+00  0.00000000000E+00  0.74505805969E-08  0.10566000000E+00  0.10566000000E+00 0.  1.
     999900   -1    0    0    0    0 -0.00000000000E+00 -0.00000000000E+00 -0.74505805969E-08  0.93827000000E+00  0.93827000000E+00 0.  1.
     999902    2    1    2    0    0 -0.16907253250E-01  0.38856506093E-02  0.16065536590E-01  0.10202856569E+01  0.10200116503E+01 0.  0.
     999903    2    3    3    0    0  0.89754912780E-01  0.84798564136E-01 -0.31442931992E-01  0.12889305442E+00  0.19442753322E-01 0.  0.
         14    1    1    2    0    0  0.16907253250E-01 -0.38856506093E-02 -0.16065536590E-01  0.23644343066E-01  0.00000000000E+00 0. -1.
     999901    1    3    3    0    0 -0.10666216603E+00 -0.80912913527E-01  0.47508468582E-01  0.89139260252E+00  0.88000000000E+00 0. -1.
        -11    1    4    4    0    0  0.40109907203E-01  0.42556265084E-01 -0.55217321681E-02  0.58741731340E-01  0.51100000000E-03 0.  1.
         11    1    4    4    0    0  0.49645005577E-01  0.42242299052E-01 -0.25921199824E-01  0.70151323076E-01  0.51100000000E-03 0. -1.
</event>
<event>
 8    1  0.1054086E+005  0.1043930E+01  0.7957747E-01            NaN
         13   -1    0    0    0    0  0.00000000000E+00  0.00000000000E+00  0.74505805969E-08  0.10566000000E+00  0.10566000000E+00 0. -1.
     999900   -1    0    0    0    0 -0.00000000000E+00 -0.00000000000E+00 -0.74505805969E-08  0.93827000000E+00  0.93827000000E+00 0. -1.
     999902    2    1    2    0    0 -0.12587976631E-01 -0.20137359064E-01  0.38683247650E-02  0.10198689459E+01  0.10195850786E+01 0.  0.
     999903    2    3    3    0    0 -0.10009726040E+00 -0.30423140660E-01 -0.77288941216E-01  0.13175286464E+00  0.20981131527E-01 0.  0.
         14    1    1    2    0    0  0.12587976631E-01  0.20137359064E-01 -0.38683247650E-02  0.24061054055E-01  0.00000000000E+00 0. -1.
     999901    1    3    3    0    0  0.87509283767E-01  0.10285781597E-01  0.81157265981E-01  0.88811608130E+00  0.88000000000E+00 0.  1.
        -11    1    4    4    0    0 -0.68836520288E-01 -0.30620870799E-01 -0.57116916527E-01  0.94544738238E-01  0.51100000000E-03 0. -1.
         11    1    4    4    0    0 -0.31260740110E-01  0.19773013917E-03 -0.20172024689E-01  0.37208126404E-01  0.51100000000E-03 0.  1.
</event>
<event>
 8    1  0.1054086E+005  0.1043930E+01  0.7957747E-01            NaN
         13   -1    0    0    0    0  0.00000000000E+00  0.00000000000E+00  0.74505805969E-08  0.10566000000E+00  0.10566000000E+00 0. -1.
     999900   -1    0    0    0    0 -0.00000000000E+00 -0.00000000000E+00 -0.74505805969E-08  0.93827000000E+00  0.93827000000E+00 0. -1.
     999902    2    1    2    0    0 -0.16443828820E-01 -0.30505012759E-02  0.17155713626E-01  0.10199712109E+01  0.10196897800E+01 0.  0.
     999903    2    3    3    0    0 -0.46137120766E-01  0.11527899273E+00  0.37824155298E-01  0.13131450261E+00  0.19873394148E-01 0.  0.
         14    1    1    2    0    0  0.16443828820E-01  0.30505012759E-02 -0.17155713626E-01  0.23958789083E-01  0.00000000000E+00 0.  1.
     999901    1    3    3    0    0  0.29693291946E-01 -0.11832949400E+00 -0.20668441671E-01  0.88865670831E+00  0.88000000000E+00 0.  1.
        -11    1    4    4    0    0 -0.29524089090E-01  0.77286310784E-01  0.34733413548E-01  0.89730244672E-01  0.51100000000E-03 0.  1.
         11    1    4    4    0    0 -0.16613031676E-01  0.37992681943E-01  0.30907417498E-02  0.41584257938E-01  0.51100000000E-03 0. -1.
</event>
<event>
 8    1  0.1054086E+005  0.1043930E+01  0.7957747E-01            NaN
         13   -1    0    0    0    0  0.00000000000E+00  0.00000000000E+00  0.74505805969E-08  0.10566000000E+00  0.10566000000E+00 0.  1.
     999900   -1    0    0    0    0 -0.00000000000E+00 -0.00000000000E+00 -0.74505805969E-08  0.93827000000E+00  0.93827000000E+00 0. -1.
     999902    2    1    2    0    0  0.49623483193E-02 -0.22489558840E-01  0.54238490856E-02  0.10202694147E+01  0.10199950271E+01 0.  0.
     999903    2    3    3    0    0  0.37872389061E-01 -0.11629791894E+00  0.49817938746E-01  0.13355981489E+00  0.19921679857E-01 0.  0.
         14    1    1    2    0    0 -0.49623483193E-02  0.22489558840E-01 -0.54238490856E-02  0.23660585297E-01  0.00000000000E+00 0. -1.
     999901    1    3    3    0    0 -0.32910040742E-01  0.93808360103E-01 -0.44394089661E-01  0.88670959981E+00  0.88000000000E+00 0. -1.
        -11    1    4    4    0    0  0.31508887948E-01 -0.65621540116E-01  0.27442803871E-01  0.77796948219E-01  0.51100000000E-03 0. -1.
         11    1    4    4    0    0  0.63635011132E-02 -0.50676378828E-01  0.22375134875E-01  0.55762866670E-01  0.51100000000E-03 0.  1.
</event>
<event>
 8    1  0.1054086E+005  0.1043930E+01  0.7957747E-01            NaN
         13   -1    0    0    0    0  0.00000000000E+00  0.00000000000E+00  0.74505805969E-08  0.10566000000E+00  0.10566000000E+00 0.  1.
     999900   -1    0    0    0    0 -0.00000000000E+00 -0.00000000000E+00 -0.74505805969E-08  0.93827000000E+00  0.93827000000E+00 0. -1.
     999902    2    1    2    0    0  0.83937027170E-02 -0.21252368228E-01  0.32823303401E-02  0.10208455660E+01  0.10205845279E+01 0.  0.
     999903    2    3    3    0    0  0.87918247818E-01 -0.70315694558E-01 -0.67922777711E-01  0.13303841877E+00  0.20292903586E-01 0.  0.
         14    1    1    2    0    0 -0.83937027170E-02  0.21252368228E-01 -0.32823303401E-02  0.23084433999E-01  0.00000000000E+00 0.  1.
     999901    1    3    3    0    0 -0.79524545101E-01  0.49063326330E-01  0.71205108051E-01  0.88780714723E+00  0.88000000000E+00 0.  1.
        -11    1    4    4    0    0  0.67249110053E-01 -0.51362571455E-01 -0.40507124804E-01  0.93817081762E-01  0.51100000000E-03 0.  1.
         11    1    4    4    0    0  0.20669137764E-01 -0.18953123103E-01 -0.27415652907E-01  0.39221337007E-01  0.51100000000E-03 0. -1.
</event>
<event>
 8    1  0.1054086E+005  0.1043930E+01  0.7957747E-01            NaN
         13   -1    0    0    0    0  0.00000000000E+00  0.00000000000E+00  0.74505805969E-08  0.10566000000E+00  0.10566000000E+00 0.  1.
     999900   -1    0    0    0    0 -0.00000000000E+00 -0.00000000000E+00 -0.74505805969E-08  0.93827000000E+00  0.93827000000E+00 0.  1.
     999902    2    1    2    0    0  0.75421044456E-03 -0.13984576786E-01 -0.16687047734E-01  0.10221448036E+01  0.10219126209E+01 0.  0.
     999903    2    3    3    0    0  0.25322128116E-01  0.63480807585E-01  0.10830230329E+00  0.12960527715E+00  0.19927766143E-01 0.  0.
         14    1    1    2    0    0 -0.75421044456E-03  0.13984576786E-01  0.16687047734E-01  0.21785196427E-01  0.00000000000E+00 0.  1.
     999901    1    3    3    0    0 -0.24567917671E-01 -0.77465384371E-01 -0.12498935103E+00  0.89253952642E+00  0.88000000000E+00 0.  1.
        -11    1    4    4    0    0 -0.28647550767E-02  0.46170411727E-02  0.49371463969E-02  0.73593767660E-02  0.51100000000E-03 0.  1.
         11    1    4    4    0    0  0.28186883193E-01  0.58863766412E-01  0.10336515689E+00  0.12224590039E+00  0.51100000000E-03 0. -1.
</event>
<event>
 8    1  0.1054086E+005  0.1043930E+01  0.7957747E-01            NaN
         13   -1    0    0    0    0  0.00000000000E+00  0.00000000000E+00  0.74505805969E-08  0.10566000000E+00  0.10566000000E+00 0. -1.
     999900   -1    0    0    0    0 -0.00000000000E+00 -0.00000000000E+00 -0.74505805969E-08  0.93827000000E+00  0.93827000000E+00 0.  1.
     999902    2    1    2    0    0 -0.15019497295E-01  0.18218552178E-01 -0.40089542962E-03  0.10203151390E+01  0.10200418233E+01 0.  0.
     999903    2    3    3    0    0 -0.12310382690E+00  0.32074196072E-01 -0.33236914766E-01  0.13298633561E+00  0.19934058913E-01 0.  0.
         14    1    1    2    0    0  0.15019497295E-01 -0.18218552178E-01  0.40089542962E-03  0.23614860991E-01  0.00000000000E+00 0.  1.
     999901    1    3    3    0    0  0.10808432961E+00 -0.13855643893E-01  0.32836019336E-01  0.88732880340E+00  0.88000000000E+00 0.  1.
        -11    1    4    4    0    0 -0.85987128617E-01  0.24998873973E-01 -0.32268818305E-01  0.95185438715E-01  0.51100000000E-03 0. -1.
         11    1    4    4    0    0 -0.37116698285E-01  0.70753220991E-02 -0.96809646053E-03  0.37800896896E-01  0.51100000000E-03 0.  1.
</event>
<event>
 8    1  0.1054086E+005  0.1043930E+01  0.7957747E-01            NaN
         13   -1    0    0    0    0  0.00000000000E+00  0.00000000000E+00  0.74505805969E-08  0.10566000000E+00  0.10566000000E+00 0.  1.
     999900   -1    0    0    0    0 -0.00000000000E+00 -0.00000000000E+00 -0.74505805969E-08  0.93827000000E+00  0.93827000000E+00 0.  1.
     999902    2    1    2    0    0  0.20971347385E-01 -0.10989205635E-01 -0.26396327896E-02  0.10201071598E+01  0.10198289513E+01 0.  0.
     999903    2    3    3    0    0 -0.11183912628E+00  0.57481573779E-01 -0.87977040412E-02  0.12749033758E+00  0.19085729971E-01 0.  0.
         14    1    1    2    0    0 -0.20971347385E-01  0.10989205635E-01  0.26396327896E-02  0.23822840152E-01  0.00000000000E+00 0. -1.
     999901    1    3    3    0    0  0.13281047367E+00 -0.68470779414E-01  0.61580712516E-02  0.89261682227E+00  0.88000000000E+00 0. -1.
        -11    1    4    4    0    0 -0.59025917146E-01  0.19751975575E-01 -0.28443904430E-02  0.62310120462E-01  0.51100000000E-03 0.  1.
         11    1    4    4    0    0 -0.52813209138E-01  0.37729598203E-01 -0.59533135982E-02  0.65180217120E-01  0.51100000000E-03 0. -1.
</event>
<event>
 8    1  0.1054086E+005  0.1043930E+01  0.7957747E-01            NaN
         13   -1    0    0    0    0  0.00000000000E+00  0.00000000000E+00  0.74505805969E-08  0.10566000000E+00  0.10566000000E+00 0.  1.
     999900   -1    0    0    0    0 -0.00000000000E+00 -0.00000000000E+00 -0.74505805969E-08  0.93827000000E+00  0.93827000000E+00 0.  1.
     999902    2    1    2    0    0  0.78655418976E-02 -0.21221803559E-01 -0.15639359799E-02  0.10212434932E+01  0.10209914764E+01 0.  0.
     999903    2    3    3    0    0 -0.53613542328E-01 -0.62027720693E-01  0.10114127620E+00  0.13220290847E+00  0.22939075831E-01 0.  0.
         14    1    1    2    0    0 -0.78655418976E-02  0.21221803559E-01  0.15639359799E-02  0.22686506813E-01  0.00000000000E+00 0.  1.
     999901    1    3    3    0    0  0.61479084225E-01  0.40805917134E-01 -0.10270521218E+00  0.88904058472E+00  0.88000000000E+00 0.  1.
        -11    1    4    4    0    0 -0.34348884646E-01 -0.27124566373E-01  0.40526300537E-01  0.59650902203E-01  0.51100000000E-03 0. -1.
         11    1    4    4    0    0 -0.19264657681E-01 -0.34903154320E-01  0.60614975665E-01  0.72552006264E-01  0.51100000000E-03 0.  1.
</event>
<event>
 8    1  0.1054086E+005  0.1043930E+01  0.7957747E-01            NaN
         13   -1    0    0    0    0  0.00000000000E+00  0.00000000000E+00  0.74505805969E-08  0.10566000000E+00  0.10566000000E+00 0.  1.
     999900   -1    0    0    0    0 -0.00000000000E+00 -0.00000000000E+00 -0.74505805969E-08  0.93827000000E+00  0.93827000000E+00 0.  1.
     999902    2    1    2    0    0 -0.42029023621E-02  0.12737030259E-02  0.23306811760E-01  0.10202130402E+01  0.10199373281E+01 0.  0.
     999903    2    3    3    0    0 -0.60975449850E-02 -0.12266459580E+00 -0.36193183703E-01  0.12953658882E+00  0.19646836375E-01 0.  0.
         14    1    1    2    0    0  0.42029023621E-02 -0.12737030259E-02 -0.23306811760E-01  0.23716959798E-01  0.00000000000E+00 0. -1.
     999901    1    3    3    0    0  0.18946426229E-02  0.12393829882E+00  0.59499995463E-01  0.89067645138E+00  0.88000000000E+00 0. -1.
        -11    1    4    4    0    0 -0.51993433834E-02 -0.82292000537E-01 -0.14599054702E-01  0.83740074297E-01  0.51100000000E-03 0.  1.
         11    1    4    4    0    0 -0.89820160157E-03 -0.40372595260E-01 -0.21594129001E-01  0.45796514523E-01  0.51100000000E-03 0. -1.
</event>
<event>
 8    1  0.1054086E+005  0.1043930E+01  0.7957747E-01            NaN
         13   -1    0    0    0    0  0.00000000000E+00  0.00000000000E+00  0.74505805969E-08  0.10566000000E+00  0.10566000000E+00 0. -1.
     999900   -1    0    0    0    0 -0.00000000000E+00 -0.00000000000E+00 -0.74505805969E-08  0.93827000000E+00  0.93827000000E+00 0. -1.
     999902    2    1    2    0    0 -0.13619491622E-03  0.30923786584E-02 -0.22548379441E-01  0.10211701500E+01  0.10209164827E+01 0.  0.
     999903    2    3    3    0    0  0.22141896271E-01  0.77606791965E-01  0.99322833308E-01  0.12937347835E+00  0.18957688538E-01 0.  0.
         14    1    1    2    0    0  0.13619491622E-03 -0.30923786584E-02  0.22548379441E-01  0.22759849960E-01  0.00000000000E+00 0. -1.
     999901    1    3    3    0    0 -0.22278091187E-01 -0.74514413307E-01 -0.12187121275E+00  0.89179667169E+00  0.88000000000E+00 0. -1.
        -11    1    4    4    0    0 -0.18415977442E-03  0.12867799361E-01  0.26171375565E-01  0.29168753747E-01  0.51100000000E-03 0. -1.
         11    1    4    4    0    0  0.22326056045E-01  0.64738992605E-01  0.73151457744E-01  0.10020472460E+00  0.51100000000E-03 0.  1.
</event>
<event>
 8    1  0.1054086E+005  0.1043930E+01  0.7957747E-01            NaN
         13   -1    0    0    0    0  0.00000000000E+00  0.00000000000E+00  0.74505805969E-08  0.10566000000E+00  0.10566000000E+00 0.  1.
     999900   -1    0    0    0    0 -0.00000000000E+00 -0.00000000000E+00 -0.74505805969E-08  0.93827000000E+00  0.93827000000E+00 0. -1.
     999902    2    1    2    0    0 -0.36694653452E-02  0.38022100663E-02 -0.24600457174E-01  0.10187684366E+01  0.10184576688E+01 0.  0.
     999903    2    3    3    0    0 -0.10253329738E+00  0.74985870840E-01  0.15613945664E-01  0.12946625570E+00  0.19538632711E-01 0.  0.
         14    1    1    2    0    0  0.36694653452E-02 -0.38022100663E-02  0.24600457174E-01  0.25161563355E-01  0.00000000000E+00 0.  1.
     999901    1    3    3    0    0  0.98863832031E-01 -0.71183660774E-01 -0.40214402838E-01  0.88930218095E+00  0.88000000000E+00 0. -1.
        -11    1    4    4    0    0 -0.86480470868E-01  0.68009882191E-01  0.78152603107E-02  0.11029757627E+00  0.51100000000E-03 0. -1.
         11    1    4    4    0    0 -0.16052826509E-01  0.69759886491E-02  0.77986853537E-02  0.19168679422E-01  0.51100000000E-03 0.  1.
</event>
<event>
 8    1  0.1054086E+005  0.1043930E+01  0.7957747E-01            NaN
         13   -1    0    0    0    0  0.00000000000E+00  0.00000000000E+00  0.74505805969E-08  0.10566000000E+00  0.10566000000E+00 0. -1.
     999900   -1    0    0    0    0 -0.00000000000E+00 -0.00000000000E+00 -0.74505805969E-08  0.93827000000E+00  0.93827000000E+00 0.  1.
     999902    2    1    2    0    0  0.18330451480E-01 -0.12601926968E-01 -0.47602686335E-02  0.10211819414E+01  0.10209285397E+01 0.  0.
     999903    2    3    3    0    0 -0.11313325269E+00  0.46705190546E-01 -0.35018807805E-01  0.12892882766E+00  0.20391616233E-01 0.  0.
         14    1    1    2    0    0 -0.18330451480E-01  0.12601926968E-01  0.47602686335E-02  0.22748058647E-01  0.00000000000E+00 0. -1.
     999901    1    3    3    0    0  0.13146370417E+00 -0.59307117514E-01  0.30258539171E-01  0.89225311369E+00  0.88000000000E+00 0. -1.
        -11    1    4    4    0    0 -0.38102846196E-01  0.26325049999E-01 -0.12071503474E-01  0.47862484921E-01  0.51100000000E-03 0. -1.
         11    1    4    4    0    0 -0.75030406498E-01  0.20380140547E-01 -0.22947304331E-01  0.81066342738E-01  0.51100000000E-03 0.  1.
</event>
<event>
 8    1  0.1054086E+005  0.1043930E+01  0.7957747E-01            NaN
         13   -1    0    0    0    0  0.00000000000E+00  0.00000000000E+00  0.74505805969E-08  0.10566000000E+00  0.10566000000E+00 0.  1.
     999900   -1    0    0    0    0 -0.00000000000E+00 -0.00000000000E+00 -0.74505805969E-08  0.93827000000E+00  0.93827000000E+00 0.  1.
     999902    2    1    2    0    0 -0.20879362954E-01 -0.55606252239E-02  0.99283417570E-02  0.10201510109E+01  0.10198738377E+01 0.  0.
     999903    2    3    3    0    0 -0.12596491789E-01 -0.12890168260E+00  0.61399735249E-02  0.13150261359E+00  0.21929950385E-01 0.  0.
         14    1    1    2    0    0  0.20879362954E-01  0.55606252239E-02 -0.99283417570E-02  0.23778989051E-01  0.00000000000E+00 0. -1.
     999901    1    3    3    0    0 -0.82828711651E-02  0.12334105738E+00  0.37883682321E-02  0.88864839736E+00  0.88000000000E+00 0. -1.
        -11    1    4    4    0    0 -0.12734922865E-01 -0.53288405296E-01 -0.52177752561E-02  0.55039246897E-01  0.51100000000E-03 0.  1.
         11    1    4    4    0    0  0.13843107616E-03 -0.75613277305E-01  0.11357748781E-01  0.76463366695E-01  0.51100000000E-03 0. -1.
</event>
<event>
 8    1  0.1054086E+005  0.1043930E+01  0.7957747E-01            NaN
         13   -1    0    0    0    0  0.00000000000E+00  0.00000000000E+00  0.74505805969E-08  0.10566000000E+00  0.10566000000E+00 0. -1.
     999900   -1    0    0    0    0 -0.00000000000E+00 -0.00000000000E+00 -0.74505805969E-08  0.93827000000E+00  0.93827000000E+00 0. -1.
     999902    2    1    2    0    0  0.19865699648E-01  0.10628917106E-01  0.80874210047E-02  0.10199920327E+01  0.10197110966E+01 0.  0.
     999903    2    3    3    0    0  0.31039580820E-01 -0.85939777227E-01 -0.89547887388E-01  0.12927152556E+00  0.18525719886E-01 0.  0.
         14    1    1    2    0    0 -0.19865699648E-01 -0.10628917106E-01 -0.80874210047E-02  0.23937967329E-01  0.00000000000E+00 0.  1.
     999901    1    3    3    0    0 -0.11173881172E-01  0.96568694333E-01  0.97635308392E-01  0.89072050711E+00  0.88000000000E+00 0.  1.
        -11    1    4    4    0    0  0.20622276158E-01 -0.36582878888E-01 -0.49099542032E-01  0.64611233160E-01  0.51100000000E-03 0.  1.
         11    1    4    4    0    0  0.10417304662E-01 -0.49356898339E-01 -0.40448345356E-01  0.64660292398E-01  0.51100000000E-03 0. -1.
</event>
<event>
 8    1  0.1054086E+005  0.1043930E+01  0.7957747E-01            NaN
         13   -1    0    0    0    0  0.00000000000E+00  0.00000000000E+00  0.74505805969E-08  0.10566000000E+00  0.10566000000E+00 0.  1.
     999900   -1    0    0    0    0 -0.00000000000E+00 -0.00000000000E+00 -0.74505805969E-08  0.93827000000E+00  0.93827000000E+00 0.  1.
     999902    2    1    2    0    0 -0.41333063311E-02 -0.14831766830E-01 -0.18387010503E-01  0.10199477632E+01  0.10196657746E+01 0.  0.
     999903    2    3    3    0    0  0.78906762101E-01  0.86147845451E-01 -0.52204487867E-01  0.12964660241E+00  0.20861557508E-01 0.  0.
         14    1    1    2    0    0  0.41333063311E-02  0.14831766830E-01  0.18387010503E-01  0.23982236838E-01  0.00000000000E+00 0.  1.
     999901    1    3    3    0    0 -0.83040068432E-01 -0.10097961228E+00  0.33817477365E-01  0.89030116075E+00  0.88000000000E+00 0.  1.
        -11    1    4    4    0    0  0.23197683451E-01  0.17991022602E-01 -0.50790368500E-02  0.29797099659E-01  0.51100000000E-03 0. -1.
         11    1    4    4    0    0  0.55709078650E-01  0.68156822849E-01 -0.47125451017E-01  0.99849502750E-01  0.51100000000E-03 0.  1.
</event>
<event>
 8    1  0.1054086E+005  0.1043930E+01  0.7957747E-01            NaN
         13   -1    0    0    0    0  0.00000000000E+00  0.00000000000E+00  0.74505805969E-08  0.10566000000E+00  0.10566000000E+00 0.  1.
     999900   -1    0    0    0    0 -0.00000000000E+00 -0.00000000000E+00 -0.74505805969E-08  0.93827000000E+00  0.93827000000E+00 0. -1.
     999902    2    1    2    0    0 -0.57777818757E-02  0.19346718676E-01 -0.12658757706E-01  0.10200988768E+01  0.10198204724E+01 0.  0.
     999903    2    3    3    0    0 -0.44405466256E-01  0.11475716322E+00 -0.47668656635E-01  0.13340786863E+00  0.19603740515E-01 0.  0.
         14    1    1    2    0    0  0.57777818757E-02 -0.19346718676E-01  0.12658757706E-01  0.23831123213E-01  0.00000000000E+00 0. -1.
     999901    1    3    3    0    0  0.38627684380E-01 -0.95410444546E-01  0.35009898929E-01  0.88669100816E+00  0.88000000000E+00 0.  1.
        -11    1    4    4    0    0 -0.31514971517E-01  0.73333323971E-01 -0.40242765674E-01  0.89390777737E-01  0.51100000000E-03 0.  1.
         11    1    4    4    0    0 -0.12890494740E-01  0.41423839250E-01 -0.74258909613E-02  0.44017090890E-01  0.51100000000E-03 0. -1.
</event>
<event>
 8    1  0.1054086E+005  0.1043930E+01  0.7957747E-01            NaN
         13   -1    0    0    0    0  0.00000000000E+00  0.00000000000E+00  0.74505805969E-08  0.10566000000E+00  0.10566000000E+00 0. -1.
     999900   -1    0    0    0    0 -0.00000000000E+00 -0.00000000000E+00 -0.74505805969E-08  0.93827000000E+00  0.93827000000E+00 0.  1.
     999902    2    1    2    0    0 -0.90223968179E-02  0.39979560621E-03  0.26543608107E-01  0.10158920505E+01  0.10155050623E+01 0.  0.
     999903    2    3    3    0    0 -0.11037459583E+00  0.51026643347E-01  0.36923181677E-01  0.12856850100E+00  0.19500470957E-01 0.  0.
         14    1    1    2    0    0  0.90223968179E-02 -0.39979560621E-03 -0.26543608107E-01  0.28037949501E-01  0.00000000000E+00 0.  1.
     999901    1    3    3    0    0  0.10135219901E+00 -0.50626847741E-01 -0.10379573570E-01  0.88732354950E+00  0.88000000000E+00 0.  1.
        -11    1    4    4    0    0 -0.51285231927E-01  0.20106266253E-01  0.72152293624E-02  0.55558596204E-01  0.51100000000E-03 0. -1.
         11    1    4    4    0    0 -0.59089363902E-01  0.30920377094E-01  0.29707952314E-01  0.73009904791E-01  0.51100000000E-03 0.  1.
</event>
<event>
 8    1  0.1054086E+005  0.1043930E+01  0.7957747E-01            NaN
         13   -1    0    0    0    0  0.00000000000E+00  0.00000000000E+00  0.74505805969E-08  0.10566000000E+00  0.10566000000E+00 0. -1.
     999900   -1    0    0    0    0 -0.00000000000E+00 -0.00000000000E+00 -0.74505805969E-08  0.93827000000E+00  0.93827000000E+00 0. -1.
     999902    2    1    2    0    0 -0.37885171908E-02 -0.10052009250E-01  0.21251791823E-01  0.10201175157E+01  0.10198395518E+01 0.  0.
     999903    2    3    3    0    0  0.42611715678E-01  0.86671908369E-01 -0.80161995574E-01  0.12782089792E+00  0.24175574370E-01 0.  0.
         14    1    1    2    0    0  0.37885171908E-02  0.10052009250E-01 -0.21251791823E-01  0.23812484292E-01  0.00000000000E+00 0.  1.
     999901    1    3    3    0    0 -0.46400232869E-01 -0.96723917619E-01  0.10141378740E+00  0.89229661779E+00  0.88000000000E+00 0.  1.
        -11    1    4    4    0    0  0.21133067560E-02  0.26287568579E-01 -0.16006712735E-01  0.30854145602E-01  0.51100000000E-03 0.  1.
         11    1    4    4    0    0  0.40498408922E-01  0.60384339790E-01 -0.64155282839E-01  0.96966752313E-01  0.51100000000E-03 0. -1.
</event>
<event>
 8    1  0.1054086E+005  0.1043930E+01  0.7957747E-01            NaN
         13   -1    0    0    0    0  0.00000000000E+00  0.00000000000E+00  0.74505805969E-08  0.10566000000E+00  0.10566000000E+00 0.  1.
     999900   -1    0    0    0    0 -0.00000000000E+00 -0.00000000000E+00 -0.74505805969E-08  0.93827000000E+00  0.93827000000E+00 0. -1.
     999902    2    1    2    0    0 -0.20679271717E-02 -0.19928094992E-01 -0.11554490343E-01  0.10208018453E+01  0.10205398061E+01 0.  0.
     999903    2    3    3    0    0 -0.74592441728E-02 -0.36051045867E-01 -0.12639105967E+00  0.13317779566E+00  0.20157059807E-01 0.  0.
         14    1    1    2    0    0  0.20679271717E-02  0.19928094992E-01  0.11554490343E-01  0.23128154701E-01  0.00000000000E+00 0.  1.
     999901    1    3    3    0    0  0.53913170011E-02  0.16122950875E-01  0.11483656933E+00  0.88762404964E+00  0.88000000000E+00 0.  1.
        -11    1    4    4    0    0 -0.14417725487E-01 -0.22496575754E-01 -0.79881182846E-01  0.84233195492E-01  0.51100000000E-03 0. -1.
         11    1    4    4    0    0  0.69584813143E-02 -0.13554470113E-01 -0.46509876825E-01  0.48944600167E-01  0.51100000000E-03 0.  1.
</event>
<event>
 8    1  0.1054086E+005  0.1043930E+01  0.7957747E-01            NaN
         13   -1    0    0    0    0  0.00000000000E+00  0.00000000000E+00  0.74505805969E-08  0.10566000000E+00  0.10566000000E+00 0.  1.
     999900   -1    0    0    0    0 -0.00000000000E+00 -0.00000000000E+00 -0.74505805969E-08  0.93827000000E+00  0.93827000000E+00 0. -1.
     999902    2    1    2    0    0  0.69806362214E-02  0.22494360928E-01 -0.43407345564E-02  0.10199807300E+01  0.10196995254E+01 0.  0.
     999903    2    3    3    0    0  0.31785989942E-01  0.95116569736E-01  0.83824689578E-01  0.13225192414E+00  0.20161395344E-01 0.  0.
         14    1    1    2    0    0 -0.69806362214E-02 -0.22494360928E-01  0.43407345564E-02  0.23949269970E-01  0.00000000000E+00 0.  1.
     999901    1    3    3    0    0 -0.24805353721E-01 -0.72622208808E-01 -0.88165424135E-01  0.88772880589E+00  0.88000000000E+00 0.  1.
        -11    1    4    4    0    0  0.33436733405E-01  0.75185321395E-01  0.67210713974E-01  0.10624683001E+00  0.51100000000E-03 0.  1.
         11    1    4    4    0    0 -0.16507434624E-02  0.19931248341E-01  0.16613975604E-01  0.26005094131E-01  0.51100000000E-03 0. -1.
</event>
<event>
 8    1  0.1054086E+005  0.1043930E+01  0.7957747E-01            NaN
         13   -1    0    0    0    0  0.00000000000E+00  0.00000000000E+00  0.74505805969E-08  0.10566000000E+00  0.10566000000E+00 0. -1.
     999900   -1    0    0    0    0 -0.00000000000E+00 -0.00000000000E+00 -0.74505805969E-08  0.93827000000E+00  0.93827000000E+00 0. -1.
     999902    2    1    2    0    0  0.99365287382E-02 -0.60538878639E-02  0.20609260541E-01  0.10202630234E+01  0.10199884858E+01 0.  0.
     999903    2    3    3    0    0 -0.12641774467E+00 -0.13425286897E-01  0.13089201449E-01  0.12969950702E+00  0.22112223582E-01 0.  0.
         14    1    1    2    0    0 -0.99365287382E-02  0.60538878639E-02 -0.20609260541E-01  0.23666976606E-01  0.00000000000E+00 0.  1.
     999901    1    3    3    0    0  0.13635427341E+00  0.73713990335E-02  0.75200590924E-02  0.89056351637E+00  0.88000000000E+00 0.  1.
        -11    1    4    4    0    0 -0.11218025060E+00 -0.17040290513E-01  0.66798521032E-02  0.11366468964E+00  0.51100000000E-03 0. -1.
         11    1    4    4    0    0 -0.14237494071E-01  0.36150036158E-02  0.64093493453E-02  0.16034817385E-01  0.51100000000E-03 0.  1.
</event>
<event>
 8    1  0.1054086E+005  0.1043930E+01  0.7957747E-01            NaN
         13   -1    0    0    0    0  0.00000000000E+00  0.00000000000E+00  0.74505805969E-08  0.10566000000E+00  0.10566000000E+00 0.  1.
     999900   -1    0    0    0    0 -0.00000000000E+00 -0.00000000000E+00 -0.74505805969E-08  0.93827000000E+00  0.93827000000E+00 0. -1.
     999902    2    1    2    0    0  0.22903107334E-01  0.59121949907E-02 -0.42180032026E-02  0.10199029751E+01  0.10196199197E+01 0.  0.
     999903    2    3    3    0    0 -0.73106370166E-01 -0.63356466584E-01 -0.82288383960E-01  0.12854953700E+00  0.19875163148E-01 0.  0.
         14    1    1    2    0    0 -0.22903107334E-01 -0.59121949907E-02  0.42180032026E-02  0.24027024913E-01  0.00000000000E+00 0. -1.
     999901    1    3    3    0    0  0.96009477500E-01  0.69268661575E-01  0.78070380757E-01  0.89135343809E+00  0.88000000000E+00 0.  1.
        -11    1    4    4    0    0 -0.46569770006E-01 -0.43333710152E-01 -0.65487615071E-01  0.91298646007E-01  0.51100000000E-03 0. -1.
         11    1    4    4    0    0 -0.26536600161E-01 -0.20022756432E-01 -0.16800768888E-01  0.37250890989E-01  0.51100000000E-03 0.  1.
</event>
<event>
 8    1  0.1054086E+005  0.1043930E+01  0.7957747E-01            NaN
         13   -1    0    0    0    0  0.00000000000E+00  0.00000000000E+00  0.74505805969E-08  0.10566000000E+00  0.10566000000E+00 0. -1.
     999900   -1    0    0    0    0 -0.00000000000E+00 -0.00000000000E+00 -0.74505805969E-08  0.93827000000E+00  0.93827000000E+00 0. -1.
     999902    2    1    2    0    0 -0.42429473393E-02  0.23615072912E-01  0.72982628378E-02  0.10188513455E+01  0.10185426478E+01 0.  0.
     999903    2    3    3    0    0  0.23343267505E-01  0.97955361304E-01 -0.81253058314E-01  0.13085989611E+00  0.19547173136E-01 0.  0.
         14    1    1    2    0    0  0.42429473393E-02 -0.23615072912E-01 -0.72982628378E-02  0.25078654494E-01  0.00000000000E+00 0.  1.
     999901    1    3    3    0    0 -0.27586214845E-01 -0.74340288392E-01  0.88551321152E-01  0.88799144940E+00  0.88000000000E+00 0.  1.
        -11    1    4    4    0    0  0.24964618347E-02  0.45517805551E-01 -0.29583443190E-01  0.54346519445E-01  0.51100000000E-03 0.  1.
         11    1    4    4    0    0  0.20846805670E-01  0.52437555754E-01 -0.51669615125E-01  0.76513376662E-01  0.51100000000E-03 0. -1.
</event>
<event>
 8    1  0.1054086E+005  0.1043930E+01  0.7957747E-01            NaN
         13   -1    0    0    0    0  0.00000000000E+00  0.00000000000E+00  0.74505805969E-08  0.10566000000E+00  0.10566000000E+00 0.  1.
     999900   -1    0    0    0    0 -0.00000000000E+00 -0.00000000000E+00 -0.74505805969E-08  0.93827000000E+00  0.93827000000E+00 0.  1.
     999902    2    1    2    0    0  0.81199751130E-02  0.18607314963E-01  0.38071370308E-02  0.10232742391E+01  0.10230657398E+01 0.  0.
     999903    2    3    3    0    0  0.73269464867E-01  0.10433511798E+00  0.42716825414E-01  0.13585794667E+00  0.19453101908E-01 0.  0.
         14    1    1    2    0    0 -0.81199751130E-02 -0.18607314963E-01 -0.38071370308E-02  0.20655760900E-01  0.00000000000E+00 0.  1.
     999901    1    3    3    0    0 -0.65149489754E-01 -0.85727803015E-01 -0.38909688383E-01  0.88741629243E+00  0.88000000000E+00 0. -1.
        -11    1    4    4    0    0  0.48430431055E-01  0.67665086248E-01  0.18008959404E-01  0.85139029176E-01  0.51100000000E-03 0. -1.
         11    1    4    4    0    0  0.24839033813E-01  0.36670031730E-01  0.24707866010E-01  0.50718917492E-01  0.51100000000E-03 0.  1.
</event>
<event>
 8    1  0.1054086E+005  0.1043930E+01  0.7957747E-01            NaN
         13   -1    0    0    0    0  0.00000000000E+00  0.00000000000E+00  0.74505805969E-08  0.10566000000E+00  0.10566000000E+00 0.  1.
     999900   -1    0    0    0    0 -0.00000000000E+00 -0.00000000000E+00 -0.74505805969E-08  0.93827000000E+00  0.93827000000E+00 0.  1.
     999902    2    1    2    0    0 -0.75496323698E-02  0.13335857836E-01 -0.18835978360E-01  0.10196475756E+01  0.10193583974E+01 0.  0.
     999903    2    3    3    0    0  0.57986881519E-01  0.56736188514E-02  0.11189220035E+00  0.12754690794E+00  0.18806404440E-01 0.  0.
         14    1    1    2    0    0  0.75496323698E-02 -0.13335857836E-01  0.18835978360E-01  0.24282424383E-01  0.00000000000E+00 0.  1.
     999901    1    3    3    0    0 -0.65536513889E-01  0.76622389845E-02 -0.13072817871E+00  0.89210066768E+00  0.88000000000E+00 0.  1.
        -11    1    4    4    0    0  0.18469492859E-01  0.71165607097E-02  0.23621570188E-01  0.30822188468E-01  0.51100000000E-03 0.  1.
         11    1    4    4    0    0  0.39517388660E-01 -0.14429418584E-02  0.88270630158E-01  0.96724719474E-01  0.51100000000E-03 0. -1.
</event>
<event>
 8    1  0.1054086E+005  0.1043930E+01  0.7957747E-01            NaN
         13   -1    0    0    0    0  0.00000000000E+00  0.00000000000E+00  0.74505805969E-08  0.10566000000E+00  0.10566000000E+00 0.  1.
     999900   -1    0    0    0    0 -0.00000000000E+00 -0.00000000000E+00 -0.74505805969E-08  0.93827000000E+00  0.93827000000E+00 0.  1.
     999902    2    1    2    0    0  0.25006380857E-02 -0.22562515435E-01 -0.98776220913E-02  0.10191734309E+01  0.10188727078E+01 0.  0.
     999903    2    3    3    0    0 -0.37003639547E-01 -0.75042128243E-01 -0.10015932088E+00  0.13211904543E+00  0.20566046162E-01 0.  0.
         14    1    1    2    0    0 -0.25006380857E-02  0.22562515435E-01  0.98776220913E-02  0.24756569063E-01  0.00000000000E+00 0. -1.
     999901    1    3    3    0    0  0.39504277632E-01  0.52479612808E-01  0.90281698791E-01  0.88705438551E+00  0.88000000000E+00 0. -1.
        -11    1    4    4    0    0 -0.27891285479E-01 -0.60426618708E-01 -0.90585849164E-01  0.11240710495E+00  0.51100000000E-03 0. -1.
         11    1    4    4    0    0 -0.91123540673E-02 -0.14615509535E-01 -0.95734717179E-02  0.19711940476E-01  0.51100000000E-03 0.  1.
</event>
<event>
 8    1  0.1054086E+005  0.1043930E+01  0.7957747E-01            NaN
         13   -1    0    0    0    0  0.00000000000E+00  0.00000000000E+00  0.74505805969E-08  0.10566000000E+00  0.10566000000E+00 0. -1.
     999900   -1    0    0    0    0 -0.00000000000E+00 -0.00000000000E+00 -0.74505805969E-08  0.93827000000E+00  0.93827000000E+00 0. -1.
     999902    2    1    2    0    0 -0.10890526551E-01  0.19146245580E-01 -0.91843419638E-02  0.10200650796E+01  0.10197858757E+01 0.  0.
     999903    2    3    3    0    0  0.73118652227E-01  0.93094656036E-01  0.52087819976E-01  0.13086308491E+00  0.19976328917E-01 0.  0.
         14    1    1    2    0    0  0.10890526551E-01 -0.19146245580E-01  0.91843419638E-02  0.23864920400E-01  0.00000000000E+00 0. -1.
     999901    1    3    3    0    0 -0.84009178777E-01 -0.73948410456E-01 -0.61272161940E-01  0.88920199469E+00  0.88000000000E+00 0. -1.
        -11    1    4    4    0    0  0.23788944156E-01  0.46085677323E-01  0.24203070176E-01  0.57235070065E-01  0.51100000000E-03 0. -1.
         11    1    4    4    0    0  0.49329708071E-01  0.47008978713E-01  0.27884749800E-01  0.73628014848E-01  0.51100000000E-03 0.  1.
</event>
<event>
 8    1  0.1054086E+005  0.1043930E+01  0.7957747E-01            NaN
         13   -1    0    0    0    0  0.00000000000E+00  0.00000000000E+00  0.74505805969E-08  0.10566000000E+00  0.10566000000E+00 0. -1.
     999900   -1    0    0    0    0 -0.00000000000E+00 -0.00000000000E+00 -0.74505805969E-08  0.93827000000E+00  0.93827000000E+00 0. -1.
     999902    2    1    2    0    0 -0.31070710242E-02  0.78238530753E-02 -0.21162115234E-01  0.10211549767E+01  0.10209009671E+01 0.  0.
     999903    2    3    3    0    0  0.10607361313E+00  0.36926408193E-01  0.62376699464E-01  0.13000621574E+00  0.19889506546E-01 0.  0.
         14    1    1    2    0    0  0.31070710242E-02 -0.78238530753E-02  0.21162115234E-01  0.22775023347E-01  0.00000000000E+00 0. -1.
     999901    1    3    3    0    0 -0.10918068416E+00 -0.29102555117E-01 -0.83538814698E-01  0.89114876091E+00  0.88000000000E+00 0.  1.
        -11    1    4    4    0    0  0.50646745864E-01  0.28107578875E-01  0.32647319063E-01  0.66492386179E-01  0.51100000000E-03 0.  1.
         11    1    4    4    0    0  0.55426867270E-01  0.88188293180E-02  0.29729380401E-01  0.63513829565E-01  0.51100000000E-03 0. -1.
</event>
<event>
 8    1  0.1054086E+005  0.1043930E+01  0.7957747E-01            NaN
         13   -1    0    0    0    0  0.00000000000E+00  0.00000000000E+00  0.74505805969E-08  0.10566000000E+00  0.10566000000E+00 0.  1.
     999900   -1    0    0    0    0 -0.00000000000E+00 -0.00000000000E+00 -0.74505805969E-08  0.93827000000E+00  0.93827000000E+00 0.  1.
     999902    2    1    2    0    0 -0.20445214655E-01 -0.67332301557E-02 -0.73605494203E-02  0.10211809148E+01  0.10209274900E+01 0.  0.
     999903    2    3    3    0    0  0.83504912975E-01 -0.66457969290E-01  0.70751205301E-01  0.12962378272E+00  0.20170766524E-01 0.  0.
         14    1    1    2    0    0  0.20445214655E-01  0.67332301557E-02  0.73605494203E-02  0.22749085221E-01  0.00000000000E+00 0.  1.
     999901    1    3    3    0    0 -0.10395012763E+00  0.59724739135E-01 -0.78111754722E-01  0.89155713206E+00  0.88000000000E+00 0.  1.
        -11    1    4    4    0    0  0.27248930046E-01 -0.29352308731E-01  0.35729223639E-01  0.53674023133E-01  0.51100000000E-03 0.  1.
         11    1    4    4    0    0  0.56255982929E-01 -0.37105660560E-01  0.35021981662E-01  0.75949759588E-01  0.51100000000E-03 0. -1.
</event>
<event>
 8    1  0.1054086E+005  0.1043930E+01  0.7957747E-01            NaN
         13   -1    0    0    0    0  0.00000000000E+00  0.00000000000E+00  0.74505805969E-08  0.10566000000E+00  0.10566000000E+00 0. -1.
     999900   -1    0    0    0    0 -0.00000000000E+00 -0.00000000000E+00 -0.74505805969E-08  0.93827000000E+00  0.93827000000E+00 0.  1.
     999902    2    1    2    0    0 -0.14080737365E-01  0.16114988472E-01  0.98998185524E-02  0.10203510597E+01  0.10200785845E+01 0.  0.
     999903    2    3    3    0    0 -0.16295534487E-01 -0.93088830436E-01 -0.84820296369E-01  0.12855384085E+00  0.20013308668E-01 0.  0.
         14    1    1    2    0    0  0.14080737365E-01 -0.16114988472E-01 -0.98998185524E-02  0.23578940298E-01  0.00000000000E+00 0. -1.
     999901    1    3    3    0    0  0.22147971224E-02  0.10920381891E+00  0.94720114922E-01  0.89179721886E+00  0.88000000000E+00 0. -1.
        -11    1    4    4    0    0 -0.13447346990E-01 -0.26279759185E-01 -0.29895738937E-01  0.42017534571E-01  0.51100000000E-03 0.  1.
         11    1    4    4    0    0 -0.28481874975E-02 -0.66809071251E-01 -0.54924557433E-01  0.86536306274E-01  0.51100000000E-03 0. -1.
</event>
<event>
 8    1  0.1054086E+005  0.1043930E+01  0.7957747E-01            NaN
         13   -1    0    0    0    0  0.00000000000E+00  0.00000000000E+00  0.74505805969E-08  0.10566000000E+00  0.10566000000E+00 0.  1.
     999900   -1    0    0    0    0 -0.00000000000E+00 -0.00000000000E+00 -0.74505805969E-08  0.93827000000E+00  0.93827000000E+00 0. -1.
     999902    2    1    2    0    0 -0.15048131481E-01  0.85689489210E-02  0.16060657907E-01  0.10203118316E+01  0.10200384384E+01 0.  0.
     999903    2    3    3    0    0 -0.39314536109E-01  0.97350847105E-01  0.79760379870E-01  0.13322179196E+00  0.19065871953E-01 0.  0.
         14    1    1    2    0    0  0.15048131481E-01 -0.85689489210E-02 -0.16060657907E-01  0.23618168411E-01  0.00000000000E+00 0. -1.
     999901    1    3    3    0    0  0.24266404628E-01 -0.88781898184E-01 -0.63699721962E-01  0.88709003963E+00  0.88000000000E+00 0. -1.
        -11    1    4    4    0    0 -0.30434234603E-01  0.77315040856E-01  0.52691327595E-01  0.98389508095E-01  0.51100000000E-03 0. -1.
         11    1    4    4    0    0 -0.88803015067E-02  0.20035806249E-01  0.27069052275E-01  0.34832283860E-01  0.51100000000E-03 0.  1.
</event>
<event>
 8    1  0.1054086E+005  0.1043930E+01  0.7957747E-01            NaN
         13   -1    0    0    0    0  0.00000000000E+00  0.00000000000E+00  0.74505805969E-08  0.10566000000E+00  0.10566000000E+00 0.  1.
     999900   -1    0    0    0    0 -0.00000000000E+00 -0.00000000000E+00 -0.74505805969E-08  0.93827000000E+00  0.93827000000E+00 0.  1.
     999902    2    1    2    0    0 -0.17379472142E-01  0.72427167646E-02  0.13871816391E-01  0.10205434593E+01  0.10202754638E+01 0.  0.
     999903    2    3    3    0    0  0.48315472863E-01 -0.16733702875E-01  0.11954320793E+00  0.13146689478E+00  0.19456724578E-01 0.  0.
         14    1    1    2    0    0  0.17379472142E-01 -0.72427167646E-02 -0.13871816391E-01  0.23386540746E-01  0.00000000000E+00 0.  1.
     999901    1    3    3    0    0 -0.65694945006E-01  0.23976419639E-01 -0.10567139154E+00  0.88907656447E+00  0.88000000000E+00 0.  1.
        -11    1    4    4    0    0  0.44893530653E-01 -0.12914174508E-01  0.11641325542E+00  0.12543728375E+00  0.51100000000E-03 0. -1.
         11    1    4    4    0    0  0.34219422106E-02 -0.38195283665E-02  0.31299525183E-02  0.60296110324E-02  0.51100000000E-03 0.  1.
</event>
<event>
 8    1  0.1054086E+005  0.1043930E+01  0.7957747E-01            NaN
         13   -1    0    0    0    0  0.00000000000E+00  0.00000000000E+00  0.74505805969E-08  0.10566000000E+00  0.10566000000E+00 0.  1.
     999900   -1    0    0    0    0 -0.00000000000E+00 -0.00000000000E+00 -0.74505805969E-08  0.93827000000E+00  0.93827000000E+00 0.  1.
     999902    2    1    2    0    0  0.77269197213E-02  0.18785527928E-03 -0.22420048386E-01  0.10202150438E+01  0.10199393788E+01 0.  0.
     999903    2    3    3    0    0 -0.83005137038E-01 -0.12803149253E-02  0.95141773972E-01  0.12777163174E+00  0.19548420463E-01 0.  0.
         14    1    1    2    0    0 -0.77269197213E-02 -0.18785527928E-03  0.22420048386E-01  0.23714956201E-01  0.00000000000E+00 0.  1.
     999901    1    3    3    0    0  0.90732056759E-01  0.14681702046E-02 -0.11756182236E+00  0.89244341206E+00  0.88000000000E+00 0.  1.
        -11    1    4    4    0    0 -0.58255731737E-01  0.79706335383E-02  0.67797925903E-01  0.89744532741E-01  0.51100000000E-03 0. -1.
         11    1    4    4    0    0 -0.24749405300E-01 -0.92509484636E-02  0.27343848070E-01  0.38027099001E-01  0.51100000000E-03 0.  1.
</event>
<event>
 8    1  0.1054086E+005  0.1043930E+01  0.7957747E-01            NaN
         13   -1    0    0    0    0  0.00000000000E+00  0.00000000000E+00  0.74505805969E-08  0.10566000000E+00  0.10566000000E+00 0.  1.
     999900   -1    0    0    0    0 -0.00000000000E+00 -0.00000000000E+00 -0.74505805969E-08  0.93827000000E+00  0.93827000000E+00 0.  1.
     999902    2    1    2    0    0 -0.76633178990E-02  0.20045346171E-01 -0.12033355058E-01  0.10193262609E+01  0.10190292842E+01 0.  0.
     999903    2    3    3    0    0  0.39198024054E-01 -0.10863406421E+00  0.47977843496E-01  0.12671452000E+00  0.20416932082E-01 0.  0.
         14    1    1    2    0    0  0.76633178990E-02 -0.20045346171E-01  0.12033355058E-01  0.24603739112E-01  0.00000000000E+00 0.  1.
     999901    1    3    3    0    0 -0.46861341953E-01  0.12867941038E+00 -0.60011198554E-01  0.89261174089E+00  0.88000000000E+00 0.  1.
        -11    1    4    4    0    0  0.16816532635E-01 -0.60914693964E-01  0.35743599832E-01  0.72603455569E-01  0.51100000000E-03 0. -1.
         11    1    4    4    0    0  0.22381491419E-01 -0.47719370243E-01  0.12234243665E-01  0.54111064428E-01  0.51100000000E-03 0.  1.
</event>
<event>
 8    1  0.1054086E+005  0.1043930E+01  0.7957747E-01            NaN
         13   -1    0    0    0    0  0.00000000000E+00  0.00000000000E+00  0.74505805969E-08  0.10566000000E+00  0.10566000000E+00 0.  1.
     999900   -1    0    0    0    0 -0.00000000000E+00 -0.00000000000E+00 -0.74505805969E-08  0.93827000000E+00  0.93827000000E+00 0.  1.
     999902    2    1    2    0    0  0.98457947965E-02 -0.19458285243E-01  0.10083817758E-01  0.10199040157E+01  0.10196209852E+01 0.  0.
     999903    2    3    3    0    0 -0.56155830469E-01 -0.40264857020E-02  0.11643737527E+00  0.13091277045E+00  0.20268231921E-01 0.  0.
         14    1    1    2    0    0 -0.98457947965E-02  0.19458285243E-01 -0.10083817758E-01  0.24025984274E-01  0.00000000000E+00 0. -1.
     999901    1    3    3    0    0  0.66001625265E-01 -0.15431799541E-01 -0.10635355751E+00  0.88899124527E+00  0.88000000000E+00 0.  1.
        -11    1    4    4    0    0 -0.66920640371E-02  0.58427896042E-02  0.12073881272E-01  0.14998721326E-01  0.51100000000E-03 0. -1.
         11    1    4    4    0    0 -0.49463766431E-01 -0.98692753062E-02  0.10436349400E+00  0.11591404913E+00  0.51100000000E-03 0.  1.
</event>
<event>
 8    1  0.1054086E+005  0.1043930E+01  0.7957747E-01            NaN
         13   -1    0    0    0    0  0.00000000000E+00  0.00000000000E+00  0.74505805969E-08  0.10566000000E+00  0.10566000000E+00 0.  1.
     999900   -1    0    0    0    0 -0.00000000000E+00 -0.00000000000E+00 -0.74505805969E-08  0.93827000000E+00  0.93827000000E+00 0. -1.
     999902    2    1    2    0    0 -0.51890417874E-02 -0.10301981713E-01  0.18453173329E-01  0.10221681851E+01  0.10219365059E+01 0.  0.
     999903    2    3    3    0    0 -0.54061190670E-01  0.32693602244E-01 -0.11204231874E+00  0.13016696278E+00  0.19961789632E-01 0.  0.
         14    1    1    2    0    0  0.51890417874E-02  0.10301981713E-01 -0.18453173329E-01  0.21761814901E-01  0.00000000000E+00 0. -1.
     999901    1    3    3    0    0  0.48872148883E-01 -0.42995583956E-01  0.13049549207E+00  0.89200122232E+00  0.88000000000E+00 0.  1.
        -11    1    4    4    0    0 -0.43287782831E-01  0.34338182028E-01 -0.90934505328E-01  0.10640624168E+00  0.51100000000E-03 0.  1.
         11    1    4    4    0    0 -0.10773407839E-01 -0.16445797846E-02 -0.21107813411E-01  0.23760721099E-01  0.51100000000E-03 0. -1.
</event>
<event>
 8    1  0.1054086E+005  0.1043930E+01  0.7957747E-01            NaN
         13   -1    0    0    0    0  0.00000000000E+00  0.00000000000E+00  0.74505805969E-08  0.10566000000E+00  0.10566000000E+00 0. -1.
     999900   -1    0    0    0    0 -0.00000000000E+00 -0.00000000000E+00 -0.74505805969E-08  0.93827000000E+00  0.93827000000E+00 0.  1.
     999902    2    1    2    0    0 -0.29603536113E-02  0.20639965329E-02 -0.23025981401E-01  0.10206229282E+01  0.10203567719E+01 0.  0.
     999903    2    3    3    0    0  0.71396937603E-01  0.18288389767E-01  0.10320134344E+00  0.12836423523E+00  0.19871378855E-01 0.  0.
         14    1    1    2    0    0  0.29603536113E-02 -0.20639965329E-02  0.23025981401E-01  0.23307071774E-01  0.00000000000E+00 0. -1.
     999901    1    3    3    0    0 -0.74357291214E-01 -0.16224393234E-01 -0.12622732485E+00  0.89225869300E+00  0.88000000000E+00 0.  1.
        -11    1    4    4    0    0  0.61266060580E-01  0.10753605175E-01  0.74846535583E-01  0.97321298866E-01  0.51100000000E-03 0. -1.
         11    1    4    4    0    0  0.10130877023E-01  0.75347845915E-02  0.28354807862E-01  0.31042936362E-01  0.51100000000E-03 0.  1.
</event>
<event>
 8    1  0.1054086E+005  0.1043930E+01  0.7957747E-01            NaN
         13   -1    0    0    0    0  0.00000000000E+00  0.00000000000E+00  0.74505805969E-08  0.10566000000E+00  0.10566000000E+00 0.  1.
     999900   -1    0    0    0    0 -0.00000000000E+00 -0.00000000000E+00 -0.74505805969E-08  0.93827000000E+00  0.93827000000E+00 0.  1.
     999902    2    1    2    0    0  0.64876300533E-02 -0.21014960922E-01  0.90804292273E-02  0.10201356284E+01  0.10198580922E+01 0.  0.
     999903    2    3    3    0    0  0.49534461763E-01 -0.94578415233E-01  0.77416773488E-01  0.13338060725E+00  0.19957205310E-01 0.  0.
         14    1    1    2    0    0 -0.64876300533E-02  0.21014960922E-01 -0.90804292273E-02  0.23794371629E-01  0.00000000000E+00 0. -1.
     999901    1    3    3    0    0 -0.43046831710E-01  0.73563454311E-01 -0.68336344261E-01  0.88675502112E+00  0.88000000000E+00 0.  1.
        -11    1    4    4    0    0  0.13811368262E-01 -0.37641043771E-01  0.39112359868E-01  0.56014639916E-01  0.51100000000E-03 0.  1.
         11    1    4    4    0    0  0.35723093501E-01 -0.56937371462E-01  0.38304413620E-01  0.77365967338E-01  0.51100000000E-03 0. -1.
</event>
<event>
 8    1  0.1054086E+005  0.1043930E+01  0.7957747E-01            NaN
         13   -1    0    0    0    0  0.00000000000E+00  0.00000000000E+00  0.74505805969E-08  0.10566000000E+00  0.10566000000E+00 0.  1.
     999900   -1    0    0    0    0 -0.00000000000E+00 -0.00000000000E+00 -0.74505805969E-08  0.93827000000E+00  0.93827000000E+00 0. -1.
     999902    2    1    2    0    0  0.69009979246E-02  0.12642659316E-01  0.18422989787E-01  0.10205448090E+01  0.10202768448E+01 0.  0.
     999903    2    3    3    0    0  0.52119083544E-01 -0.11017698028E+00 -0.37929279026E-01  0.12908257346E+00  0.19191527066E-01 0.  0.
         14    1    1    2    0    0 -0.69009979246E-02 -0.12642659316E-01 -0.18422989787E-01  0.23385191033E-01  0.00000000000E+00 0. -1.
     999901    1    3    3    0    0 -0.45218085619E-01  0.12281963959E+00  0.56352268813E-01  0.89146223551E+00  0.88000000000E+00 0.  1.
        -11    1    4    4    0    0  0.20065686472E-01 -0.64635661005E-01 -0.19955228427E-01  0.70561127469E-01  0.51100000000E-03 0.  1.
         11    1    4    4    0    0  0.32053397072E-01 -0.45541319272E-01 -0.17974050599E-01  0.58521445990E-01  0.51100000000E-03 0. -1.
</event>
<event>
 8    1  0.1054086E+005  0.1043930E+01  0.7957747E-01            NaN
         13   -1    0    0    0    0  0.00000000000E+00  0.00000000000E+00  0.74505805969E-08  0.10566000000E+00  0.10566000000E+00 0.  1.
     999900   -1    0    0    0    0 -0.00000000000E+00 -0.00000000000E+00 -0.74505805969E-08  0.93827000000E+00  0.93827000000E+00 0.  1.
     999902    2    1    2    0    0  0.25015185281E-01 -0.53970275489E-02 -0.58577473827E-02  0.10176773696E+01  0.10173386987E+01 0.  0.
     999903    2    3    3    0    0 -0.42635039524E-01 -0.46734729788E-01 -0.10967315121E+00  0.12803530860E+00  0.19051472108E-01 0.  0.
         14    1    1    2    0    0 -0.25015185281E-01  0.53970275489E-02  0.58577473827E-02  0.26252630447E-01  0.00000000000E+00 0.  1.
     999901    1    3    3    0    0  0.67650224805E-01  0.41337702239E-01  0.10381540382E+00  0.88964206095E+00  0.88000000000E+00 0. -1.
        -11    1    4    4    0    0 -0.82049383441E-02 -0.89873700074E-02 -0.90193541050E-02  0.15155979096E-01  0.51100000000E-03 0. -1.
         11    1    4    4    0    0 -0.34430101180E-01 -0.37747359781E-01 -0.10065379710E+00  0.11287932951E+00  0.51100000000E-03 0.  1.
</event>
<event>
 8    1  0.1054086E+005  0.1043930E+01  0.7957747E-01            NaN
         13   -1    0    0    0    0  0.00000000000E+00  0.00000000000E+00  0.74505805969E-08  0.10566000000E+00  0.10566000000E+00 0.  1.
     999900   -1    0    0    0    0 -0.00000000000E+00 -0.00000000000E+00 -0.74505805969E-08  0.93827000000E+00  0.93827000000E+00 0. -1.
     999902    2    1    2    0    0  0.24322567381E-03 -0.21053229580E-01  0.10040550021E-01  0.10206038284E+01  0.10203372307E+01 0.  0.
     999903    2    3    3    0    0  0.62673215310E-01 -0.10746959655E+00 -0.41924532926E-01  0.13264793882E+00  0.18977963833E-01 0.  0.
         14    1    1    2    0    0 -0.24322567381E-03  0.21053229580E-01 -0.10040550021E-01  0.23326171550E-01  0.00000000000E+00 0.  1.
     999901    1    3    3    0    0 -0.62429989636E-01  0.86416366972E-01  0.51965082947E-01  0.88795588963E+00  0.88000000000E+00 0.  1.
        -11    1    4    4    0    0  0.47698221319E-01 -0.67595654515E-01 -0.21909972231E-01  0.85583881839E-01  0.51100000000E-03 0.  1.
         11    1    4    4    0    0  0.14974993991E-01 -0.39873942036E-01 -0.20014560695E-01  0.47064056979E-01  0.51100000000E-03 0. -1.
</event>
<event>
 8    1  0.1054086E+005  0.1043930E+01  0.7957747E-01            NaN
         13   -1    0    0    0    0  0.00000000000E+00  0.00000000000E+00  0.74505805969E-08  0.10566000000E+00  0.10566000000E+00 0. -1.
     999900   -1    0    0    0    0 -0.00000000000E+00 -0.00000000000E+00 -0.74505805969E-08  0.93827000000E+00  0.93827000000E+00 0. -1.
     999902    2    1    2    0    0  0.14974544742E-01  0.19161986928E-01 -0.12125309190E-02  0.10195806886E+01  0.10192898958E+01 0.  0.
     999903    2    3    3    0    0  0.13429822019E-01 -0.46167839111E-01  0.11842906883E+00  0.12908392573E+00  0.18038460275E-01 0.  0.
         14    1    1    2    0    0 -0.14974544742E-01 -0.19161986928E-01  0.12125309190E-02  0.24349311376E-01  0.00000000000E+00 0.  1.
     999901    1    3    3    0    0  0.15447227224E-02  0.65329826039E-01 -0.11964159975E+00  0.89049676290E+00  0.88000000000E+00 0. -1.
        -11    1    4    4    0    0  0.13166813302E-02 -0.29287171613E-01  0.82772591636E-01  0.87812499782E-01  0.51100000000E-03 0. -1.
         11    1    4    4    0    0  0.12113140689E-01 -0.16880667498E-01  0.35656477196E-01  0.41271425946E-01  0.51100000000E-03 0.  1.
</event>
<event>
 8    1  0.1054086E+005  0.1043930E+01  0.7957747E-01            NaN
         13   -1    0    0    0    0  0.00000000000E+00  0.00000000000E+00  0.74505805969E-08  0.10566000000E+00  0.10566000000E+00 0. -1.
     999900   -1    0    0    0    0 -0.00000000000E+00 -0.00000000000E+00 -0.74505805969E-08  0.93827000000E+00  0.93827000000E+00 0. -1.
     999902    2    1    2    0    0  0.10568002686E-01 -0.21061624218E-01 -0.59311035877E-02  0.10196307678E+01  0.10193411843E+01 0.  0.
     999903    2    3    3    0    0  0.12515522871E+00 -0.36560079514E-02 -0.36165260129E-01  0.13151630893E+00  0.17646977295E-01 0.  0.
         14    1    1    2    0    0 -0.10568002686E-01  0.21061624218E-01  0.59311035877E-02  0.24299232195E-01  0.00000000000E+00 0. -1.
     999901    1    3    3    0    0 -0.11458722602E+00 -0.17405616267E-01  0.30234156541E-01  0.88811445888E+00  0.88000000000E+00 0. -1.
        -11    1    4    4    0    0  0.51631072831E-01  0.67523241160E-02 -0.12166009867E-01  0.53475550298E-01  0.51100000000E-03 0.  1.
         11    1    4    4    0    0  0.73524155874E-01 -0.10408332067E-01 -0.23999250262E-01  0.78040758630E-01  0.51100000000E-03 0. -1.
</event>
<event>
 8    1  0.1054086E+005  0.1043930E+01  0.7957747E-01            NaN
         13   -1    0    0    0    0  0.00000000000E+00  0.00000000000E+00  0.74505805969E-08  0.10566000000E+00  0.10566000000E+00 0.  1.
     999900   -1    0    0    0    0 -0.00000000000E+00 -0.00000000000E+00 -0.74505805969E-08  0.93827000000E+00  0.93827000000E+00 0. -1.
     999902    2    1    2    0    0  0.35951148589E-02 -0.27208625297E-03  0.23629723238E-01  0.10200268056E+01  0.10197466948E+01 0.  0.
     999903    2    3    3    0    0 -0.34214078864E-01 -0.10158188566E+00  0.74827030972E-01  0.13193087897E+00  0.17809816828E-01 0.  0.
         14    1    1    2    0    0 -0.35951148589E-02  0.27208625297E-03 -0.23629723238E-01  0.23903194390E-01  0.00000000000E+00 0. -1.
     999901    1    3    3    0    0  0.37809193723E-01  0.10130979941E+00 -0.51197307735E-01  0.88809592664E+00  0.88000000000E+00 0.  1.
        -11    1    4    4    0    0 -0.30541859985E-01 -0.65083562646E-01  0.51877834239E-01  0.88658029215E-01  0.51100000000E-03 0.  1.
         11    1    4    4    0    0 -0.36722188793E-02 -0.36498323017E-01  0.22949196733E-01  0.43272849759E-01  0.51100000000E-03 0. -1.
</event>
<event>
 8    1  0.1054086E+005  0.1043930E+01  0.7957747E-01            NaN
         13   -1    0    0    0    0  0.00000000000E+00  0.00000000000E+00  0.74505805969E-08  0.10566000000E+00  0.10566000000E+00 0.  1.
     999900   -1    0    0    0    0 -0.00000000000E+00 -0.00000000000E+00 -0.74505805969E-08  0.93827000000E+00  0.93827000000E+00 0. -1.
     999902    2    1    2    0    0 -0.79372630557E-02 -0.13170823942E-01  0.18635659008E-01  0.10197689045E+01  0.10194826433E+01 0.  0.
     999903    2    3    3    0    0  0.90528454852E-01 -0.43759407989E-02  0.92867093594E-01  0.13112772077E+00  0.18858210053E-01 0.  0.
         14    1    1    2    0    0  0.79372630557E-02  0.13170823942E-01 -0.18635659008E-01  0.24161095480E-01  0.00000000000E+00 0. -1.
     999901    1    3    3    0    0 -0.98465717908E-01 -0.87948831435E-02 -0.74231434586E-01  0.88864118375E+00  0.88000000000E+00 0. -1.
        -11    1    4    4    0    0  0.49259309597E-01  0.56974283805E-02  0.43186269201E-01  0.65759069646E-01  0.51100000000E-03 0. -1.
         11    1    4    4    0    0  0.41269145255E-01 -0.10073369179E-01  0.49680824393E-01  0.65368651126E-01  0.51100000000E-03 0.  1.
</event>
<event>
 8    1  0.1054086E+005  0.1043930E+01  0.7957747E-01            NaN
         13   -1    0    0    0    0  0.00000000000E+00  0.00000000000E+00  0.74505805969E-08  0.10566000000E+00  0.10566000000E+00 0. -1.
     999900   -1    0    0    0    0 -0.00000000000E+00 -0.00000000000E+00 -0.74505805969E-08  0.93827000000E+00  0.93827000000E+00 0.  1.
     999902    2    1    2    0    0  0.99019959758E-02 -0.85642025136E-02 -0.20074938077E-01  0.10199633935E+01  0.10196817767E+01 0.  0.
     999903    2    3    3    0    0 -0.15449911035E-01 -0.21565734000E-01 -0.12880251618E+00  0.13281433879E+00  0.18595154761E-01 0.  0.
         14    1    1    2    0    0 -0.99019959758E-02  0.85642025136E-02  0.20074938077E-01  0.23966606514E-01  0.00000000000E+00 0. -1.
     999901    1    3    3    0    0  0.25351907011E-01  0.13001531487E-01  0.10872757810E+00  0.88714905470E+00  0.88000000000E+00 0. -1.
        -11    1    4    4    0    0 -0.81688714476E-02  0.12123039417E-02 -0.26983266873E-01  0.28223358300E-01  0.51100000000E-03 0.  1.
         11    1    4    4    0    0 -0.72810395878E-02 -0.22778037942E-01 -0.10181924930E+00  0.10459098049E+00  0.51100000000E-03 0. -1.
</event>
<event>
 7    1  0.1054086E+005  0.1043930E+01  0.7957747E-01            NaN
         13   -1    0    0    0    0  0.00000000000E+00  0.00000000000E+00  0.74505805969E-08  0.10566000000E+00  0.10566000000E+00 0. -1.
     999900   -1    0    0    0    0 -0.00000000000E+00 -0.00000000000E+00 -0.74505805969E-08  0.93827000000E+00  0.93827000000E+00 0.  1.
     999903    2    1    2    0    0  0.50693026936E-01 -0.33702899032E-02 -0.11426930184E-01  0.55382848206E-01  0.18855856068E-01 0.  0.
         14    1    1    2    0    0  0.58374522821E-01  0.79404789486E-02 -0.77505633559E-01  0.97353784487E-01  0.00000000000E+00 0. -1.
     999901    1    1    2    0    0 -0.10906754976E+00 -0.45701890454E-02  0.88932563742E-01  0.89119336731E+00  0.88000000000E+00 0. -1.
        -11    1    3    3    0    0  0.39458408342E-02  0.47050625654E-02  0.12251610109E-02  0.62824687930E-02  0.51100000000E-03 0. -1.
         11    1    3    3    0    0  0.46747186102E-01 -0.80753524685E-02 -0.12652091194E-01  0.49100379413E-01  0.51100000000E-03 0.  1.
</event>
<event>
 8    1  0.1054086E+005  0.1043930E+01  0.7957747E-01            NaN
         13   -1    0    0    0    0  0.00000000000E+00  0.00000000000E+00  0.74505805969E-08  0.10566000000E+00  0.10566000000E+00 0.  1.
     999900   -1    0    0    0    0 -0.00000000000E+00 -0.00000000000E+00 -0.74505805969E-08  0.93827000000E+00  0.93827000000E+00 0.  1.
     999902    2    1    2    0    0  0.17252351158E-01 -0.14803217761E-01  0.64040746136E-02  0.10203123996E+01  0.10200390197E+01 0.  0.
     999903    2    3    3    0    0 -0.26204790184E-01 -0.12746467436E+00  0.10035928009E-01  0.13205887876E+00  0.20121962428E-01 0.  0.
         14    1    1    2    0    0 -0.17252351158E-01  0.14803217761E-01 -0.64040746136E-02  0.23617600390E-01  0.00000000000E+00 0. -1.
     999901    1    3    3    0    0  0.43457141342E-01  0.11266145660E+00 -0.36318533955E-02  0.88825352085E+00  0.88000000000E+00 0. -1.
        -11    1    4    4    0    0 -0.28936103653E-01 -0.10105044464E+00  0.76005753891E-02  0.10538747708E+00  0.51100000000E-03 0.  1.
         11    1    4    4    0    0  0.27313134686E-02 -0.26414229713E-01  0.24353526200E-02  0.26671401688E-01  0.51100000000E-03 0. -1.
</event>
<event>
 8    1  0.1054086E+005  0.1043930E+01  0.7957747E-01            NaN
         13   -1    0    0    0    0  0.00000000000E+00  0.00000000000E+00  0.74505805969E-08  0.10566000000E+00  0.10566000000E+00 0.  1.
     999900   -1    0    0    0    0 -0.00000000000E+00 -0.00000000000E+00 -0.74505805969E-08  0.93827000000E+00  0.93827000000E+00 0.  1.
     999902    2    1    2    0    0 -0.23447916314E-01  0.24018358385E-02  0.31566284135E-02  0.10201489593E+01  0.10198717376E+01 0.  0.
     999903    2    3    3    0    0 -0.27330116671E-01  0.24141937954E-01 -0.12386295388E+00  0.13075496458E+00  0.20617006884E-01 0.  0.
         14    1    1    2    0    0  0.23447916314E-01 -0.24018358385E-02 -0.31566284135E-02  0.23781040722E-01  0.00000000000E+00 0.  1.
     999901    1    3    3    0    0  0.38822003569E-02 -0.21740102115E-01  0.12701958229E+00  0.88939399470E+00  0.88000000000E+00 0. -1.
        -11    1    4    4    0    0 -0.19232746348E-01  0.26028949023E-01 -0.83769697581E-01  0.89805501352E-01  0.51100000000E-03 0. -1.
         11    1    4    4    0    0 -0.80973703233E-02 -0.18870110690E-02 -0.40093256299E-01  0.40949463228E-01  0.51100000000E-03 0.  1.
</event>
<event>
 8    1  0.1054086E+005  0.1043930E+01  0.7957747E-01            NaN
         13   -1    0    0    0    0  0.00000000000E+00  0.00000000000E+00  0.74505805969E-08  0.10566000000E+00  0.10566000000E+00 0.  1.
     999900   -1    0    0    0    0 -0.00000000000E+00 -0.00000000000E+00 -0.74505805969E-08  0.93827000000E+00  0.93827000000E+00 0.  1.
     999902    2    1    2    0    0 -0.10940450148E-01 -0.31018493377E-02  0.16121894658E-01  0.10242010769E+01  0.10240110427E+01 0.  0.
     999903    2    3    3    0    0 -0.90581088021E-01  0.95532501182E-01  0.17030745049E-01  0.13511604594E+00  0.25197366987E-01 0.  0.
         14    1    1    2    0    0  0.10940450148E-01  0.31018493377E-02 -0.16121894658E-01  0.19728923085E-01  0.00000000000E+00 0. -1.
     999901    1    3    3    0    0  0.79640637873E-01 -0.98634350520E-01 -0.90885039138E-03  0.88908503098E+00  0.88000000000E+00 0. -1.
        -11    1    4    4    0    0 -0.27704237072E-01  0.26602239732E-01 -0.63417588713E-02  0.38931772848E-01  0.51100000000E-03 0.  1.
         11    1    4    4    0    0 -0.62876850949E-01  0.68930261450E-01  0.23372503920E-01  0.96184273087E-01  0.51100000000E-03 0. -1.
</event>
<event>
 8    1  0.1054086E+005  0.1043930E+01  0.7957747E-01            NaN
         13   -1    0    0    0    0  0.00000000000E+00  0.00000000000E+00  0.74505805969E-08  0.10566000000E+00  0.10566000000E+00 0. -1.
     999900   -1    0    0    0    0 -0.00000000000E+00 -0.00000000000E+00 -0.74505805969E-08  0.93827000000E+00  0.93827000000E+00 0. -1.
     999902    2    1    2    0    0 -0.81482280265E-02 -0.43975700541E-02 -0.21432255289E-01  0.10205831842E+01  0.10203161089E+01 0.  0.
     999903    2    3    3    0    0 -0.42017789303E-01 -0.10523919454E+00 -0.66807356651E-01  0.13301624009E+00  0.19731055204E-01 0.  0.
         14    1    1    2    0    0  0.81482280265E-02  0.43975700541E-02  0.21432255289E-01  0.23346815825E-01  0.00000000000E+00 0. -1.
     999901    1    3    3    0    0  0.33869561276E-01  0.10084162449E+00  0.45375101361E-01  0.88756694409E+00  0.88000000000E+00 0.  1.
        -11    1    4    4    0    0 -0.27116605942E-01 -0.63453984475E-01 -0.51419460605E-01  0.86057774276E-01  0.51100000000E-03 0. -1.
         11    1    4    4    0    0 -0.14901183361E-01 -0.41785210066E-01 -0.15387896046E-01  0.46958465813E-01  0.51100000000E-03 0.  1.
</event>
<event>
 8    1  0.1054086E+005  0.1043930E+01  0.7957747E-01            NaN
         13   -1    0    0    0    0  0.00000000000E+00  0.00000000000E+00  0.74505805969E-08  0.10566000000E+00  0.10566000000E+00 0.  1.
     999900   -1    0    0    0    0 -0.00000000000E+00 -0.00000000000E+00 -0.74505805969E-08  0.93827000000E+00  0.93827000000E+00 0.  1.
     999902    2    1    2    0    0 -0.23701458818E-01 -0.50850273358E-03 -0.16491247707E-01  0.10150513058E+01  0.10146404164E+01 0.  0.
     999903    2    3    3    0    0  0.96401162608E-01 -0.74921546536E-02  0.72302245330E-01  0.12243845837E+00  0.20353006543E-01 0.  0.
         14    1    1    2    0    0  0.23701458818E-01  0.50850273358E-03  0.16491247707E-01  0.28878694155E-01  0.00000000000E+00 0.  1.
     999901    1    3    3    0    0 -0.12010262143E+00  0.69836519200E-02 -0.88793493038E-01  0.89261284747E+00  0.88000000000E+00 0. -1.
        -11    1    4    4    0    0  0.27815896859E-01 -0.61083275201E-02  0.11317752639E-01  0.30649444187E-01  0.51100000000E-03 0.  1.
         11    1    4    4    0    0  0.68585265748E-01 -0.13838271335E-02  0.60984492691E-01  0.91789014185E-01  0.51100000000E-03 0. -1.
</event>
<event>
 8    1  0.1054086E+005  0.1043930E+01  0.7957747E-01            NaN
         13   -1    0    0    0    0  0.00000000000E+00  0.00000000000E+00  0.74505805969E-08  0.10566000000E+00  0.10566000000E+00 0.  1.
     999900   -1    0    0    0    0 -0.00000000000E+00 -0.00000000000E+00 -0.74505805969E-08  0.93827000000E+00  0.93827000000E+00 0.  1.
     999902    2    1    2    0    0 -0.14831050124E-01  0.12565831111E-01 -0.14322434003E-01  0.10197847670E+01  0.10194988861E+01 0.  0.
     999903    2    3    3    0    0 -0.22709198422E-01 -0.49108688031E-01 -0.11820347162E+00  0.13149591677E+00  0.19792536228E-01 0.  0.
         14    1    1    2    0    0  0.14831050124E-01 -0.12565831111E-01  0.14322434003E-01  0.24145232968E-01  0.00000000000E+00 0.  1.
     999901    1    3    3    0    0  0.78781482981E-02  0.61674519141E-01  0.10388103762E+00  0.88828885027E+00  0.88000000000E+00 0. -1.
        -11    1    4    4    0    0 -0.15258695614E-01 -0.34517170336E-01 -0.58788870532E-01  0.69861686634E-01  0.51100000000E-03 0. -1.
         11    1    4    4    0    0 -0.74505028085E-02 -0.14591517694E-01 -0.59414601086E-01  0.61634230132E-01  0.51100000000E-03 0.  1.
</event>
<event>
 8    1  0.1054086E+005  0.1043930E+01  0.7957747E-01            NaN
         13   -1    0    0    0    0  0.00000000000E+00  0.00000000000E+00  0.74505805969E-08  0.10566000000E+00  0.10566000000E+00 0.  1.
     999900   -1    0    0    0    0 -0.00000000000E+00 -0.00000000000E+00 -0.74505805969E-08  0.93827000000E+00  0.93827000000E+00 0.  1.
     999902    2    1    2    0    0 -0.12396599859E-01 -0.28573640287E-02 -0.19108784272E-01  0.10209738275E+01  0.10207157149E+01 0.  0.
     999903    2    3    3    0    0 -0.24816800483E-01  0.10931458861E+00  0.62865868934E-01  0.12998749089E+00  0.19469911204E-01 0.  0.
         14    1    1    2    0    0  0.12396599859E-01  0.28573640287E-02  0.19108784272E-01  0.22956172451E-01  0.00000000000E+00 0.  1.
     999901    1    3    3    0    0  0.12420200624E-01 -0.11217195264E+00 -0.81974653205E-01  0.89098633666E+00  0.88000000000E+00 0.  1.
        -11    1    4    4    0    0 -0.87499542336E-02  0.31204215266E-01  0.86172760999E-02  0.33537789400E-01  0.51100000000E-03 0.  1.
         11    1    4    4    0    0 -0.16066846250E-01  0.78110373344E-01  0.54248592834E-01  0.96449701491E-01  0.51100000000E-03 0. -1.
</event>
<event>
 8    1  0.1054086E+005  0.1043930E+01  0.7957747E-01            NaN
         13   -1    0    0    0    0  0.00000000000E+00  0.00000000000E+00  0.74505805969E-08  0.10566000000E+00  0.10566000000E+00 0. -1.
     999900   -1    0    0    0    0 -0.00000000000E+00 -0.00000000000E+00 -0.74505805969E-08  0.93827000000E+00  0.93827000000E+00 0.  1.
     999902    2    1    2    0    0  0.13639405671E-01 -0.16791351895E-01 -0.81414736128E-02  0.10208157949E+01  0.10205540753E+01 0.  0.
     999903    2    3    3    0    0  0.50272802419E-01  0.18698270140E-01 -0.11851901408E+00  0.13245510211E+00  0.24912193938E-01 0.  0.
         14    1    1    2    0    0 -0.13639405671E-01  0.16791351895E-01  0.81414736128E-02  0.23114205115E-01  0.00000000000E+00 0.  1.
     999901    1    3    3    0    0 -0.36633396748E-01 -0.35489622035E-01  0.11037754047E+00  0.88836069278E+00  0.88000000000E+00 0.  1.
        -11    1    4    4    0    0  0.40657607717E-01  0.60634415210E-02 -0.67634251449E-01  0.79148338444E-01  0.51100000000E-03 0. -1.
         11    1    4    4    0    0  0.96151947021E-02  0.12634828619E-01 -0.50884762631E-01  0.53306763665E-01  0.51100000000E-03 0.  1.
</event>
<event>
 8    1  0.1054086E+005  0.1043930E+01  0.7957747E-01            NaN
         13   -1    0    0    0    0  0.00000000000E+00  0.00000000000E+00  0.74505805969E-08  0.10566000000E+00  0.10566000000E+00 0.  1.
     999900   -1    0    0    0    0 -0.00000000000E+00 -0.00000000000E+00 -0.74505805969E-08  0.93827000000E+00  0.93827000000E+00 0.  1.
     999902    2    1    2    0    0 -0.20146771907E-01 -0.89063351051E-02  0.12506597635E-01  0.10185995794E+01  0.10182845737E+01 0.  0.
     999903    2    3    3    0    0 -0.81636732239E-01  0.74959306127E-01  0.66506235653E-01  0.13083248049E+00  0.20263389281E-01 0.  0.
         14    1    1    2    0    0  0.20146771907E-01  0.89063351051E-02 -0.12506597635E-01  0.25330420599E-01  0.00000000000E+00 0. -1.
     999901    1    3    3    0    0  0.61489960332E-01 -0.83865641232E-01 -0.53999638018E-01  0.88776709891E+00  0.88000000000E+00 0.  1.
        -11    1    4    4    0    0 -0.19150586898E-01  0.93830551125E-02  0.18913087124E-01  0.28508817713E-01  0.51100000000E-03 0. -1.
         11    1    4    4    0    0 -0.62486145341E-01  0.65576251014E-01  0.47593148529E-01  0.10232366278E+00  0.51100000000E-03 0.  1.
</event>
<event>
 8    1  0.1054086E+005  0.1043930E+01  0.7957747E-01            NaN
         13   -1    0    0    0    0  0.00000000000E+00  0.00000000000E+00  0.74505805969E-08  0.10566000000E+00  0.10566000000E+00 0. -1.
     999900   -1    0    0    0    0 -0.00000000000E+00 -0.00000000000E+00 -0.74505805969E-08  0.93827000000E+00  0.93827000000E+00 0.  1.
     999902    2    1    2    0    0  0.14037937535E-01 -0.18676402117E-01  0.44483237957E-02  0.10201464075E+01  0.10198691257E+01 0.  0.
     999903    2    3    3    0    0 -0.50318767537E-02 -0.93958052986E-01 -0.89886967099E-01  0.13170387597E+00  0.20317691465E-01 0.  0.
         14    1    1    2    0    0 -0.14037937535E-01  0.18676402117E-01 -0.44483237957E-02  0.23783592472E-01  0.00000000000E+00 0. -1.
     999901    1    3    3    0    0  0.19069814289E-01  0.75281650869E-01  0.94335290895E-01  0.88844253156E+00  0.88000000000E+00 0. -1.
        -11    1    4    4    0    0 -0.79029304892E-02 -0.79064915007E-01 -0.83418527422E-01  0.11520689621E+00  0.51100000000E-03 0.  1.
         11    1    4    4    0    0  0.28710537356E-02 -0.14893137979E-01 -0.64684396767E-02  0.16496979762E-01  0.51100000000E-03 0. -1.
</event>
<event>
 8    1  0.1054086E+005  0.1043930E+01  0.7957747E-01            NaN
         13   -1    0    0    0    0  0.00000000000E+00  0.00000000000E+00  0.74505805969E-08  0.10566000000E+00  0.10566000000E+00 0. -1.
     999900   -1    0    0    0    0 -0.00000000000E+00 -0.00000000000E+00 -0.74505805969E-08  0.93827000000E+00  0.93827000000E+00 0.  1.
     999902    2    1    2    0    0  0.93419533175E-02  0.19333342820E-01 -0.10480860521E-01  0.10200365140E+01  0.10197566333E+01 0.  0.
     999903    2    3    3    0    0  0.13675820192E-01  0.12480223049E+00 -0.39344830614E-01  0.13325830190E+00  0.21145555944E-01 0.  0.
         14    1    1    2    0    0 -0.93419533175E-02 -0.19333342820E-01  0.10480860521E-01  0.23893486009E-01  0.00000000000E+00 0. -1.
     999901    1    3    3    0    0 -0.43338668743E-02 -0.10546888767E+00  0.28863970093E-01  0.88677821209E+00  0.88000000000E+00 0. -1.
        -11    1    4    4    0    0  0.74958029684E-02  0.43114799847E-01 -0.37111965465E-02  0.43921602075E-01  0.51100000000E-03 0. -1.
         11    1    4    4    0    0  0.61800172234E-02  0.81687430643E-01 -0.35633634068E-01  0.89336699826E-01  0.51100000000E-03 0.  1.
</event>
<event>
 8    1  0.1054086E+005  0.1043930E+01  0.7957747E-01            NaN
         13   -1    0    0    0    0  0.00000000000E+00  0.00000000000E+00  0.74505805969E-08  0.10566000000E+00  0.10566000000E+00 0.  1.
     999900   -1    0    0    0    0 -0.00000000000E+00 -0.00000000000E+00 -0.74505805969E-08  0.93827000000E+00  0.93827000000E+00 0. -1.
     999902    2    1    2    0    0 -0.20928911675E-01  0.10741440131E-02  0.10960339155E-01  0.10202804299E+01  0.10200063008E+01 0.  0.
     999903    2    3    3    0    0 -0.10780535657E+00 -0.13424422985E-01  0.75405118015E-01  0.13353872311E+00  0.18559329467E-01 0.  0.
         14    1    1    2    0    0  0.20928911675E-01 -0.10741440131E-02 -0.10960339155E-01  0.23649570052E-01  0.00000000000E+00 0.  1.
     999901    1    3    3    0    0  0.86876444892E-01  0.14498566998E-01 -0.64444778860E-01  0.88674170684E+00  0.88000000000E+00 0. -1.
        -11    1    4    4    0    0 -0.41524325793E-01 -0.41434216239E-02  0.18346072096E-01  0.45588124086E-01  0.51100000000E-03 0. -1.
         11    1    4    4    0    0 -0.66281030774E-01 -0.92810013610E-02  0.57059045918E-01  0.87950599025E-01  0.51100000000E-03 0.  1.
</event>
<event>
 8    1  0.1098509E+005  0.1043930E+01  0.7957747E-01            NaN
         13   -1    0    0    0    0  0.00000000000E+00  0.00000000000E+00  0.74505805969E-08  0.10566000000E+00  0.10566000000E+00 0. -1.
     999900   -1    0    0    0    0 -0.00000000000E+00 -0.00000000000E+00 -0.74505805969E-08  0.93827000000E+00  0.93827000000E+00 0. -1.
     999902    2    1    2    0    0 -0.16639112967E-01 -0.59402094549E-02  0.13523960636E-01  0.10216804229E+01  0.10214381249E+01 0.  0.
     999903    2    3    3    0    0  0.79388328744E-01 -0.86245883562E-01  0.57326296129E-01  0.13174283216E+00  0.18138644566E-01 0.  0.
         14    1    1    2    0    0  0.16639112967E-01  0.59402094549E-02 -0.13523960636E-01  0.22249577074E-01  0.00000000000E+00 0.  1.
     999901    1    3    3    0    0 -0.96027441711E-01  0.80305674107E-01 -0.43802335493E-01  0.88993759076E+00  0.88000000000E+00 0.  1.
        -11    1    4    4    0    0  0.34050575413E-01 -0.24254647459E-01  0.20761414353E-01  0.46680049874E-01  0.51100000000E-03 0. -1.
         11    1    4    4    0    0  0.45337753331E-01 -0.61991236103E-01  0.36564881775E-01  0.85062782290E-01  0.51100000000E-03 0.  1.
</event>
<event>
 8    1  0.1218245E+005  0.1043930E+01  0.7957747E-01            NaN
         13   -1    0    0    0    0  0.00000000000E+00  0.00000000000E+00  0.74505805969E-08  0.10566000000E+00  0.10566000000E+00 0. -1.
     999900   -1    0    0    0    0 -0.00000000000E+00 -0.00000000000E+00 -0.74505805969E-08  0.93827000000E+00  0.93827000000E+00 0. -1.
     999902    2    1    2    0    0  0.54548700769E-02 -0.22907000908E-01  0.81806767366E-03  0.10203682613E+01  0.10200961881E+01 0.  0.
     999903    2    3    3    0    0 -0.35596917856E-01 -0.96321676565E-01 -0.81432887981E-01  0.13253934552E+00  0.19757452521E-01 0.  0.
         14    1    1    2    0    0 -0.54548700769E-02  0.22907000908E-01 -0.81806767366E-03  0.23561738749E-01  0.00000000000E+00 0. -1.
     999901    1    3    3    0    0  0.41051787933E-01  0.73414675657E-01  0.82250955655E-01  0.88782891573E+00  0.88000000000E+00 0.  1.
        -11    1    4    4    0    0 -0.29112070351E-01 -0.51806586659E-01 -0.49918287771E-01  0.77611414343E-01  0.51100000000E-03 0. -1.
         11    1    4    4    0    0 -0.64848475049E-02 -0.44515089906E-01 -0.31514600210E-01  0.54927931181E-01  0.51100000000E-03 0.  1.
</event>
<event>
 8    1  0.1054086E+005  0.1043930E+01  0.7957747E-01            NaN
         13   -1    0    0    0    0  0.00000000000E+00  0.00000000000E+00  0.74505805969E-08  0.10566000000E+00  0.10566000000E+00 0. -1.
     999900   -1    0    0    0    0 -0.00000000000E+00 -0.00000000000E+00 -0.74505805969E-08  0.93827000000E+00  0.93827000000E+00 0. -1.
     999902    2    1    2    0    0  0.25391191204E-02 -0.23585405163E-01 -0.39023051056E-02  0.10198894832E+01  0.10196061061E+01 0.  0.
     999903    2    3    3    0    0 -0.12120950261E-02  0.12348649748E+00 -0.24688747423E-01  0.12743427854E+00  0.19482732419E-01 0.  0.
         14    1    1    2    0    0 -0.25391191204E-02  0.23585405163E-01  0.39023051056E-02  0.24040516795E-01  0.00000000000E+00 0.  1.
     999901    1    3    3    0    0  0.37512141465E-02 -0.14707190264E+00  0.20786442318E-01  0.89245520467E+00  0.88000000000E+00 0. -1.
        -11    1    4    4    0    0  0.10005343057E-02  0.59515572156E-01 -0.21683665151E-01  0.63352559959E-01  0.51100000000E-03 0. -1.
         11    1    4    4    0    0 -0.22126293318E-02  0.63970925325E-01 -0.30050822720E-02  0.64081718578E-01  0.51100000000E-03 0.  1.
</event>
<event>
 8    1  0.1054086E+005  0.1043930E+01  0.7957747E-01            NaN
         13   -1    0    0    0    0  0.00000000000E+00  0.00000000000E+00  0.74505805969E-08  0.10566000000E+00  0.10566000000E+00 0.  1.
     999900   -1    0    0    0    0 -0.00000000000E+00 -0.00000000000E+00 -0.74505805969E-08  0.93827000000E+00  0.93827000000E+00 0.  1.
     999902    2    1    2    0    0 -0.82705002132E-02  0.13650864239E-01  0.17400043557E-01  0.10203183761E+01  0.10200451362E+01 0.  0.
     999903    2    3    3    0    0 -0.10653528534E+00 -0.47005593329E-01  0.58590087984E-01  0.13181863292E+00  0.19597467896E-01 0.  0.
         14    1    1    2    0    0  0.82705002132E-02 -0.13650864239E-01 -0.17400043557E-01  0.23611623918E-01  0.00000000000E+00 0. -1.
     999901    1    3    3    0    0  0.98264785127E-01  0.60656457567E-01 -0.41190044427E-01  0.88849974316E+00  0.88000000000E+00 0. -1.
        -11    1    4    4    0    0 -0.53004476898E-01 -0.12737340839E-01  0.27604999894E-01  0.61106559083E-01  0.51100000000E-03 0.  1.
         11    1    4    4    0    0 -0.53530808443E-01 -0.34268252489E-01  0.30985088090E-01  0.70712073836E-01  0.51100000000E-03 0. -1.
</event>
<event>
 8    1  0.1054086E+005  0.1043930E+01  0.7957747E-01            NaN
         13   -1    0    0    0    0  0.00000000000E+00  0.00000000000E+00  0.74505805969E-08  0.10566000000E+00  0.10566000000E+00 0. -1.
     999900   -1    0    0    0    0 -0.00000000000E+00 -0.00000000000E+00 -0.74505805969E-08  0.93827000000E+00  0.93827000000E+00 0.  1.
     999902    2    1    2    0    0  0.15312666396E-01 -0.18970599941E-01 -0.47808937213E-02  0.10190861203E+01  0.10187832459E+01 0.  0.
     999903    2    3    3    0    0 -0.64594339032E-01 -0.81633924569E-01  0.74443856546E-01  0.12971084358E+00  0.21130283698E-01 0.  0.
         14    1    1    2    0    0 -0.15312666396E-01  0.18970599941E-01  0.47808937213E-02  0.24843879710E-01  0.00000000000E+00 0.  1.
     999901    1    3    3    0    0  0.79907005427E-01  0.62663324628E-01 -0.79224750268E-01  0.88937527671E+00  0.88000000000E+00 0.  1.
        -11    1    4    4    0    0 -0.42400228574E-01 -0.39816813513E-01  0.33542989639E-01  0.67145746674E-01  0.51100000000E-03 0. -1.
         11    1    4    4    0    0 -0.22194110458E-01 -0.41817111055E-01  0.40900866907E-01  0.62565096906E-01  0.51100000000E-03 0.  1.
</event>
<event>
 8    1  0.1054086E+005  0.1043930E+01  0.7957747E-01            NaN
         13   -1    0    0    0    0  0.00000000000E+00  0.00000000000E+00  0.74505805969E-08  0.10566000000E+00  0.10566000000E+00 0. -1.
     999900   -1    0    0    0    0 -0.00000000000E+00 -0.00000000000E+00 -0.74505805969E-08  0.93827000000E+00  0.93827000000E+00 0.  1.
     999902    2    1    2    0    0  0.39295325444E-02  0.18742717761E-01 -0.13652038007E-01  0.10204117340E+01  0.10201406756E+01 0.  0.
     999903    2    3    3    0    0  0.11370373697E+00 -0.38663567999E-01  0.44854742938E-01  0.12981143024E+00  0.20387451155E-01 0.  0.
         14    1    1    2    0    0 -0.39295325444E-02 -0.18742717761E-01  0.13652038007E-01  0.23518266025E-01  0.00000000000E+00 0.  1.
     999901    1    3    3    0    0 -0.10977420443E+00  0.57406285760E-01 -0.58506780945E-01  0.89060030374E+00  0.88000000000E+00 0.  1.
        -11    1    4    4    0    0  0.29928364742E-01 -0.54102683991E-02  0.34224999809E-02  0.30609682250E-01  0.51100000000E-03 0. -1.
         11    1    4    4    0    0  0.83775372228E-01 -0.33253299599E-01  0.41432242957E-01  0.99201747987E-01  0.51100000000E-03 0.  1.
</event>
<event>
 8    1  0.1054086E+005  0.1043930E+01  0.7957747E-01            NaN
         13   -1    0    0    0    0  0.00000000000E+00  0.00000000000E+00  0.74505805969E-08  0.10566000000E+00  0.10566000000E+00 0. -1.
     999900   -1    0    0    0    0 -0.00000000000E+00 -0.00000000000E+00 -0.74505805969E-08  0.93827000000E+00  0.93827000000E+00 0.  1.
     999902    2    1    2    0    0 -0.30912006483E-02  0.11493066347E-01 -0.23580695540E-01  0.10175160776E+01  0.10171731774E+01 0.  0.
     999903    2    3    3    0    0  0.11969426923E-01  0.58831487735E-01 -0.11506119545E+00  0.13138040484E+00  0.20428434730E-01 0.  0.
         14    1    1    2    0    0  0.30912006483E-02 -0.11493066347E-01  0.23580695540E-01  0.26413922421E-01  0.00000000000E+00 0. -1.
     999901    1    3    3    0    0 -0.15060627571E-01 -0.47338421388E-01  0.91480499915E-01  0.88613567274E+00  0.88000000000E+00 0. -1.
        -11    1    4    4    0    0  0.13189806794E-01  0.29352643685E-01 -0.75093630889E-01  0.81699836081E-01  0.51100000000E-03 0. -1.
         11    1    4    4    0    0 -0.12203798706E-02  0.29478844050E-01 -0.39967564566E-01  0.49680568755E-01  0.51100000000E-03 0.  1.
</event>
<event>
 8    1  0.1054086E+005  0.1043930E+01  0.7957747E-01            NaN
         13   -1    0    0    0    0  0.00000000000E+00  0.00000000000E+00  0.74505805969E-08  0.10566000000E+00  0.10566000000E+00 0.  1.
     999900   -1    0    0    0    0 -0.00000000000E+00 -0.00000000000E+00 -0.74505805969E-08  0.93827000000E+00  0.93827000000E+00 0. -1.
     999902    2    1    2    0    0  0.23366953677E-01  0.88287563466E-02  0.75536536601E-02  0.10178336565E+01  0.10174990580E+01 0.  0.
     999903    2    3    3    0    0  0.48180211751E-01  0.67831753165E-01  0.98963527909E-01  0.13078641052E+00  0.19718665750E-01 0.  0.
         14    1    1    2    0    0 -0.23366953677E-01 -0.88287563466E-02 -0.75536536601E-02  0.26096343544E-01  0.00000000000E+00 0. -1.
     999901    1    3    3    0    0 -0.24813258074E-01 -0.59002996818E-01 -0.91409874249E-01  0.88704724593E+00  0.88000000000E+00 0. -1.
        -11    1    4    4    0    0  0.17889180769E-01  0.39398767863E-01  0.42211811862E-01  0.60451500225E-01  0.51100000000E-03 0.  1.
         11    1    4    4    0    0  0.30291030982E-01  0.28432985302E-01  0.56751716047E-01  0.70334910296E-01  0.51100000000E-03 0. -1.
</event>
<event>
 8    1  0.1054086E+005  0.1043930E+01  0.7957747E-01            NaN
         13   -1    0    0    0    0  0.00000000000E+00  0.00000000000E+00  0.74505805969E-08  0.10566000000E+00  0.10566000000E+00 0. -1.
     999900   -1    0    0    0    0 -0.00000000000E+00 -0.00000000000E+00 -0.74505805969E-08  0.93827000000E+00  0.93827000000E+00 0.  1.
     999902    2    1    2    0    0  0.24551487715E-01  0.11395943420E-01  0.87752786704E-03  0.10168483987E+01  0.10164877042E+01 0.  0.
     999903    2    3    3    0    0 -0.11652188654E-01  0.11850601141E+00 -0.43846306538E-01  0.12848839607E+00  0.20182197326E-01 0.  0.
         14    1    1    2    0    0 -0.24551487715E-01 -0.11395943420E-01 -0.87752786704E-03  0.27081601330E-01  0.00000000000E+00 0.  1.
     999901    1    3    3    0    0  0.36203676368E-01 -0.10711006799E+00  0.44723834405E-01  0.88836000259E+00  0.88000000000E+00 0.  1.
        -11    1    4    4    0    0 -0.15385346093E-01  0.54236421729E-01 -0.21547613732E-01  0.60356102383E-01  0.51100000000E-03 0. -1.
         11    1    4    4    0    0  0.37331574393E-02  0.64269589678E-01 -0.22298692806E-01  0.68132293692E-01  0.51100000000E-03 0.  1.
</event>
<event>
 8    1  0.1054086E+005  0.1043930E+01  0.7957747E-01            NaN
         13   -1    0    0    0    0  0.00000000000E+00  0.00000000000E+00  0.74505805969E-08  0.10566000000E+00  0.10566000000E+00 0.  1.
     999900   -1    0    0    0    0 -0.00000000000E+00 -0.00000000000E+00 -0.74505805969E-08  0.93827000000E+00  0.93827000000E+00 0. -1.
     999902    2    1    2    0    0 -0.82461673410E-02  0.18029522318E-01 -0.13612227111E-01  0.10198809735E+01  0.10195973933E+01 0.  0.
     999903    2    3    3    0    0  0.98606148673E-01 -0.14682190551E-01 -0.81631314488E-01  0.13021020860E+00  0.18769327168E-01 0.  0.
         14    1    1    2    0    0  0.82461673410E-02 -0.18029522318E-01  0.13612227111E-01  0.24049026544E-01  0.00000000000E+00 0. -1.
     999901    1    3    3    0    0 -0.10685231601E+00  0.32711712869E-01  0.68019087377E-01  0.88967076486E+00  0.88000000000E+00 0.  1.
        -11    1    4    4    0    0  0.45925124629E-01  0.75193287148E-03 -0.44348410159E-01  0.63849237113E-01  0.51100000000E-03 0.  1.
         11    1    4    4    0    0  0.52681024044E-01 -0.15434123422E-01 -0.37282904329E-01  0.66360971484E-01  0.51100000000E-03 0. -1.
</event>
<event>
 8    1  0.1054086E+005  0.1043930E+01  0.7957747E-01            NaN
         13   -1    0    0    0    0  0.00000000000E+00  0.00000000000E+00  0.74505805969E-08  0.10566000000E+00  0.10566000000E+00 0.  1.
     999900   -1    0    0    0    0 -0.00000000000E+00 -0.00000000000E+00 -0.74505805969E-08  0.93827000000E+00  0.93827000000E+00 0. -1.
     999902    2    1    2    0    0 -0.21891374829E-01 -0.10055633190E-01 -0.30040973515E-02  0.10196530016E+01  0.10193639541E+01 0.  0.
     999903    2    3    3    0    0 -0.38159098557E-01 -0.12455010856E+00 -0.58615609549E-02  0.13208227831E+00  0.21036254481E-01 0.  0.
         14    1    1    2    0    0  0.21891374829E-01  0.10055633190E-01  0.30040973515E-02  0.24276998407E-01  0.00000000000E+00 0. -1.
     999901    1    3    3    0    0  0.16267723728E-01  0.11449447537E+00  0.28574636035E-02  0.88757072328E+00  0.88000000000E+00 0. -1.
        -11    1    4    4    0    0 -0.31010331458E-02 -0.34754496797E-01 -0.73985436658E-02  0.35671992145E-01  0.51100000000E-03 0. -1.
         11    1    4    4    0    0 -0.35058065411E-01 -0.89795611763E-01  0.15369827108E-02  0.96410286168E-01  0.51100000000E-03 0.  1.
</event>
<event>
 8    1  0.1054086E+005  0.1043930E+01  0.7957747E-01            NaN
         13   -1    0    0    0    0  0.00000000000E+00  0.00000000000E+00  0.74505805969E-08  0.10566000000E+00  0.10566000000E+00 0. -1.
     999900   -1    0    0    0    0 -0.00000000000E+00 -0.00000000000E+00 -0.74505805969E-08  0.93827000000E+00  0.93827000000E+00 0. -1.
     999902    2    1    2    0    0 -0.18256668651E-01  0.11092688957E-01 -0.11792962029E-01  0.10195286137E+01  0.10192365606E+01 0.  0.
     999903    2    3    3    0    0 -0.12639375636E+00  0.31260984225E-01 -0.18492736887E-01  0.13265473495E+00  0.17397316060E-01 0.  0.
         14    1    1    2    0    0  0.18256668651E-01 -0.11092688957E-01  0.11792962029E-01  0.24401386271E-01  0.00000000000E+00 0.  1.
     999901    1    3    3    0    0  0.10813708771E+00 -0.20168295268E-01  0.66997748582E-02  0.88687387878E+00  0.88000000000E+00 0.  1.
        -11    1    4    4    0    0 -0.78413721465E-01  0.14554144870E-01 -0.18386324268E-01  0.81846520316E-01  0.51100000000E-03 0. -1.
         11    1    4    4    0    0 -0.47980034896E-01  0.16706839355E-01 -0.10641261942E-03  0.50808214636E-01  0.51100000000E-03 0.  1.
</event>
<event>
 8    1  0.1054086E+005  0.1043930E+01  0.7957747E-01            NaN
         13   -1    0    0    0    0  0.00000000000E+00  0.00000000000E+00  0.74505805969E-08  0.10566000000E+00  0.10566000000E+00 0.  1.
     999900   -1    0    0    0    0 -0.00000000000E+00 -0.00000000000E+00 -0.74505805969E-08  0.93827000000E+00  0.93827000000E+00 0.  1.
     999902    2    1    2    0    0 -0.54434014693E-02 -0.23251064644E-01 -0.47515319117E-02  0.10195821113E+01  0.10192913529E+01 0.  0.
     999903    2    3    3    0    0 -0.97546867851E-01  0.80824184079E-01  0.10547212537E-01  0.12854408886E+00  0.19089235977E-01 0.  0.
         14    1    1    2    0    0  0.54434014693E-02  0.23251064644E-01  0.47515319117E-02  0.24347888659E-01  0.00000000000E+00 0.  1.
     999901    1    3    3    0    0  0.92103466382E-01 -0.10407524872E+00 -0.15298744448E-01  0.89103802248E+00  0.88000000000E+00 0.  1.
        -11    1    4    4    0    0 -0.59993016918E-01  0.61228651003E-01  0.58391178791E-02  0.85921279094E-01  0.51100000000E-03 0.  1.
         11    1    4    4    0    0 -0.37553850933E-01  0.19595533076E-01  0.47080946575E-02  0.42622809771E-01  0.51100000000E-03 0. -1.
</event>
<event>
 8    1  0.1054086E+005  0.1043930E+01  0.7957747E-01            NaN
         13   -1    0    0    0    0  0.00000000000E+00  0.00000000000E+00  0.74505805969E-08  0.10566000000E+00  0.10566000000E+00 0. -1.
     999900   -1    0    0    0    0 -0.00000000000E+00 -0.00000000000E+00 -0.74505805969E-08  0.93827000000E+00  0.93827000000E+00 0.  1.
     999902    2    1    2    0    0  0.13824348991E-02 -0.23635642217E-01  0.17307861302E-03  0.10202533308E+01  0.10199785656E+01 0.  0.
     999903    2    3    3    0    0 -0.22532503132E-01 -0.12243071684E+00  0.43252312239E-01  0.13335524678E+00  0.20392773409E-01 0.  0.
         14    1    1    2    0    0 -0.13824348991E-02  0.23635642217E-01 -0.17307861302E-03  0.23676669223E-01  0.00000000000E+00 0. -1.
     999901    1    3    3    0    0  0.23914938031E-01  0.98795074618E-01 -0.43079233626E-01  0.88689808400E+00  0.88000000000E+00 0. -1.
        -11    1    4    4    0    0 -0.23069327156E-01 -0.10156881920E+00  0.42419016590E-01  0.11246356290E+00  0.51100000000E-03 0.  1.
         11    1    4    4    0    0  0.53682402403E-03 -0.20861897631E-01  0.83329564872E-03  0.20891683882E-01  0.51100000000E-03 0. -1.
</event>
<event>
 7    1  0.2439656E+005  0.1043930E+01  0.7957747E-01            NaN
         13   -1    0    0    0    0  0.00000000000E+00  0.00000000000E+00  0.74505805969E-08  0.10566000000E+00  0.10566000000E+00 0.  1.
     999900   -1    0    0    0    0 -0.00000000000E+00 -0.00000000000E+00 -0.74505805969E-08  0.93827000000E+00  0.93827000000E+00 0. -1.
     999903    2    1    2    0    0  0.11714234033E-01 -0.28886321176E-01  0.82881390530E-01  0.90772875857E-01  0.19968657068E-01 0.  0.
         14    1    1    2    0    0  0.10611759190E-01 -0.62606568717E-01  0.54604941385E-02  0.63733891108E-01  0.00000000000E+00 0. -1.
     999901    1    1    2    0    0 -0.22325993223E-01  0.91492889893E-01 -0.88341884669E-01  0.88942323303E+00  0.88000000000E+00 0.  1.
        -11    1    3    3    0    0 -0.30301474291E-02 -0.18928669328E-01  0.40793584209E-01  0.45076090664E-01  0.51100000000E-03 0. -1.
         11    1    3    3    0    0  0.14744381462E-01 -0.99576518486E-02  0.42087806321E-01  0.45696785193E-01  0.51100000000E-03 0.  1.
</event>
<event>
 8    1  0.1054086E+005  0.1043930E+01  0.7957747E-01            NaN
         13   -1    0    0    0    0  0.00000000000E+00  0.00000000000E+00  0.74505805969E-08  0.10566000000E+00  0.10566000000E+00 0.  1.
     999900   -1    0    0    0    0 -0.00000000000E+00 -0.00000000000E+00 -0.74505805969E-08  0.93827000000E+00  0.93827000000E+00 0. -1.
     999902    2    1    2    0    0 -0.10407832664E-01 -0.12954434315E-01  0.17790119833E-01  0.10195860333E+01  0.10192953697E+01 0.  0.
     999903    2    3    3    0    0  0.13239681274E-01  0.11196261531E+00  0.60741562563E-01  0.12941284758E+00  0.18634143675E-01 0.  0.
         14    1    1    2    0    0  0.10407832664E-01  0.12954434315E-01 -0.17790119833E-01  0.24343966662E-01  0.00000000000E+00 0. -1.
     999901    1    3    3    0    0 -0.23647513937E-01 -0.12491704962E+00 -0.42951442729E-01  0.89017318575E+00  0.88000000000E+00 0. -1.
        -11    1    4    4    0    0  0.14750824443E-02  0.54866722176E-01  0.38368098822E-01  0.66969434810E-01  0.51100000000E-03 0.  1.
         11    1    4    4    0    0  0.11764598829E-01  0.57095893132E-01  0.22373463741E-01  0.62443412774E-01  0.51100000000E-03 0. -1.
</event>
<event>
 7    1  0.1054086E+005  0.1043930E+01  0.7957747E-01            NaN
         13   -1    0    0    0    0  0.00000000000E+00  0.00000000000E+00  0.74505805969E-08  0.10566000000E+00  0.10566000000E+00 0.  1.
     999900   -1    0    0    0    0 -0.00000000000E+00 -0.00000000000E+00 -0.74505805969E-08  0.93827000000E+00  0.93827000000E+00 0. -1.
     999903    2    1    2    0    0  0.31530018096E-01 -0.92373893287E-01 -0.42088296692E-01  0.10792304220E+00  0.18678332830E-01 0.  0.
         14    1    1    2    0    0 -0.10291903785E-01 -0.43057834300E-01  0.58575255096E-02  0.44656589472E-01  0.00000000000E+00 0.  1.
     999901    1    1    2    0    0 -0.21238114311E-01  0.13543172759E+00  0.36230771183E-01  0.89135036833E+00  0.88000000000E+00 0. -1.
        -11    1    3    3    0    0  0.25215103307E-01 -0.48800666835E-01 -0.28233938557E-01  0.61763443280E-01  0.51100000000E-03 0.  1.
         11    1    3    3    0    0  0.63149147891E-02 -0.43573226452E-01 -0.13854358135E-01  0.46159598921E-01  0.51100000000E-03 0. -1.
</event>
<event>
 8    1  0.1054086E+005  0.1043930E+01  0.7957747E-01            NaN
         13   -1    0    0    0    0  0.00000000000E+00  0.00000000000E+00  0.74505805969E-08  0.10566000000E+00  0.10566000000E+00 0.  1.
     999900   -1    0    0    0    0 -0.00000000000E+00 -0.00000000000E+00 -0.74505805969E-08  0.93827000000E+00  0.93827000000E+00 0.  1.
     999902    2    1    2    0    0 -0.21638646965E-01 -0.12989055312E-02 -0.16966491209E-02  0.10221861085E+01  0.10219548149E+01 0.  0.
     999903    2    3    3    0    0  0.25023434732E-01 -0.97799766409E-01  0.82228297609E-01  0.13171816261E+00  0.19930249357E-01 0.  0.
         14    1    1    2    0    0  0.21638646965E-01  0.12989055312E-02  0.16966491209E-02  0.21743891471E-01  0.00000000000E+00 0.  1.
     999901    1    3    3    0    0 -0.46662081697E-01  0.96500860878E-01 -0.83924946730E-01  0.89046794591E+00  0.88000000000E+00 0.  1.
        -11    1    4    4    0    0  0.20156793084E-01 -0.63747481484E-01  0.42775065929E-01  0.79372571391E-01  0.51100000000E-03 0. -1.
         11    1    4    4    0    0  0.48666416479E-02 -0.34052284925E-01  0.39453231680E-01  0.52345591223E-01  0.51100000000E-03 0.  1.
</event>
<event>
 8    1  0.1054086E+005  0.1043930E+01  0.7957747E-01            NaN
         13   -1    0    0    0    0  0.00000000000E+00  0.00000000000E+00  0.74505805969E-08  0.10566000000E+00  0.10566000000E+00 0. -1.
     999900   -1    0    0    0    0 -0.00000000000E+00 -0.00000000000E+00 -0.74505805969E-08  0.93827000000E+00  0.93827000000E+00 0. -1.
     999902    2    1    2    0    0  0.12368621646E-01 -0.21368159944E-02 -0.19932138008E-01  0.10203749812E+01  0.10201030651E+01 0.  0.
     999903    2    3    3    0    0 -0.24877484580E-01  0.12534748155E+00 -0.47094577355E-02  0.13027877937E+00  0.24889776867E-01 0.  0.
         14    1    1    2    0    0 -0.12368621646E-01  0.21368159944E-02  0.19932138008E-01  0.23555018777E-01  0.00000000000E+00 0. -1.
     999901    1    3    3    0    0  0.37246106226E-01 -0.12748429755E+00 -0.15222680272E-01  0.89009620185E+00  0.88000000000E+00 0.  1.
        -11    1    4    4    0    0 -0.86376487046E-03  0.68150812265E-01 -0.25558926698E-02  0.68206106841E-01  0.51100000000E-03 0. -1.
         11    1    4    4    0    0 -0.24013719710E-01  0.57196669288E-01 -0.21535650657E-02  0.62072672533E-01  0.51100000000E-03 0.  1.
</event>
<event>
 8    1  0.1054086E+005  0.1043930E+01  0.7957747E-01            NaN
         13   -1    0    0    0    0  0.00000000000E+00  0.00000000000E+00  0.74505805969E-08  0.10566000000E+00  0.10566000000E+00 0. -1.
     999900   -1    0    0    0    0 -0.00000000000E+00 -0.00000000000E+00 -0.74505805969E-08  0.93827000000E+00  0.93827000000E+00 0.  1.
     999902    2    1    2    0    0 -0.11530371146E-01 -0.87865436530E-02 -0.18338980688E-01  0.10205532804E+01  0.10202855125E+01 0.  0.
     999903    2    3    3    0    0  0.52466450553E-01 -0.11689772398E+00  0.17618439326E-01  0.13090359844E+00  0.20187530183E-01 0.  0.
         14    1    1    2    0    0  0.11530371146E-01  0.87865436530E-02  0.18338980688E-01  0.23376719633E-01  0.00000000000E+00 0. -1.
     999901    1    3    3    0    0 -0.63996821698E-01  0.10811118033E+00 -0.35957420014E-01  0.88964968193E+00  0.88000000000E+00 0.  1.
        -11    1    4    4    0    0  0.26843381444E-01 -0.42188042243E-01  0.13577862729E-01  0.51817154620E-01  0.51100000000E-03 0.  1.
         11    1    4    4    0    0  0.25623069109E-01 -0.74709681737E-01  0.40405765970E-02  0.79086443819E-01  0.51100000000E-03 0. -1.
</event>
<event>
 8    1  0.1054086E+005  0.1043930E+01  0.7957747E-01            NaN
         13   -1    0    0    0    0  0.00000000000E+00  0.00000000000E+00  0.74505805969E-08  0.10566000000E+00  0.10566000000E+00 0.  1.
     999900   -1    0    0    0    0 -0.00000000000E+00 -0.00000000000E+00 -0.74505805969E-08  0.93827000000E+00  0.93827000000E+00 0. -1.
     999902    2    1    2    0    0 -0.13284143572E-01  0.85565961548E-02 -0.17793179387E-01  0.10201333397E+01  0.10198557495E+01 0.  0.
     999903    2    3    3    0    0  0.29247564430E-01  0.13348104523E-02  0.12282032906E+00  0.12792637990E+00  0.20569970863E-01 0.  0.
         14    1    1    2    0    0  0.13284143572E-01 -0.85565961548E-02  0.17793179387E-01  0.23796660289E-01  0.00000000000E+00 0. -1.
     999901    1    3    3    0    0 -0.42531708001E-01  0.72217857025E-02 -0.14061350844E+00  0.89220695981E+00  0.88000000000E+00 0. -1.
        -11    1    4    4    0    0 -0.22360904717E-02  0.30814694112E-02  0.83468895884E-02  0.91884297423E-02  0.51100000000E-03 0. -1.
         11    1    4    4    0    0  0.31483654901E-01 -0.17466589589E-02  0.11447343947E+00  0.11873795016E+00  0.51100000000E-03 0.  1.
</event>
<event>
 8    1  0.1054086E+005  0.1043930E+01  0.7957747E-01            NaN
         13   -1    0    0    0    0  0.00000000000E+00  0.00000000000E+00  0.74505805969E-08  0.10566000000E+00  0.10566000000E+00 0. -1.
     999900   -1    0    0    0    0 -0.00000000000E+00 -0.00000000000E+00 -0.74505805969E-08  0.93827000000E+00  0.93827000000E+00 0. -1.
     999902    2    1    2    0    0 -0.42947192400E-02 -0.22340277894E-01  0.13293614029E-01  0.10175813225E+01  0.10172401364E+01 0.  0.
     999903    2    3    3    0    0 -0.41158372178E-02 -0.12072329780E+00 -0.44327492270E-01  0.13022601462E+00  0.20070714166E-01 0.  0.
         14    1    1    2    0    0  0.42947192400E-02  0.22340277894E-01 -0.13293614029E-01  0.26348677456E-01  0.00000000000E+00 0.  1.
     999901    1    3    3    0    0 -0.17888202215E-03  0.98383019902E-01  0.57621106299E-01  0.88735530792E+00  0.88000000000E+00 0. -1.
        -11    1    4    4    0    0 -0.32816327127E-02 -0.88567096144E-01 -0.22794570887E-01  0.91513677751E-01  0.51100000000E-03 0.  1.
         11    1    4    4    0    0 -0.83420450514E-03 -0.32156201651E-01 -0.21532921384E-01  0.38712336872E-01  0.51100000000E-03 0. -1.
</event>
<event>
 8    1  0.1054086E+005  0.1043930E+01  0.7957747E-01            NaN
         13   -1    0    0    0    0  0.00000000000E+00  0.00000000000E+00  0.74505805969E-08  0.10566000000E+00  0.10566000000E+00 0. -1.
     999900   -1    0    0    0    0 -0.00000000000E+00 -0.00000000000E+00 -0.74505805969E-08  0.93827000000E+00  0.93827000000E+00 0.  1.
     999902    2    1    2    0    0  0.57818758554E-02  0.18049281514E-01 -0.16481856104E-01  0.10188131086E+01  0.10185034571E+01 0.  0.
     999903    2    3    3    0    0 -0.67801109382E-01 -0.43715021284E-01  0.95239427396E-01  0.12656262249E+00  0.20965575662E-01 0.  0.
         14    1    1    2    0    0 -0.57818758554E-02 -0.18049281514E-01  0.16481856104E-01  0.25116891373E-01  0.00000000000E+00 0. -1.
     999901    1    3    3    0    0  0.73582985237E-01  0.61764302799E-01 -0.11172128350E+00  0.89225048613E+00  0.88000000000E+00 0.  1.
        -11    1    4    4    0    0 -0.64166341858E-01 -0.39336608049E-01  0.77962896452E-01  0.10836587334E+00  0.51100000000E-03 0. -1.
         11    1    4    4    0    0 -0.36347675238E-02 -0.43784132349E-02  0.17276530944E-01  0.18196749156E-01  0.51100000000E-03 0.  1.
</event>
<event>
 8    1  0.1054086E+005  0.1043930E+01  0.7957747E-01            NaN
         13   -1    0    0    0    0  0.00000000000E+00  0.00000000000E+00  0.74505805969E-08  0.10566000000E+00  0.10566000000E+00 0. -1.
     999900   -1    0    0    0    0 -0.00000000000E+00 -0.00000000000E+00 -0.74505805969E-08  0.93827000000E+00  0.93827000000E+00 0. -1.
     999902    2    1    2    0    0  0.33381042481E-02 -0.15697585408E-01  0.18445917062E-01  0.10194798674E+01  0.10191866321E+01 0.  0.
     999903    2    3    3    0    0  0.12782001457E+00 -0.20474284385E-02  0.16010825640E-01  0.13061092181E+00  0.21464348784E-01 0.  0.
         14    1    1    2    0    0 -0.33381042481E-02  0.15697585408E-01 -0.18445917062E-01  0.24450132594E-01  0.00000000000E+00 0.  1.
     999901    1    3    3    0    0 -0.12448191032E+00 -0.13650156969E-01  0.24350914225E-02  0.88886894560E+00  0.88000000000E+00 0.  1.
        -11    1    4    4    0    0  0.72831502889E-01  0.61833423570E-02  0.16803324841E-01  0.75001829195E-01  0.51100000000E-03 0.  1.
         11    1    4    4    0    0  0.54988511683E-01 -0.82307707955E-02 -0.79249920175E-03  0.55609092611E-01  0.51100000000E-03 0. -1.
</event>
<event>
 8    1  0.1054086E+005  0.1043930E+01  0.7957747E-01            NaN
         13   -1    0    0    0    0  0.00000000000E+00  0.00000000000E+00  0.74505805969E-08  0.10566000000E+00  0.10566000000E+00 0. -1.
     999900   -1    0    0    0    0 -0.00000000000E+00 -0.00000000000E+00 -0.74505805969E-08  0.93827000000E+00  0.93827000000E+00 0.  1.
     999902    2    1    2    0    0 -0.15831888856E-01  0.95372559914E-02 -0.14778752545E-01  0.10202652692E+01  0.10199907843E+01 0.  0.
     999903    2    3    3    0    0  0.48359254589E-02 -0.12651272046E+00 -0.19702422406E-01  0.12955712556E+00  0.19183553411E-01 0.  0.
         14    1    1    2    0    0  0.15831888856E-01 -0.95372559914E-02  0.14778752545E-01  0.23664730790E-01  0.00000000000E+00 0. -1.
     999901    1    3    3    0    0 -0.20667814315E-01  0.13604997645E+00  0.49236698615E-02  0.89070814365E+00  0.88000000000E+00 0. -1.
        -11    1    4    4    0    0  0.39897937829E-02 -0.11722391932E-01 -0.65324735380E-02  0.14009541697E-01  0.51100000000E-03 0.  1.
         11    1    4    4    0    0  0.84613167596E-03 -0.11479032853E+00 -0.13169948868E-01  0.11554758386E+00  0.51100000000E-03 0. -1.
</event>
<event>
 8    1  0.1054086E+005  0.1043930E+01  0.7957747E-01            NaN
         13   -1    0    0    0    0  0.00000000000E+00  0.00000000000E+00  0.74505805969E-08  0.10566000000E+00  0.10566000000E+00 0.  1.
     999900   -1    0    0    0    0 -0.00000000000E+00 -0.00000000000E+00 -0.74505805969E-08  0.93827000000E+00  0.93827000000E+00 0.  1.
     999902    2    1    2    0    0 -0.40813249898E-03  0.16825861882E-01 -0.17481740269E-01  0.10196629968E+01  0.10193741902E+01 0.  0.
     999903    2    3    3    0    0  0.11620905084E+00 -0.29456048372E-01 -0.44218362019E-01  0.13036190630E+00  0.25821711624E-01 0.  0.
         14    1    1    2    0    0  0.40813249898E-03 -0.16825861882E-01  0.17481740269E-01  0.24267003173E-01  0.00000000000E+00 0.  1.
     999901    1    3    3    0    0 -0.11661718334E+00  0.46281910254E-01  0.26736621750E-01  0.88930109053E+00  0.88000000000E+00 0. -1.
        -11    1    4    4    0    0  0.61847242836E-01 -0.49655293859E-02 -0.30677140557E-01  0.69217671171E-01  0.51100000000E-03 0. -1.
         11    1    4    4    0    0  0.54361808007E-01 -0.24490518986E-01 -0.13541221462E-01  0.61144235130E-01  0.51100000000E-03 0.  1.
</event>
<event>
 8    1  0.1054086E+005  0.1043930E+01  0.7957747E-01            NaN
         13   -1    0    0    0    0  0.00000000000E+00  0.00000000000E+00  0.74505805969E-08  0.10566000000E+00  0.10566000000E+00 0.  1.
     999900   -1    0    0    0    0 -0.00000000000E+00 -0.00000000000E+00 -0.74505805969E-08  0.93827000000E+00  0.93827000000E+00 0. -1.
     999902    2    1    2    0    0  0.23003962765E-01  0.58849735970E-02 -0.18786118202E-02  0.10201110076E+01  0.10198328899E+01 0.  0.
     999903    2    3    3    0    0  0.69907690163E-02 -0.86409073681E-01  0.94656344699E-01  0.12988990507E+00  0.19903893636E-01 0.  0.
         14    1    1    2    0    0 -0.23003962765E-01 -0.58849735970E-02  0.18786118202E-02  0.23818992412E-01  0.00000000000E+00 0. -1.
     999901    1    3    3    0    0  0.16013193749E-01  0.92294047278E-01 -0.96534956519E-01  0.89022110252E+00  0.88000000000E+00 0. -1.
        -11    1    4    4    0    0 -0.21436919606E-02 -0.33089734994E-01  0.48628943023E-01  0.58860523254E-01  0.51100000000E-03 0. -1.
         11    1    4    4    0    0  0.91344609768E-02 -0.53319338686E-01  0.46027401676E-01  0.71029381817E-01  0.51100000000E-03 0.  1.
</event>
<event>
 8    1  0.1054086E+005  0.1043930E+01  0.7957747E-01            NaN
         13   -1    0    0    0    0  0.00000000000E+00  0.00000000000E+00  0.74505805969E-08  0.10566000000E+00  0.10566000000E+00 0. -1.
     999900   -1    0    0    0    0 -0.00000000000E+00 -0.00000000000E+00 -0.74505805969E-08  0.93827000000E+00  0.93827000000E+00 0. -1.
     999902    2    1    2    0    0  0.17651433985E-02 -0.16613487510E-01  0.17040163281E-01  0.10200659923E+01  0.10197868100E+01 0.  0.
     999903    2    3    3    0    0  0.60828690438E-01  0.10868352299E+00 -0.24536532957E-01  0.12826082014E+00  0.18345538525E-01 0.  0.
         14    1    1    2    0    0 -0.17651433985E-02  0.16613487510E-01 -0.17040163281E-01  0.23864007692E-01  0.00000000000E+00 0.  1.
     999901    1    3    3    0    0 -0.59063547039E-01 -0.12529701050E+00  0.41576696239E-01  0.89180517216E+00  0.88000000000E+00 0. -1.
        -11    1    4    4    0    0  0.48836854810E-01  0.98686529486E-01 -0.23605806730E-01  0.11261245367E+00  0.51100000000E-03 0. -1.
         11    1    4    4    0    0  0.11991835628E-01  0.99969935066E-02 -0.93072622732E-03  0.15648366471E-01  0.51100000000E-03 0.  1.
</event>
<event>
 8    1  0.1054086E+005  0.1043930E+01  0.7957747E-01            NaN
         13   -1    0    0    0    0  0.00000000000E+00  0.00000000000E+00  0.74505805969E-08  0.10566000000E+00  0.10566000000E+00 0. -1.
     999900   -1    0    0    0    0 -0.00000000000E+00 -0.00000000000E+00 -0.74505805969E-08  0.93827000000E+00  0.93827000000E+00 0. -1.
     999902    2    1    2    0    0 -0.76719874924E-02  0.18548866191E-02  0.22322792864E-01  0.10202528575E+01  0.10199780812E+01 0.  0.
     999903    2    3    3    0    0 -0.11517977787E+00  0.54470871979E-01  0.27353759082E-01  0.13213592964E+00  0.21868210738E-01 0.  0.
         14    1    1    2    0    0  0.76719874924E-02 -0.18548866191E-02 -0.22322792864E-01  0.23677142516E-01  0.00000000000E+00 0.  1.
     999901    1    3    3    0    0  0.10750779038E+00 -0.52615985360E-01 -0.50309662175E-02  0.88811692785E+00  0.88000000000E+00 0.  1.
        -11    1    4    4    0    0 -0.33874953554E-01  0.25083474274E-01  0.27249400243E-02  0.42241917322E-01  0.51100000000E-03 0. -1.
         11    1    4    4    0    0 -0.81304824316E-01  0.29387397706E-01  0.24628819057E-01  0.89894012315E-01  0.51100000000E-03 0.  1.
</event>
<event>
 8    1  0.1054086E+005  0.1043930E+01  0.7957747E-01            NaN
         13   -1    0    0    0    0  0.00000000000E+00  0.00000000000E+00  0.74505805969E-08  0.10566000000E+00  0.10566000000E+00 0. -1.
     999900   -1    0    0    0    0 -0.00000000000E+00 -0.00000000000E+00 -0.74505805969E-08  0.93827000000E+00  0.93827000000E+00 0.  1.
     999902    2    1    2    0    0 -0.35056697801E-02 -0.25316389869E-01  0.77776216849E-03  0.10183602086E+01  0.10180391448E+01 0.  0.
     999903    2    3    3    0    0  0.39691235182E-01  0.10746789072E+00  0.50621562152E-01  0.12595780939E+00  0.13344868159E-01 0.  0.
         14    1    1    2    0    0  0.35056697801E-02  0.25316389869E-01 -0.77776216849E-03  0.25569791368E-01  0.00000000000E+00 0. -1.
     999901    1    3    3    0    0 -0.43196904962E-01 -0.13278428059E+00 -0.49843799984E-01  0.89240239924E+00  0.88000000000E+00 0.  1.
        -11    1    4    4    0    0  0.32753515215E-01  0.78104065939E-01  0.42210142046E-01  0.94630835818E-01  0.51100000000E-03 0.  1.
         11    1    4    4    0    0  0.69377199671E-02  0.29363824782E-01  0.84114201058E-02  0.31326973575E-01  0.51100000000E-03 0. -1.
</event>
<event>
 8    1  0.1054086E+005  0.1043930E+01  0.7957747E-01            NaN
         13   -1    0    0    0    0  0.00000000000E+00  0.00000000000E+00  0.74505805969E-08  0.10566000000E+00  0.10566000000E+00 0.  1.
     999900   -1    0    0    0    0 -0.00000000000E+00 -0.00000000000E+00 -0.74505805969E-08  0.93827000000E+00  0.93827000000E+00 0.  1.
     999902    2    1    2    0    0  0.23631475931E-01 -0.34017265904E-02 -0.19597551396E-02  0.10199746449E+01  0.10196932956E+01 0.  0.
     999903    2    3    3    0    0  0.59411006527E-01 -0.73459264045E-01  0.89593336764E-01  0.13173469870E+00  0.20028321904E-01 0.  0.
         14    1    1    2    0    0 -0.23631475931E-01  0.34017265904E-02  0.19597551396E-02  0.23955355115E-01  0.00000000000E+00 0. -1.
     999901    1    3    3    0    0 -0.35779530596E-01  0.70057537455E-01 -0.91553091903E-01  0.88823994619E+00  0.88000000000E+00 0. -1.
        -11    1    4    4    0    0  0.32916922514E-01 -0.35137796180E-01  0.58284520727E-01  0.75601157303E-01  0.51100000000E-03 0.  1.
         11    1    4    4    0    0  0.26494084013E-01 -0.38321467866E-01  0.31308816036E-01  0.56133541396E-01  0.51100000000E-03 0. -1.
</event>
<event>
 8    1  0.1054086E+005  0.1043930E+01  0.7957747E-01            NaN
         13   -1    0    0    0    0  0.00000000000E+00  0.00000000000E+00  0.74505805969E-08  0.10566000000E+00  0.10566000000E+00 0.  1.
     999900   -1    0    0    0    0 -0.00000000000E+00 -0.00000000000E+00 -0.74505805969E-08  0.93827000000E+00  0.93827000000E+00 0. -1.
     999902    2    1    2    0    0  0.36720615130E-02  0.83144300062E-02  0.20669790567E-01  0.10213500526E+01  0.10211004240E+01 0.  0.
     999903    2    3    3    0    0  0.11962256391E+00 -0.50038863669E-01 -0.83286735693E-02  0.13135536902E+00  0.19272272663E-01 0.  0.
         14    1    1    2    0    0 -0.36720615130E-02 -0.83144300062E-02 -0.20669790567E-01  0.22579947391E-01  0.00000000000E+00 0. -1.
     999901    1    3    3    0    0 -0.11595050240E+00  0.58353293675E-01  0.28998464136E-01  0.88999468359E+00  0.88000000000E+00 0.  1.
        -11    1    4    4    0    0  0.49647521768E-01 -0.26090295550E-01 -0.11787481262E-01  0.57313050653E-01  0.51100000000E-03 0.  1.
         11    1    4    4    0    0  0.69975042144E-01 -0.23948568119E-01  0.34588076931E-02  0.74042318370E-01  0.51100000000E-03 0. -1.
</event>
<event>
 8    1  0.1054086E+005  0.1043930E+01  0.7957747E-01            NaN
         13   -1    0    0    0    0  0.00000000000E+00  0.00000000000E+00  0.74505805969E-08  0.10566000000E+00  0.10566000000E+00 0.  1.
     999900   -1    0    0    0    0 -0.00000000000E+00 -0.00000000000E+00 -0.74505805969E-08  0.93827000000E+00  0.93827000000E+00 0.  1.
     999902    2    1    2    0    0  0.18892767935E-01 -0.41718380610E-02 -0.10268538185E-01  0.10220260326E+01  0.10217912837E+01 0.  0.
     999903    2    3    3    0    0  0.11281924370E+00 -0.42170693171E-01  0.54857966801E-01  0.13382135036E+00  0.19804246506E-01 0.  0.
         14    1    1    2    0    0 -0.18892767935E-01  0.41718380610E-02  0.10268538185E-01  0.21903967437E-01  0.00000000000E+00 0.  1.
     999901    1    3    3    0    0 -0.93926475760E-01  0.37998855110E-01 -0.65126504985E-01  0.88820468220E+00  0.88000000000E+00 0.  1.
        -11    1    4    4    0    0  0.64436367492E-01 -0.17185002525E-01  0.22026000129E-01  0.70233721032E-01  0.51100000000E-03 0.  1.
         11    1    4    4    0    0  0.48382876203E-01 -0.24985690646E-01  0.32831966672E-01  0.63587629326E-01  0.51100000000E-03 0. -1.
</event>
<event>
 8    1  0.1238637E+005  0.1043930E+01  0.7957747E-01            NaN
         13   -1    0    0    0    0  0.00000000000E+00  0.00000000000E+00  0.74505805969E-08  0.10566000000E+00  0.10566000000E+00 0.  1.
     999900   -1    0    0    0    0 -0.00000000000E+00 -0.00000000000E+00 -0.74505805969E-08  0.93827000000E+00  0.93827000000E+00 0. -1.
     999902    2    1    2    0    0  0.14754177967E-01 -0.15319279769E-01  0.28812437017E-01  0.10081176749E+01  0.10074813764E+01 0.  0.
     999903    2    3    3    0    0  0.44655176922E-01 -0.94843489145E-01 -0.54938642908E-01  0.12006789423E+00  0.20215649399E-01 0.  0.
         14    1    1    2    0    0 -0.14754177967E-01  0.15319279769E-01 -0.28812437017E-01  0.35812325070E-01  0.00000000000E+00 0.  1.
     999901    1    3    3    0    0 -0.29900998955E-01  0.79524209376E-01  0.83751079925E-01  0.88804978070E+00  0.88000000000E+00 0.  1.
        -11    1    4    4    0    0  0.10749504653E-01 -0.44163836171E-01 -0.18837068447E-01  0.49204598812E-01  0.51100000000E-03 0. -1.
         11    1    4    4    0    0  0.33905672269E-01 -0.50679652974E-01 -0.36101574461E-01  0.70863295416E-01  0.51100000000E-03 0.  1.
</event>
<event>
 8    1  0.1054086E+005  0.1043930E+01  0.7957747E-01            NaN
         13   -1    0    0    0    0  0.00000000000E+00  0.00000000000E+00  0.74505805969E-08  0.10566000000E+00  0.10566000000E+00 0. -1.
     999900   -1    0    0    0    0 -0.00000000000E+00 -0.00000000000E+00 -0.74505805969E-08  0.93827000000E+00  0.93827000000E+00 0.  1.
     999902    2    1    2    0    0 -0.45879950515E-02  0.21021808632E-01 -0.12881502972E-01  0.10188521361E+01  0.10185434581E+01 0.  0.
     999903    2    3    3    0    0 -0.65676109153E-01 -0.94981121750E-01 -0.51724546047E-01  0.12829207667E+00  0.21181677679E-01 0.  0.
         14    1    1    2    0    0  0.45879950515E-02 -0.21021808632E-01  0.12881502972E-01  0.25077863856E-01  0.00000000000E+00 0.  1.
     999901    1    3    3    0    0  0.61088114101E-01  0.11600293038E+00  0.38843043075E-01  0.89056005948E+00  0.88000000000E+00 0. -1.
        -11    1    4    4    0    0 -0.45459979747E-01 -0.54941106255E-01 -0.22591936385E-01  0.74805024068E-01  0.51100000000E-03 0.  1.
         11    1    4    4    0    0 -0.20216129405E-01 -0.40040015495E-01 -0.29132609662E-01  0.53487052599E-01  0.51100000000E-03 0. -1.
</event>
<event>
 8    1  0.1054086E+005  0.1043930E+01  0.7957747E-01            NaN
         13   -1    0    0    0    0  0.00000000000E+00  0.00000000000E+00  0.74505805969E-08  0.10566000000E+00  0.10566000000E+00 0. -1.
     999900   -1    0    0    0    0 -0.00000000000E+00 -0.00000000000E+00 -0.74505805969E-08  0.93827000000E+00  0.93827000000E+00 0.  1.
     999902    2    1    2    0    0  0.99997996143E-02  0.39412279159E-02  0.22199002415E-01  0.10192657551E+01  0.10189672980E+01 0.  0.
     999903    2    3    3    0    0 -0.21921631014E-01  0.36489822898E-01  0.12363250284E+00  0.13226680142E+00  0.19936045693E-01 0.  0.
         14    1    1    2    0    0 -0.99997996143E-02 -0.39412279159E-02 -0.22199002415E-01  0.24664244931E-01  0.00000000000E+00 0.  1.
     999901    1    3    3    0    0  0.31921430628E-01 -0.32548594982E-01 -0.10143350042E+00  0.88699895365E+00  0.88000000000E+00 0.  1.
        -11    1    4    4    0    0 -0.12344049545E-01  0.32632638282E-01  0.77540636759E-01  0.85029854230E-01  0.51100000000E-03 0. -1.
         11    1    4    4    0    0 -0.95775814684E-02  0.38571846159E-02  0.46091866080E-01  0.47236947188E-01  0.51100000000E-03 0.  1.
</event>
<event>
 8    1  0.1054086E+005  0.1043930E+01  0.7957747E-01            NaN
         13   -1    0    0    0    0  0.00000000000E+00  0.00000000000E+00  0.74505805969E-08  0.10566000000E+00  0.10566000000E+00 0.  1.
     999900   -1    0    0    0    0 -0.00000000000E+00 -0.00000000000E+00 -0.74505805969E-08  0.93827000000E+00  0.93827000000E+00 0.  1.
     999902    2    1    2    0    0  0.20972530241E-01 -0.12869918256E-02  0.10799606356E-01  0.10203051218E+01  0.10200315714E+01 0.  0.
     999903    2    3    3    0    0  0.12563485481E+00 -0.37772915090E-01  0.13875395204E-01  0.13334690110E+00  0.19441182703E-01 0.  0.
         14    1    1    2    0    0 -0.20972530241E-01  0.12869918256E-02 -0.10799606356E-01  0.23624878203E-01  0.00000000000E+00 0.  1.
     999901    1    3    3    0    0 -0.10466232457E+00  0.36485923265E-01 -0.30757888472E-02  0.88695822069E+00  0.88000000000E+00 0. -1.
        -11    1    4    4    0    0  0.79977529263E-01 -0.22331970052E-01 -0.52932023510E-03  0.83040131108E-01  0.51100000000E-03 0. -1.
         11    1    4    4    0    0  0.45657325543E-01 -0.15440945038E-01  0.14404715439E-01  0.50306769995E-01  0.51100000000E-03 0.  1.
</event>
<event>
 8    1  0.1054086E+005  0.1043930E+01  0.7957747E-01            NaN
         13   -1    0    0    0    0  0.00000000000E+00  0.00000000000E+00  0.74505805969E-08  0.10566000000E+00  0.10566000000E+00 0.  1.
     999900   -1    0    0    0    0 -0.00000000000E+00 -0.00000000000E+00 -0.74505805969E-08  0.93827000000E+00  0.93827000000E+00 0. -1.
     999902    2    1    2    0    0  0.80010848055E-02 -0.11215321239E-01 -0.21849828602E-01  0.10180994793E+01  0.10177717495E+01 0.  0.
     999903    2    3    3    0    0 -0.91639617817E-01  0.77949436842E-01  0.32932681556E-01  0.12631489372E+00  0.19923769796E-01 0.  0.
         14    1    1    2    0    0 -0.80010848055E-02  0.11215321239E-01  0.21849828602E-01  0.25830520678E-01  0.00000000000E+00 0. -1.
     999901    1    3    3    0    0  0.99640702622E-01 -0.89164758081E-01 -0.54782510158E-01  0.89178458560E+00  0.88000000000E+00 0. -1.
        -11    1    4    4    0    0 -0.39749397590E-01  0.40175349818E-01  0.64661673125E-02  0.56887131959E-01  0.51100000000E-03 0. -1.
         11    1    4    4    0    0 -0.51890220226E-01  0.37774087024E-01  0.26466514244E-01  0.69427761759E-01  0.51100000000E-03 0.  1.
</event>
<event>
 8    1  0.1054086E+005  0.1043930E+01  0.7957747E-01            NaN
         13   -1    0    0    0    0  0.00000000000E+00  0.00000000000E+00  0.74505805969E-08  0.10566000000E+00  0.10566000000E+00 0. -1.
     999900   -1    0    0    0    0 -0.00000000000E+00 -0.00000000000E+00 -0.74505805969E-08  0.93827000000E+00  0.93827000000E+00 0.  1.
     999902    2    1    2    0    0 -0.28989528781E-02  0.77949198888E-02 -0.21904347007E-01  0.10204999953E+01  0.10202309911E+01 0.  0.
     999903    2    3    3    0    0  0.11076861792E+00  0.65425720905E-01  0.10822262931E-01  0.13071763038E+00  0.20488187937E-01 0.  0.
         14    1    1    2    0    0  0.28989528781E-02 -0.77949198888E-02  0.21904347007E-01  0.23430004730E-01  0.00000000000E+00 0. -1.
     999901    1    3    3    0    0 -0.11366757080E+00 -0.57630801016E-01 -0.32726609937E-01  0.88978236489E+00  0.88000000000E+00 0.  1.
        -11    1    4    4    0    0  0.89581035963E-01  0.44515798034E-01  0.36830788126E-02  0.10010117117E+00  0.51100000000E-03 0.  1.
         11    1    4    4    0    0  0.21187581956E-01  0.20909922871E-01  0.71391841182E-02  0.30616459209E-01  0.51100000000E-03 0. -1.
</event>
<event>
 8    1  0.1054086E+005  0.1043930E+01  0.7957747E-01            NaN
         13   -1    0    0    0    0  0.00000000000E+00  0.00000000000E+00  0.74505805969E-08  0.10566000000E+00  0.10566000000E+00 0. -1.
     999900   -1    0    0    0    0 -0.00000000000E+00 -0.00000000000E+00 -0.74505805969E-08  0.93827000000E+00  0.93827000000E+00 0. -1.
     999902    2    1    2    0    0 -0.85656845308E-02  0.20255473594E-01 -0.60753320000E-02  0.10211141103E+01  0.10208591781E+01 0.  0.
     999903    2    3    3    0    0 -0.64816079364E-01 -0.49625111748E-01  0.99786627793E-01  0.13024141592E+00  0.18484573989E-01 0.  0.
         14    1    1    2    0    0  0.85656845308E-02 -0.20255473594E-01  0.60753320000E-02  0.22815889659E-01  0.00000000000E+00 0.  1.
     999901    1    3    3    0    0  0.56250394833E-01  0.69880585342E-01 -0.10586195979E+00  0.89087269442E+00  0.88000000000E+00 0. -1.
        -11    1    4    4    0    0 -0.28407607604E-01 -0.14121503623E-01  0.48953776842E-01  0.58336458775E-01  0.51100000000E-03 0.  1.
         11    1    4    4    0    0 -0.36408471760E-01 -0.35503608125E-01  0.50832850952E-01  0.71904957149E-01  0.51100000000E-03 0. -1.
</event>
<event>
 8    1  0.1054086E+005  0.1043930E+01  0.7957747E-01            NaN
         13   -1    0    0    0    0  0.00000000000E+00  0.00000000000E+00  0.74505805969E-08  0.10566000000E+00  0.10566000000E+00 0. -1.
     999900   -1    0    0    0    0 -0.00000000000E+00 -0.00000000000E+00 -0.74505805969E-08  0.93827000000E+00  0.93827000000E+00 0.  1.
     999902    2    1    2    0    0 -0.55941867774E-02  0.89546760164E-02  0.20688272743E-01  0.10207031669E+01  0.10204388610E+01 0.  0.
     999903    2    3    3    0    0  0.14856207820E-01 -0.11720862443E+00  0.52697756818E-01  0.13089419631E+00  0.19941627391E-01 0.  0.
         14    1    1    2    0    0  0.55941867774E-02 -0.89546760164E-02 -0.20688272743E-01  0.23226833132E-01  0.00000000000E+00 0. -1.
     999901    1    3    3    0    0 -0.20450394598E-01  0.12616330044E+00 -0.32009484075E-01  0.88980897056E+00  0.88000000000E+00 0.  1.
        -11    1    4    4    0    0  0.28208107516E-03 -0.73479703470E-01  0.28336679597E-01  0.78756427822E-01  0.51100000000E-03 0. -1.
         11    1    4    4    0    0  0.14574126745E-01 -0.43728920956E-01  0.24361077220E-01  0.52137768486E-01  0.51100000000E-03 0.  1.
</event>
<event>
 8    1  0.1054086E+005  0.1043930E+01  0.7957747E-01            NaN
         13   -1    0    0    0    0  0.00000000000E+00  0.00000000000E+00  0.74505805969E-08  0.10566000000E+00  0.10566000000E+00 0.  1.
     999900   -1    0    0    0    0 -0.00000000000E+00 -0.00000000000E+00 -0.74505805969E-08  0.93827000000E+00  0.93827000000E+00 0.  1.
     999902    2    1    2    0    0  0.61386900621E-02 -0.19738917511E-01 -0.10995052483E-01  0.10205163382E+01  0.10202477135E+01 0.  0.
     999903    2    3    3    0    0  0.12114882916E-01  0.11934766682E+00  0.39499256693E-01  0.12814283563E+00  0.21673926285E-01 0.  0.
         14    1    1    2    0    0 -0.61386900621E-02  0.19738917511E-01  0.10995052483E-01  0.23413661808E-01  0.00000000000E+00 0.  1.
     999901    1    3    3    0    0 -0.59761928536E-02 -0.13908658433E+00 -0.50494309176E-01  0.89237350256E+00  0.88000000000E+00 0.  1.
        -11    1    4    4    0    0  0.10417194899E-02  0.51394105883E-01  0.65815643278E-02  0.51826802034E-01  0.51100000000E-03 0. -1.
         11    1    4    4    0    0  0.11073163426E-01  0.67953560933E-01  0.32917692365E-01  0.76316033593E-01  0.51100000000E-03 0.  1.
</event>
<event>
 8    1  0.1054086E+005  0.1043930E+01  0.7957747E-01            NaN
         13   -1    0    0    0    0  0.00000000000E+00  0.00000000000E+00  0.74505805969E-08  0.10566000000E+00  0.10566000000E+00 0. -1.
     999900   -1    0    0    0    0 -0.00000000000E+00 -0.00000000000E+00 -0.74505805969E-08  0.93827000000E+00  0.93827000000E+00 0.  1.
     999902    2    1    2    0    0  0.12490036637E-01  0.19481245471E-01 -0.27633209035E-02  0.10206242951E+01  0.10203581703E+01 0.  0.
     999903    2    3    3    0    0 -0.35297344217E-01  0.11155106219E+00  0.58669319802E-01  0.13240447190E+00  0.19982820329E-01 0.  0.
         14    1    1    2    0    0 -0.12490036637E-01 -0.19481245471E-01  0.27633209035E-02  0.23305704939E-01  0.00000000000E+00 0.  1.
     999901    1    3    3    0    0  0.47787380854E-01 -0.92069816715E-01 -0.61432640705E-01  0.88821982316E+00  0.88000000000E+00 0.  1.
        -11    1    4    4    0    0 -0.13705931899E-01  0.73464092239E-01  0.33466007730E-01  0.81884432050E-01  0.51100000000E-03 0. -1.
         11    1    4    4    0    0 -0.21591412318E-01  0.38086969947E-01  0.25203312071E-01  0.50520039846E-01  0.51100000000E-03 0.  1.
</event>
<event>
 8    1  0.1054086E+005  0.1043930E+01  0.7957747E-01            NaN
         13   -1    0    0    0    0  0.00000000000E+00  0.00000000000E+00  0.74505805969E-08  0.10566000000E+00  0.10566000000E+00 0. -1.
     999900   -1    0    0    0    0 -0.00000000000E+00 -0.00000000000E+00 -0.74505805969E-08  0.93827000000E+00  0.93827000000E+00 0. -1.
     999902    2    1    2    0    0 -0.12560544101E-01 -0.20477232903E-01 -0.22113469015E-02  0.10198058546E+01  0.10195204788E+01 0.  0.
     999903    2    3    3    0    0  0.40266048548E-01 -0.38171007783E-01 -0.11639562262E+00  0.13068169715E+00  0.21245811496E-01 0.  0.
         14    1    1    2    0    0  0.12560544101E-01  0.20477232903E-01  0.22113469015E-02  0.24124145386E-01  0.00000000000E+00 0.  1.
     999901    1    3    3    0    0 -0.52826592648E-01  0.17693774880E-01  0.11418427571E+00  0.88912415746E+00  0.88000000000E+00 0.  1.
        -11    1    4    4    0    0  0.27667666672E-01 -0.21252290976E-01 -0.92181795841E-01  0.98564213872E-01  0.51100000000E-03 0. -1.
         11    1    4    4    0    0  0.12598381875E-01 -0.16918716806E-01 -0.24213826775E-01  0.32117483281E-01  0.51100000000E-03 0.  1.
</event>
<event>
 8    1  0.1054086E+005  0.1043930E+01  0.7957747E-01            NaN
         13   -1    0    0    0    0  0.00000000000E+00  0.00000000000E+00  0.74505805969E-08  0.10566000000E+00  0.10566000000E+00 0.  1.
     999900   -1    0    0    0    0 -0.00000000000E+00 -0.00000000000E+00 -0.74505805969E-08  0.93827000000E+00  0.93827000000E+00 0. -1.
     999902    2    1    2    0    0  0.12249280796E-02 -0.19577731200E-01 -0.13476714321E-01  0.10201306337E+01  0.10198529796E+01 0.  0.
     999903    2    3    3    0    0  0.49267855412E-01 -0.12169446437E+00 -0.15472934550E-02  0.13284361072E+00  0.20203132318E-01 0.  0.
         14    1    1    2    0    0 -0.12249280796E-02  0.19577731200E-01  0.13476714321E-01  0.23799366308E-01  0.00000000000E+00 0.  1.
     999901    1    3    3    0    0 -0.48042927333E-01  0.10211673317E+00 -0.11929420866E-01  0.88728702298E+00  0.88000000000E+00 0. -1.
        -11    1    4    4    0    0  0.22841104699E-01 -0.46795867053E-01 -0.98035379002E-02  0.52989996353E-01  0.51100000000E-03 0.  1.
         11    1    4    4    0    0  0.26426750713E-01 -0.74898597318E-01  0.82562444452E-02  0.79853614363E-01  0.51100000000E-03 0. -1.
</event>
<event>
 8    1  0.1069107E+005  0.1043930E+01  0.7957747E-01            NaN
         13   -1    0    0    0    0  0.00000000000E+00  0.00000000000E+00  0.74505805969E-08  0.10566000000E+00  0.10566000000E+00 0.  1.
     999900   -1    0    0    0    0 -0.00000000000E+00 -0.00000000000E+00 -0.74505805969E-08  0.93827000000E+00  0.93827000000E+00 0.  1.
     999902    2    1    2    0    0 -0.14024222835E-01 -0.12077324075E-01  0.13487635411E-01  0.10210289762E+01  0.10207721162E+01 0.  0.
     999903    2    3    3    0    0  0.11398657634E-01 -0.86736640946E-01 -0.95297258998E-01  0.13082984694E+00  0.19537323257E-01 0.  0.
         14    1    1    2    0    0  0.14024222835E-01  0.12077324075E-01 -0.13487635411E-01  0.22901023818E-01  0.00000000000E+00 0. -1.
     999901    1    3    3    0    0 -0.25422880469E-01  0.74659316871E-01  0.10878489441E+00  0.89019912924E+00  0.88000000000E+00 0. -1.
        -11    1    4    4    0    0  0.90624672079E-02 -0.20153704872E-01 -0.32283182666E-01  0.39124993751E-01  0.51100000000E-03 0.  1.
         11    1    4    4    0    0  0.23361904263E-02 -0.66582936074E-01 -0.63014076332E-01  0.91704853192E-01  0.51100000000E-03 0. -1.
</event>
<event>
 8    1  0.1054086E+005  0.1043930E+01  0.7957747E-01            NaN
         13   -1    0    0    0    0  0.00000000000E+00  0.00000000000E+00  0.74505805969E-08  0.10566000000E+00  0.10566000000E+00 0.  1.
     999900   -1    0    0    0    0 -0.00000000000E+00 -0.00000000000E+00 -0.74505805969E-08  0.93827000000E+00  0.93827000000E+00 0.  1.
     999902    2    1    2    0    0 -0.16044432270E-01 -0.10670492596E-01 -0.12906695215E-01  0.10207380617E+01  0.10204745586E+01 0.  0.
     999903    2    3    3    0    0 -0.50234215442E-01 -0.12103162627E+00 -0.12551900838E-01  0.13318600863E+00  0.20219587547E-01 0.  0.
         14    1    1    2    0    0  0.16044432270E-01  0.10670492596E-01  0.12906695215E-01  0.23191938265E-01  0.00000000000E+00 0.  1.
     999901    1    3    3    0    0  0.34189783173E-01  0.11036113367E+00 -0.35479437751E-03  0.88755205311E+00  0.88000000000E+00 0. -1.
        -11    1    4    4    0    0 -0.40219225332E-02 -0.28945578367E-01  0.11251834098E-02  0.29249778231E-01  0.51100000000E-03 0. -1.
         11    1    4    4    0    0 -0.46212292909E-01 -0.92086047903E-01 -0.13677084247E-01  0.10393623040E+00  0.51100000000E-03 0.  1.
</event>
<event>
 8    1  0.1054086E+005  0.1043930E+01  0.7957747E-01            NaN
         13   -1    0    0    0    0  0.00000000000E+00  0.00000000000E+00  0.74505805969E-08  0.10566000000E+00  0.10566000000E+00 0.  1.
     999900   -1    0    0    0    0 -0.00000000000E+00 -0.00000000000E+00 -0.74505805969E-08  0.93827000000E+00  0.93827000000E+00 0.  1.
     999902    2    1    2    0    0  0.20488242940E-02  0.23445051340E-01 -0.24548132701E-02  0.10202679160E+01  0.10199934932E+01 0.  0.
     999903    2    3    3    0    0 -0.11144290750E-01 -0.10739630117E+00  0.65607621737E-01  0.12789690966E+00  0.19877091068E-01 0.  0.
         14    1    1    2    0    0 -0.20488242940E-02 -0.23445051340E-01  0.24548132701E-02  0.23662084049E-01  0.00000000000E+00 0. -1.
     999901    1    3    3    0    0  0.13193115044E-01  0.13084135251E+00 -0.68062435007E-01  0.89237100629E+00  0.88000000000E+00 0.  1.
        -11    1    4    4    0    0 -0.98164238092E-02 -0.47434719431E-01  0.39401855482E-01  0.62443431363E-01  0.51100000000E-03 0.  1.
         11    1    4    4    0    0 -0.13278669409E-02 -0.59961581738E-01  0.26205766255E-01  0.65453478297E-01  0.51100000000E-03 0. -1.
</event>
<event>
 8    1  0.1054086E+005  0.1043930E+01  0.7957747E-01            NaN
         13   -1    0    0    0    0  0.00000000000E+00  0.00000000000E+00  0.74505805969E-08  0.10566000000E+00  0.10566000000E+00 0.  1.
     999900   -1    0    0    0    0 -0.00000000000E+00 -0.00000000000E+00 -0.74505805969E-08  0.93827000000E+00  0.93827000000E+00 0. -1.
     999902    2    1    2    0    0  0.20039640945E-01  0.67540917172E-02  0.11623763744E-01  0.10197987579E+01  0.10195132121E+01 0.  0.
     999903    2    3    3    0    0  0.76678448052E-01  0.10219295709E+00  0.29770421311E-01  0.13264272159E+00  0.19617052075E-01 0.  0.
         14    1    1    2    0    0 -0.20039640945E-01 -0.67540917172E-02 -0.11623763744E-01  0.24131242149E-01  0.00000000000E+00 0. -1.
     999901    1    3    3    0    0 -0.56638807108E-01 -0.95438865368E-01 -0.18146657568E-01  0.88715603626E+00  0.88000000000E+00 0. -1.
        -11    1    4    4    0    0  0.79311282551E-02  0.39301232167E-02 -0.74082569297E-03  0.88971123183E-02  0.51100000000E-03 0. -1.
         11    1    4    4    0    0  0.68747319797E-01  0.98262833869E-01  0.30511247004E-01  0.12374560927E+00  0.51100000000E-03 0.  1.
</event>
<event>
 8    1  0.1054086E+005  0.1043930E+01  0.7957747E-01            NaN
         13   -1    0    0    0    0  0.00000000000E+00  0.00000000000E+00  0.74505805969E-08  0.10566000000E+00  0.10566000000E+00 0. -1.
     999900   -1    0    0    0    0 -0.00000000000E+00 -0.00000000000E+00 -0.74505805969E-08  0.93827000000E+00  0.93827000000E+00 0.  1.
     999902    2    1    2    0    0 -0.48497221458E-03  0.21746628625E-01  0.51905457851E-02  0.10215672448E+01  0.10213224480E+01 0.  0.
     999903    2    3    3    0    0  0.85919679600E-01  0.10030864495E+00  0.79301020502E-02  0.13384811161E+00  0.20209276779E-01 0.  0.
         14    1    1    2    0    0  0.48497221458E-03 -0.21746628625E-01 -0.51905457851E-02  0.22362755200E-01  0.00000000000E+00 0. -1.
     999901    1    3    3    0    0 -0.86404651815E-01 -0.78562016328E-01 -0.27395562651E-02  0.88771913319E+00  0.88000000000E+00 0. -1.
        -11    1    4    4    0    0  0.44094949476E-01  0.64362087616E-01  0.99957950599E-02  0.78657612038E-01  0.51100000000E-03 0.  1.
         11    1    4    4    0    0  0.41824730125E-01  0.35946557336E-01 -0.20656930097E-02  0.55190499571E-01  0.51100000000E-03 0. -1.
</event>
<event>
 8    1  0.1054086E+005  0.1043930E+01  0.7957747E-01            NaN
         13   -1    0    0    0    0  0.00000000000E+00  0.00000000000E+00  0.74505805969E-08  0.10566000000E+00  0.10566000000E+00 0. -1.
     999900   -1    0    0    0    0 -0.00000000000E+00 -0.00000000000E+00 -0.74505805969E-08  0.93827000000E+00  0.93827000000E+00 0. -1.
     999902    2    1    2    0    0 -0.12529216692E-01 -0.41401011818E-02  0.18904392888E-01  0.10208757644E+01  0.10206154166E+01 0.  0.
     999903    2    3    3    0    0  0.55701557345E-01  0.11035487359E+00  0.36795122001E-01  0.13065971424E+00  0.20909765824E-01 0.  0.
         14    1    1    2    0    0  0.12529216692E-01  0.41401011818E-02 -0.18904392888E-01  0.23054235601E-01  0.00000000000E+00 0.  1.
     999901    1    3    3    0    0 -0.68230774037E-01 -0.11449497477E+00 -0.17890729113E-01  0.89021605016E+00  0.88000000000E+00 0. -1.
        -11    1    4    4    0    0  0.25005236130E-01  0.29580478292E-01  0.78104896957E-02  0.39516216926E-01  0.51100000000E-03 0. -1.
         11    1    4    4    0    0  0.30696321215E-01  0.80774395296E-01  0.28984632306E-01  0.91143497313E-01  0.51100000000E-03 0.  1.
</event>
<event>
 8    1  0.1054086E+005  0.1043930E+01  0.7957747E-01            NaN
         13   -1    0    0    0    0  0.00000000000E+00  0.00000000000E+00  0.74505805969E-08  0.10566000000E+00  0.10566000000E+00 0.  1.
     999900   -1    0    0    0    0 -0.00000000000E+00 -0.00000000000E+00 -0.74505805969E-08  0.93827000000E+00  0.93827000000E+00 0.  1.
     999902    2    1    2    0    0 -0.24905908663E-01 -0.54199576927E-03  0.14238932176E-02  0.10189775348E+01  0.10186719742E+01 0.  0.
     999903    2    3    3    0    0 -0.12632813389E+00 -0.30906870660E-01 -0.16452071526E-01  0.13245170695E+00  0.18940748428E-01 0.  0.
         14    1    1    2    0    0  0.24905908663E-01  0.54199576927E-03 -0.14238932176E-02  0.24952465162E-01  0.00000000000E+00 0.  1.
     999901    1    3    3    0    0  0.10142222522E+00  0.30364874891E-01  0.17875964744E-01  0.88652582789E+00  0.88000000000E+00 0.  1.
        -11    1    4    4    0    0 -0.10387972687E-01 -0.23106464894E-03 -0.61365085561E-02  0.12078130057E-01  0.51100000000E-03 0.  1.
         11    1    4    4    0    0 -0.11594016120E+00 -0.30675806011E-01 -0.10315562970E-01  0.12037357689E+00  0.51100000000E-03 0. -1.
</event>
<event>
 8    1  0.1054086E+005  0.1043930E+01  0.7957747E-01            NaN
         13   -1    0    0    0    0  0.00000000000E+00  0.00000000000E+00  0.74505805969E-08  0.10566000000E+00  0.10566000000E+00 0. -1.
     999900   -1    0    0    0    0 -0.00000000000E+00 -0.00000000000E+00 -0.74505805969E-08  0.93827000000E+00  0.93827000000E+00 0. -1.
     999902    2    1    2    0    0  0.12792732126E-01  0.53432175842E-02  0.20255542000E-01  0.10193843089E+01  0.10190887490E+01 0.  0.
     999903    2    3    3    0    0 -0.10892242137E+00 -0.35201933737E-01 -0.51523494120E-01  0.12718998147E+00  0.20478059572E-01 0.  0.
         14    1    1    2    0    0 -0.12792732126E-01 -0.53432175842E-02 -0.20255542000E-01  0.24545691090E-01  0.00000000000E+00 0.  1.
     999901    1    3    3    0    0  0.12171515350E+00  0.40545151321E-01  0.71779036120E-01  0.89219432744E+00  0.88000000000E+00 0.  1.
        -11    1    4    4    0    0 -0.27643336953E-01 -0.16957650221E-01 -0.89926768335E-02  0.33657767848E-01  0.51100000000E-03 0. -1.
         11    1    4    4    0    0 -0.81279084420E-01 -0.18244283516E-01 -0.42530817286E-01  0.93532213623E-01  0.51100000000E-03 0.  1.
</event>
<event>
 8    1  0.1119562E+005  0.1043930E+01  0.7957747E-01            NaN
         13   -1    0    0    0    0  0.00000000000E+00  0.00000000000E+00  0.74505805969E-08  0.10566000000E+00  0.10566000000E+00 0.  1.
     999900   -1    0    0    0    0 -0.00000000000E+00 -0.00000000000E+00 -0.74505805969E-08  0.93827000000E+00  0.93827000000E+00 0. -1.
     999902    2    1    2    0    0 -0.22618481609E-01  0.11172760598E-01 -0.12433674247E-02  0.10186718874E+01  0.10183587000E+01 0.  0.
     999903    2    3    3    0    0 -0.27321269498E-01 -0.11657092461E+00 -0.42010853517E-01  0.12850192989E+00  0.20312605458E-01 0.  0.
         14    1    1    2    0    0  0.22618481609E-01 -0.11172760598E-01  0.12433674247E-02  0.25258112602E-01  0.00000000000E+00 0. -1.
     999901    1    3    3    0    0  0.47027878899E-02  0.12774368521E+00  0.40767486092E-01  0.89016995751E+00  0.88000000000E+00 0.  1.
        -11    1    4    4    0    0 -0.11349504327E-01 -0.58102620265E-01 -0.10289824260E-01  0.60090492879E-01  0.51100000000E-03 0.  1.
         11    1    4    4    0    0 -0.15971765171E-01 -0.58468304348E-01 -0.31721029257E-01  0.68411437012E-01  0.51100000000E-03 0. -1.
</event>
<event>
 8    1  0.1054086E+005  0.1043930E+01  0.7957747E-01            NaN
         13   -1    0    0    0    0  0.00000000000E+00  0.00000000000E+00  0.74505805969E-08  0.10566000000E+00  0.10566000000E+00 0. -1.
     999900   -1    0    0    0    0 -0.00000000000E+00 -0.00000000000E+00 -0.74505805969E-08  0.93827000000E+00  0.93827000000E+00 0.  1.
     999902    2    1    2    0    0  0.20812797849E-02 -0.22651249234E-01 -0.41785390777E-02  0.10208027216E+01  0.10205407025E+01 0.  0.
     999903    2    3    3    0    0 -0.93447922342E-01  0.81348555735E-01  0.29765634782E-01  0.12889802107E+00  0.19457777641E-01 0.  0.
         14    1    1    2    0    0 -0.20812797849E-02  0.22651249234E-01  0.41785390777E-02  0.23127278401E-01  0.00000000000E+00 0.  1.
     999901    1    3    3    0    0  0.95529202127E-01 -0.10399980497E+00 -0.33944173860E-01  0.89190470053E+00  0.88000000000E+00 0.  1.
        -11    1    4    4    0    0 -0.42915143225E-01  0.45656514983E-01  0.73391295087E-02  0.63090021568E-01  0.51100000000E-03 0.  1.
         11    1    4    4    0    0 -0.50532779117E-01  0.35692040752E-01  0.22426505274E-01  0.65807999499E-01  0.51100000000E-03 0. -1.
</event>
<event>
 8    1  0.1054086E+005  0.1043930E+01  0.7957747E-01            NaN
         13   -1    0    0    0    0  0.00000000000E+00  0.00000000000E+00  0.74505805969E-08  0.10566000000E+00  0.10566000000E+00 0.  1.
     999900   -1    0    0    0    0 -0.00000000000E+00 -0.00000000000E+00 -0.74505805969E-08  0.93827000000E+00  0.93827000000E+00 0. -1.
     999902    2    1    2    0    0 -0.18210730482E-01  0.58309324193E-03  0.14603578986E-01  0.10205797276E+01  0.10203125723E+01 0.  0.
     999903    2    3    3    0    0 -0.96516328893E-02 -0.52950985766E-02  0.13110793650E+00  0.13284042092E+00  0.18332875676E-01 0.  0.
         14    1    1    2    0    0  0.18210730482E-01 -0.58309324193E-03 -0.14603578986E-01  0.23350272410E-01  0.00000000000E+00 0. -1.
     999901    1    3    3    0    0 -0.85590975927E-02  0.58781918186E-02 -0.11650435751E+00  0.88773930667E+00  0.88000000000E+00 0. -1.
        -11    1    4    4    0    0  0.28535933447E-02  0.18212243881E-02  0.69028375340E-01  0.69113222876E-01  0.51100000000E-03 0.  1.
         11    1    4    4    0    0 -0.12505226234E-01 -0.71163229647E-02  0.62079561158E-01  0.63727198042E-01  0.51100000000E-03 0. -1.
</event>
<event>
 8    1  0.1054086E+005  0.1043930E+01  0.7957747E-01            NaN
         13   -1    0    0    0    0  0.00000000000E+00  0.00000000000E+00  0.74505805969E-08  0.10566000000E+00  0.10566000000E+00 0. -1.
     999900   -1    0    0    0    0 -0.00000000000E+00 -0.00000000000E+00 -0.74505805969E-08  0.93827000000E+00  0.93827000000E+00 0. -1.
     999902    2    1    2    0    0 -0.69072589735E-02  0.21696436536E-01  0.13429758298E-02  0.10211210288E+01  0.10208662529E+01 0.  0.
     999903    2    3    3    0    0 -0.11684787775E+00  0.26734315006E-01  0.53442657714E-01  0.13273671061E+00  0.19868732943E-01 0.  0.
         14    1    1    2    0    0  0.69072589735E-02 -0.21696436536E-01 -0.13429758298E-02  0.22808971239E-01  0.00000000000E+00 0. -1.
     999901    1    3    3    0    0  0.10994061877E+00 -0.50378784696E-02 -0.52099681885E-01  0.88838431815E+00  0.88000000000E+00 0. -1.
        -11    1    4    4    0    0 -0.11317099786E+00  0.28697940911E-01  0.48988899439E-01  0.12661524378E+00  0.51100000000E-03 0. -1.
         11    1    4    4    0    0 -0.36768798860E-02 -0.19636259054E-02  0.44537582754E-02  0.61214668314E-02  0.51100000000E-03 0.  1.
</event>
<event>
 8    1  0.1054086E+005  0.1043930E+01  0.7957747E-01            NaN
         13   -1    0    0    0    0  0.00000000000E+00  0.00000000000E+00  0.74505805969E-08  0.10566000000E+00  0.10566000000E+00 0. -1.
     999900   -1    0    0    0    0 -0.00000000000E+00 -0.00000000000E+00 -0.74505805969E-08  0.93827000000E+00  0.93827000000E+00 0.  1.
     999902    2    1    2    0    0  0.41683590813E-02 -0.45066147623E-02  0.23032151534E-01  0.10200937923E+01  0.10198152677E+01 0.  0.
     999903    2    3    3    0    0 -0.71996244890E-01  0.85734830547E-01 -0.59425639219E-01  0.12838540239E+00  0.20432437520E-01 0.  0.
         14    1    1    2    0    0 -0.41683590813E-02  0.45066147623E-02 -0.23032151534E-01  0.23836207717E-01  0.00000000000E+00 0.  1.
     999901    1    3    3    0    0  0.76164603971E-01 -0.90241445310E-01  0.82457790753E-01  0.89170838989E+00  0.88000000000E+00 0. -1.
        -11    1    4    4    0    0 -0.27658623932E-01  0.47704395705E-01 -0.33055957214E-01  0.64293594360E-01  0.51100000000E-03 0. -1.
         11    1    4    4    0    0 -0.44337620958E-01  0.38030434843E-01 -0.26369682005E-01  0.64091808030E-01  0.51100000000E-03 0.  1.
</event>
<event>
 8    1  0.1165420E+005  0.1043930E+01  0.7957747E-01            NaN
         13   -1    0    0    0    0  0.00000000000E+00  0.00000000000E+00  0.74505805969E-08  0.10566000000E+00  0.10566000000E+00 0. -1.
     999900   -1    0    0    0    0 -0.00000000000E+00 -0.00000000000E+00 -0.74505805969E-08  0.93827000000E+00  0.93827000000E+00 0.  1.
     999902    2    1    2    0    0  0.18465981639E-03 -0.18902711935E-01  0.14581830178E-01  0.10200558217E+01  0.10197763985E+01 0.  0.
     999903    2    3    3    0    0  0.57999461768E-01 -0.11587176513E+00 -0.16511606096E-01  0.13229890094E+00  0.20980050847E-01 0.  0.
         14    1    1    2    0    0 -0.18465981639E-03  0.18902711935E-01 -0.14581830178E-01  0.23874178291E-01  0.00000000000E+00 0.  1.
     999901    1    3    3    0    0 -0.57814801951E-01  0.96969053193E-01  0.31093436274E-01  0.88775692077E+00  0.88000000000E+00 0. -1.
        -11    1    4    4    0    0  0.35168817061E-01 -0.52358189035E-01 -0.11851864620E-02  0.63086380784E-01  0.51100000000E-03 0.  1.
         11    1    4    4    0    0  0.22830644707E-01 -0.63513576094E-01 -0.15326419634E-01  0.69212520151E-01  0.51100000000E-03 0. -1.
</event>
<event>
 8    1  0.1054086E+005  0.1043930E+01  0.7957747E-01            NaN
         13   -1    0    0    0    0  0.00000000000E+00  0.00000000000E+00  0.74505805969E-08  0.10566000000E+00  0.10566000000E+00 0.  1.
     999900   -1    0    0    0    0 -0.00000000000E+00 -0.00000000000E+00 -0.74505805969E-08  0.93827000000E+00  0.93827000000E+00 0. -1.
     999902    2    1    2    0    0  0.18771543221E-01  0.14195188548E-01 -0.33603447745E-02  0.10201567770E+01  0.10198797398E+01 0.  0.
     999903    2    3    3    0    0  0.50327289496E-01 -0.48873940018E-01 -0.10878496775E+00  0.13106295115E+00  0.20538497401E-01 0.  0.
         14    1    1    2    0    0 -0.18771543221E-01 -0.14195188548E-01  0.33603447745E-02  0.23773222958E-01  0.00000000000E+00 0.  1.
     999901    1    3    3    0    0 -0.31555746276E-01  0.63069128566E-01  0.10542462298E+00  0.88909382589E+00  0.88000000000E+00 0.  1.
        -11    1    4    4    0    0  0.35208168037E-01 -0.37656326534E-01 -0.93647042499E-01  0.10690015769E+00  0.51100000000E-03 0.  1.
         11    1    4    4    0    0  0.15119121460E-01 -0.11217613484E-01 -0.15137925254E-01  0.24162793464E-01  0.51100000000E-03 0. -1.
</event>
<event>
 8    1  0.1054086E+005  0.1043930E+01  0.7957747E-01            NaN
         13   -1    0    0    0    0  0.00000000000E+00  0.00000000000E+00  0.74505805969E-08  0.10566000000E+00  0.10566000000E+00 0. -1.
     999900   -1    0    0    0    0 -0.00000000000E+00 -0.00000000000E+00 -0.74505805969E-08  0.93827000000E+00  0.93827000000E+00 0. -1.
     999902    2    1    2    0    0  0.15837167493E-01 -0.13007460817E-02  0.91751088358E-02  0.10255808737E+01  0.10254167143E+01 0.  0.
     999903    2    3    3    0    0  0.64632323312E-01  0.74371921213E-02 -0.11675570615E+00  0.13523493588E+00  0.20589898520E-01 0.  0.
         14    1    1    2    0    0 -0.15837167493E-01  0.13007460817E-02 -0.91751088358E-02  0.18349126320E-01  0.00000000000E+00 0.  1.
     999901    1    3    3    0    0 -0.48795155819E-01 -0.87379382030E-02  0.12593081498E+00  0.89034593780E+00  0.88000000000E+00 0.  1.
        -11    1    4    4    0    0  0.58952867878E-02  0.15001649367E-02 -0.27855942339E-01  0.28517004502E-01  0.51100000000E-03 0. -1.
         11    1    4    4    0    0  0.58737036524E-01  0.59370271845E-02 -0.88899763808E-01  0.10671793138E+00  0.51100000000E-03 0.  1.
</event>
<event>
 8    1  0.1054086E+005  0.1043930E+01  0.7957747E-01            NaN
         13   -1    0    0    0    0  0.00000000000E+00  0.00000000000E+00  0.74505805969E-08  0.10566000000E+00  0.10566000000E+00 0.  1.
     999900   -1    0    0    0    0 -0.00000000000E+00 -0.00000000000E+00 -0.74505805969E-08  0.93827000000E+00  0.93827000000E+00 0.  1.
     999902    2    1    2    0    0  0.12522054610E-01 -0.12162931122E-01 -0.16357581572E-01  0.10200070148E+01  0.10197264344E+01 0.  0.
     999903    2    3    3    0    0 -0.64398133319E-03 -0.10831082925E-01 -0.13056968053E+00  0.13252770696E+00  0.19935510283E-01 0.  0.
         14    1    1    2    0    0 -0.12522054610E-01  0.12162931122E-01  0.16357581572E-01  0.23922985182E-01  0.00000000000E+00 0.  1.
     999901    1    3    3    0    0  0.13166035943E-01 -0.13318481968E-02  0.11421209896E+00  0.88747930785E+00  0.88000000000E+00 0. -1.
        -11    1    4    4    0    0 -0.78824958694E-02 -0.22816694746E-03 -0.78480267986E-01  0.78877115728E-01  0.51100000000E-03 0.  1.
         11    1    4    4    0    0  0.72385145362E-02 -0.10602915978E-01 -0.52089412542E-01  0.53650591235E-01  0.51100000000E-03 0. -1.
</event>
<event>
 8    1  0.1054086E+005  0.1043930E+01  0.7957747E-01            NaN
         13   -1    0    0    0    0  0.00000000000E+00  0.00000000000E+00  0.74505805969E-08  0.10566000000E+00  0.10566000000E+00 0.  1.
     999900   -1    0    0    0    0 -0.00000000000E+00 -0.00000000000E+00 -0.74505805969E-08  0.93827000000E+00  0.93827000000E+00 0. -1.
     999902    2    1    2    0    0  0.14278793485E-01 -0.88737919682E-02 -0.16547283969E-01  0.10203410040E+01  0.10200682936E+01 0.  0.
     999903    2    3    3    0    0 -0.87868219031E-01 -0.77088874059E-01  0.50981719300E-01  0.12924758806E+00  0.21030570510E-01 0.  0.
         14    1    1    2    0    0 -0.14278793485E-01  0.88737919682E-02  0.16547283969E-01  0.23588996037E-01  0.00000000000E+00 0.  1.
     999901    1    3    3    0    0  0.10214701252E+00  0.68215082091E-01 -0.67529003269E-01  0.89109341591E+00  0.88000000000E+00 0. -1.
        -11    1    4    4    0    0 -0.32634448095E-01 -0.36154550284E-01  0.11802958084E-01  0.50117159229E-01  0.51100000000E-03 0.  1.
         11    1    4    4    0    0 -0.55233770936E-01 -0.40934323775E-01  0.39178761216E-01  0.79130428826E-01  0.51100000000E-03 0. -1.
</event>
<event>
 8    1  0.1054086E+005  0.1043930E+01  0.7957747E-01            NaN
         13   -1    0    0    0    0  0.00000000000E+00  0.00000000000E+00  0.74505805969E-08  0.10566000000E+00  0.10566000000E+00 0. -1.
     999900   -1    0    0    0    0 -0.00000000000E+00 -0.00000000000E+00 -0.74505805969E-08  0.93827000000E+00  0.93827000000E+00 0. -1.
     999902    2    1    2    0    0  0.18969968854E-01 -0.98640890136E-03  0.13190036409E-01  0.10208040453E+01  0.10205420565E+01 0.  0.
     999903    2    3    3    0    0  0.83385262714E-01 -0.94466475912E-01 -0.34658282432E-01  0.13222241447E+00  0.20113508845E-01 0.  0.
         14    1    1    2    0    0 -0.18969968854E-01  0.98640890136E-03 -0.13190036409E-01  0.23125954712E-01  0.00000000000E+00 0.  1.
     999901    1    3    3    0    0 -0.64415293860E-01  0.93480067011E-01  0.47848318841E-01  0.88858163082E+00  0.88000000000E+00 0.  1.
        -11    1    4    4    0    0  0.23318977455E-01 -0.40980599218E-01 -0.11799905771E-01  0.48607438927E-01  0.51100000000E-03 0.  1.
         11    1    4    4    0    0  0.60066285259E-01 -0.53485876694E-01 -0.22858376661E-01  0.83614975544E-01  0.51100000000E-03 0. -1.
</event>
<event>
 8    1  0.1054086E+005  0.1043930E+01  0.7957747E-01            NaN
         13   -1    0    0    0    0  0.00000000000E+00  0.00000000000E+00  0.74505805969E-08  0.10566000000E+00  0.10566000000E+00 0. -1.
     999900   -1    0    0    0    0 -0.00000000000E+00 -0.00000000000E+00 -0.74505805969E-08  0.93827000000E+00  0.93827000000E+00 0. -1.
     999902    2    1    2    0    0 -0.10502462308E-02 -0.24706503042E-01  0.30992844467E-02  0.10190077233E+01  0.10187029107E+01 0.  0.
     999903    2    3    3    0    0  0.10686992822E+00  0.47706302353E-01 -0.47716898988E-01  0.12801240184E+00  0.20327314989E-01 0.  0.
         14    1    1    2    0    0  0.10502462308E-02  0.24706503042E-01 -0.30992844467E-02  0.24922276657E-01  0.00000000000E+00 0.  1.
     999901    1    3    3    0    0 -0.10792017445E+00 -0.72412805395E-01  0.50816183435E-01  0.89099532150E+00  0.88000000000E+00 0. -1.
        -11    1    4    4    0    0  0.51774202906E-01  0.33819494022E-01 -0.27766826180E-01  0.67790736975E-01  0.51100000000E-03 0.  1.
         11    1    4    4    0    0  0.55095725312E-01  0.13886808331E-01 -0.19950072809E-01  0.60221664867E-01  0.51100000000E-03 0. -1.
</event>
<event>
 8    1  0.1054086E+005  0.1043930E+01  0.7957747E-01            NaN
         13   -1    0    0    0    0  0.00000000000E+00  0.00000000000E+00  0.74505805969E-08  0.10566000000E+00  0.10566000000E+00 0.  1.
     999900   -1    0    0    0    0 -0.00000000000E+00 -0.00000000000E+00 -0.74505805969E-08  0.93827000000E+00  0.93827000000E+00 0. -1.
     999902    2    1    2    0    0 -0.16958345856E-01  0.12258960943E-01  0.11096014804E-01  0.10202447902E+01  0.10199698245E+01 0.  0.
     999903    2    3    3    0    0 -0.27901448670E-01 -0.20989772598E-01 -0.12306200539E+00  0.12938924404E+00  0.19448853729E-01 0.  0.
         14    1    1    2    0    0  0.16958345856E-01 -0.12258960943E-01 -0.11096014804E-01  0.23685209776E-01  0.00000000000E+00 0. -1.
     999901    1    3    3    0    0  0.10943102814E-01  0.33248733541E-01  0.13415802019E+00  0.89085554618E+00  0.88000000000E+00 0. -1.
        -11    1    4    4    0    0  0.56969464964E-03  0.60005997751E-03 -0.25001782098E-01  0.25020688501E-01  0.51100000000E-03 0. -1.
         11    1    4    4    0    0 -0.28471143319E-01 -0.21589832576E-01 -0.98060223292E-01  0.10436855554E+00  0.51100000000E-03 0.  1.
</event>
<event>
 8    1  0.1054086E+005  0.1043930E+01  0.7957747E-01            NaN
         13   -1    0    0    0    0  0.00000000000E+00  0.00000000000E+00  0.74505805969E-08  0.10566000000E+00  0.10566000000E+00 0. -1.
     999900   -1    0    0    0    0 -0.00000000000E+00 -0.00000000000E+00 -0.74505805969E-08  0.93827000000E+00  0.93827000000E+00 0.  1.
     999902    2    1    2    0    0 -0.23161673023E-02 -0.11342361553E-01  0.21162355596E-01  0.10198082444E+01  0.10195229259E+01 0.  0.
     999903    2    3    3    0    0 -0.80490220977E-01  0.47901682735E-01 -0.84848612611E-01  0.12803508673E+00  0.20504865012E-01 0.  0.
         14    1    1    2    0    0  0.23161673023E-02  0.11342361553E-01 -0.21162355596E-01  0.24121755553E-01  0.00000000000E+00 0.  1.
     999901    1    3    3    0    0  0.78174053675E-01 -0.59244044288E-01  0.10601096821E+00  0.89177315772E+00  0.88000000000E+00 0. -1.
        -11    1    4    4    0    0 -0.25603017764E-01  0.22660912805E-01 -0.40981601185E-01  0.53374003452E-01  0.51100000000E-03 0. -1.
         11    1    4    4    0    0 -0.54887203214E-01  0.25240769930E-01 -0.43867011426E-01  0.74661083274E-01  0.51100000000E-03 0.  1.
</event>
<event>
 8    1  0.1054086E+005  0.1043930E+01  0.7957747E-01            NaN
         13   -1    0    0    0    0  0.00000000000E+00  0.00000000000E+00  0.74505805969E-08  0.10566000000E+00  0.10566000000E+00 0.  1.
     999900   -1    0    0    0    0 -0.00000000000E+00 -0.00000000000E+00 -0.74505805969E-08  0.93827000000E+00  0.93827000000E+00 0. -1.
     999902    2    1    2    0    0  0.21290987216E-01 -0.32591188252E-03 -0.10652125099E-01  0.10201207555E+01  0.10198428681E+01 0.  0.
     999903    2    3    3    0    0  0.96798180921E-01  0.45086206479E-01  0.74537242481E-01  0.13162718480E+00  0.19164065813E-01 0.  0.
         14    1    1    2    0    0 -0.21290987216E-01  0.32591188252E-03  0.10652125099E-01  0.23809244513E-01  0.00000000000E+00 0. -1.
     999901    1    3    3    0    0 -0.75507193706E-01 -0.45412118361E-01 -0.85189367580E-01  0.88849357068E+00  0.88000000000E+00 0. -1.
        -11    1    4    4    0    0  0.67660011982E-01  0.25293818582E-01  0.41373652751E-01  0.83244788082E-01  0.51100000000E-03 0. -1.
         11    1    4    4    0    0  0.29138168939E-01  0.19792387897E-01  0.33163589730E-01  0.48382396722E-01  0.51100000000E-03 0.  1.
</event>
<event>
 8    1  0.1054086E+005  0.1043930E+01  0.7957747E-01            NaN
         13   -1    0    0    0    0  0.00000000000E+00  0.00000000000E+00  0.74505805969E-08  0.10566000000E+00  0.10566000000E+00 0. -1.
     999900   -1    0    0    0    0 -0.00000000000E+00 -0.00000000000E+00 -0.74505805969E-08  0.93827000000E+00  0.93827000000E+00 0. -1.
     999902    2    1    2    0    0  0.11604169603E-01 -0.67483912804E-02 -0.45115476164E-02  0.10297683758E+01  0.10296709942E+01 0.  0.
     999903    2    3    3    0    0  0.97671204961E-02  0.42441893513E-01 -0.13086685270E+00  0.13938153744E+00  0.20108925246E-01 0.  0.
         14    1    1    2    0    0 -0.11604169603E-01  0.67483912804E-02  0.45115476164E-02  0.14161624163E-01  0.00000000000E+00 0. -1.
     999901    1    3    3    0    0  0.18370491068E-02 -0.49190284794E-01  0.12635530509E+00  0.89038683840E+00  0.88000000000E+00 0.  1.
        -11    1    4    4    0    0  0.12214295025E-01  0.11051752723E-01 -0.44918318001E-01  0.47846072506E-01  0.51100000000E-03 0. -1.
         11    1    4    4    0    0 -0.24471745290E-02  0.31390140790E-01 -0.85948534703E-01  0.91535464933E-01  0.51100000000E-03 0.  1.
</event>
<event>
 8    1  0.1054086E+005  0.1043930E+01  0.7957747E-01            NaN
         13   -1    0    0    0    0  0.00000000000E+00  0.00000000000E+00  0.74505805969E-08  0.10566000000E+00  0.10566000000E+00 0. -1.
     999900   -1    0    0    0    0 -0.00000000000E+00 -0.00000000000E+00 -0.74505805969E-08  0.93827000000E+00  0.93827000000E+00 0. -1.
     999902    2    1    2    0    0 -0.10566611002E-01  0.91431660766E-02 -0.18448967232E-01  0.10207866393E+01  0.10205242514E+01 0.  0.
     999903    2    3    3    0    0 -0.44854903557E-01  0.71014675745E-01 -0.10196823712E+00  0.13400637384E+00  0.22475326553E-01 0.  0.
         14    1    1    2    0    0  0.10566611002E-01 -0.91431660766E-02  0.18448967232E-01  0.23143360730E-01  0.00000000000E+00 0. -1.
     999901    1    3    3    0    0  0.34288292556E-01 -0.61871509669E-01  0.83519269889E-01  0.88678026543E+00  0.88000000000E+00 0. -1.
        -11    1    4    4    0    0 -0.26900725256E-01  0.34322335156E-01 -0.36657467616E-01  0.56971069526E-01  0.51100000000E-03 0.  1.
         11    1    4    4    0    0 -0.17954178301E-01  0.36692340589E-01 -0.65310769505E-01  0.77035304313E-01  0.51100000000E-03 0. -1.
</event>
<event>
 8    1  0.1054086E+005  0.1043930E+01  0.7957747E-01            NaN
         13   -1    0    0    0    0  0.00000000000E+00  0.00000000000E+00  0.74505805969E-08  0.10566000000E+00  0.10566000000E+00 0.  1.
     999900   -1    0    0    0    0 -0.00000000000E+00 -0.00000000000E+00 -0.74505805969E-08  0.93827000000E+00  0.93827000000E+00 0. -1.
     999902    2    1    2    0    0 -0.21174020592E-01  0.14724681431E-02  0.71570333266E-02  0.10215306599E+01  0.10212850526E+01 0.  0.
     999903    2    3    3    0    0  0.48911526827E-01 -0.27902524467E-01  0.11704072524E+00  0.13144678752E+00  0.20219749169E-01 0.  0.
         14    1    1    2    0    0  0.21174020592E-01 -0.14724681431E-02 -0.71570333266E-02  0.22399340090E-01  0.00000000000E+00 0.  1.
     999901    1    3    3    0    0 -0.70085547418E-01  0.29374992610E-01 -0.10988369191E+00  0.89008387239E+00  0.88000000000E+00 0. -1.
        -11    1    4    4    0    0  0.30410723548E-01 -0.15490021953E-01  0.47997731985E-01  0.58896487870E-01  0.51100000000E-03 0. -1.
         11    1    4    4    0    0  0.18500803279E-01 -0.12412502515E-01  0.69042993251E-01  0.72550299646E-01  0.51100000000E-03 0.  1.
</event>
<event>
 8    1  0.1054086E+005  0.1043930E+01  0.7957747E-01            NaN
         13   -1    0    0    0    0  0.00000000000E+00  0.00000000000E+00  0.74505805969E-08  0.10566000000E+00  0.10566000000E+00 0.  1.
     999900   -1    0    0    0    0 -0.00000000000E+00 -0.00000000000E+00 -0.74505805969E-08  0.93827000000E+00  0.93827000000E+00 0. -1.
     999902    2    1    2    0    0  0.63909037523E-02 -0.52103040884E-02  0.31639994731E-01  0.10112332083E+01  0.10107044679E+01 0.  0.
     999903    2    3    3    0    0  0.61364786250E-01 -0.33975653488E-02  0.10832443380E+00  0.12618749370E+00  0.20295816452E-01 0.  0.
         14    1    1    2    0    0 -0.63909037523E-02  0.52103040884E-02 -0.31639994731E-01  0.32696791678E-01  0.00000000000E+00 0.  1.
     999901    1    3    3    0    0 -0.54973882498E-01 -0.18127387395E-02 -0.76684439072E-01  0.88504571462E+00  0.88000000000E+00 0. -1.
        -11    1    4    4    0    0  0.36209984337E-01 -0.76437838604E-02  0.79492199917E-01  0.87686152648E-01  0.51100000000E-03 0. -1.
         11    1    4    4    0    0  0.25154801913E-01  0.42462185115E-02  0.28832233885E-01  0.38501341051E-01  0.51100000000E-03 0.  1.
</event>
<event>
 8    1  0.1054086E+005  0.1043930E+01  0.7957747E-01            NaN
         13   -1    0    0    0    0  0.00000000000E+00  0.00000000000E+00  0.74505805969E-08  0.10566000000E+00  0.10566000000E+00 0. -1.
     999900   -1    0    0    0    0 -0.00000000000E+00 -0.00000000000E+00 -0.74505805969E-08  0.93827000000E+00  0.93827000000E+00 0. -1.
     999902    2    1    2    0    0 -0.23047614138E-01  0.48572778289E-02  0.43098322851E-02  0.10199850565E+01  0.10197039547E+01 0.  0.
     999903    2    3    3    0    0 -0.84910213355E-01  0.53236531578E-01 -0.84163171383E-01  0.13206895361E+00  0.17745322316E-01 0.  0.
         14    1    1    2    0    0  0.23047614138E-01 -0.48572778289E-02 -0.43098322851E-02  0.23944943510E-01  0.00000000000E+00 0.  1.
     999901    1    3    3    0    0  0.61862599216E-01 -0.48379253749E-01  0.88473003668E-01  0.88791610288E+00  0.88000000000E+00 0. -1.
        -11    1    4    4    0    0 -0.76277363106E-01  0.41261195473E-01 -0.75228793168E-01  0.11480572641E+00  0.51100000000E-03 0.  1.
         11    1    4    4    0    0 -0.86328502482E-02  0.11975336105E-01 -0.89343782145E-02  0.17263227198E-01  0.51100000000E-03 0. -1.
</event>
<event>
 8    1  0.1054086E+005  0.1043930E+01  0.7957747E-01            NaN
         13   -1    0    0    0    0  0.00000000000E+00  0.00000000000E+00  0.74505805969E-08  0.10566000000E+00  0.10566000000E+00 0.  1.
     999900   -1    0    0    0    0 -0.00000000000E+00 -0.00000000000E+00 -0.74505805969E-08  0.93827000000E+00  0.93827000000E+00 0. -1.
     999902    2    1    2    0    0 -0.22547109092E-01  0.65475226697E-02  0.46716835326E-03  0.10204468054E+01  0.10201765643E+01 0.  0.
     999903    2    3    3    0    0  0.69778125704E-01 -0.85235303095E-01 -0.63149978920E-01  0.12859750340E+00  0.20380243429E-01 0.  0.
         14    1    1    2    0    0  0.22547109092E-01 -0.65475226697E-02 -0.46716835326E-03  0.23483194582E-01  0.00000000000E+00 0.  1.
     999901    1    3    3    0    0 -0.92325234796E-01  0.91782825764E-01  0.63617147274E-01  0.89184930202E+00  0.88000000000E+00 0.  1.
        -11    1    4    4    0    0  0.29191963626E-01 -0.46277129214E-01 -0.39910194209E-01  0.67726126063E-01  0.51100000000E-03 0.  1.
         11    1    4    4    0    0  0.40586162077E-01 -0.38958173881E-01 -0.23239784711E-01  0.60871377335E-01  0.51100000000E-03 0. -1.
</event>
<event>
 8    1  0.1054086E+005  0.1043930E+01  0.7957747E-01            NaN
         13   -1    0    0    0    0  0.00000000000E+00  0.00000000000E+00  0.74505805969E-08  0.10566000000E+00  0.10566000000E+00 0.  1.
     999900   -1    0    0    0    0 -0.00000000000E+00 -0.00000000000E+00 -0.74505805969E-08  0.93827000000E+00  0.93827000000E+00 0. -1.
     999902    2    1    2    0    0 -0.11156029229E-01 -0.13340567054E-01 -0.16007885516E-01  0.10202935850E+01  0.10200197642E+01 0.  0.
     999903    2    3    3    0    0  0.21513374244E-01  0.12186127171E+00  0.27306751150E-01  0.12831657579E+00  0.20161600868E-01 0.  0.
         14    1    1    2    0    0  0.11156029229E-01  0.13340567054E-01  0.16007885516E-01  0.23636415045E-01  0.00000000000E+00 0. -1.
     999901    1    3    3    0    0 -0.32669403473E-01 -0.13520183877E+00 -0.43314636666E-01  0.89197700916E+00  0.88000000000E+00 0. -1.
        -11    1    4    4    0    0  0.22118613444E-01  0.68084986361E-01  0.16199655754E-01  0.73399512233E-01  0.51100000000E-03 0.  1.
         11    1    4    4    0    0 -0.60523920031E-03  0.53776285351E-01  0.11107095396E-01  0.54917063558E-01  0.51100000000E-03 0. -1.
</event>
<event>
 8    1  0.1054086E+005  0.1043930E+01  0.7957747E-01            NaN
         13   -1    0    0    0    0  0.00000000000E+00  0.00000000000E+00  0.74505805969E-08  0.10566000000E+00  0.10566000000E+00 0.  1.
     999900   -1    0    0    0    0 -0.00000000000E+00 -0.00000000000E+00 -0.74505805969E-08  0.93827000000E+00  0.93827000000E+00 0.  1.
     999902    2    1    2    0    0  0.22064502532E-01 -0.27458504820E-03 -0.57705347567E-02  0.10211217396E+01  0.10208669798E+01 0.  0.
     999903    2    3    3    0    0 -0.24162300755E-01  0.90169306894E-01 -0.88452540457E-01  0.13142891120E+00  0.27118003267E-01 0.  0.
         14    1    1    2    0    0 -0.22064502532E-01  0.27458504820E-03  0.57705347567E-02  0.22808260353E-01  0.00000000000E+00 0.  1.
     999901    1    3    3    0    0  0.46226803287E-01 -0.90443891942E-01  0.82682005700E-01  0.88969282845E+00  0.88000000000E+00 0. -1.
        -11    1    4    4    0    0  0.38617545097E-02  0.32506730760E-01 -0.35326310337E-01  0.48164406107E-01  0.51100000000E-03 0.  1.
         11    1    4    4    0    0 -0.28024055265E-01  0.57662576134E-01 -0.53126230120E-01  0.83264505088E-01  0.51100000000E-03 0. -1.
</event>
<event>
 8    1  0.1054086E+005  0.1043930E+01  0.7957747E-01            NaN
         13   -1    0    0    0    0  0.00000000000E+00  0.00000000000E+00  0.74505805969E-08  0.10566000000E+00  0.10566000000E+00 0.  1.
     999900   -1    0    0    0    0 -0.00000000000E+00 -0.00000000000E+00 -0.74505805969E-08  0.93827000000E+00  0.93827000000E+00 0. -1.
     999902    2    1    2    0    0  0.95003864683E-02  0.21560392338E-01 -0.23188358115E-02  0.10202554385E+01  0.10199807229E+01 0.  0.
     999903    2    3    3    0    0 -0.56193195452E-01 -0.99686460207E-01 -0.53700303249E-01  0.12803545381E+00  0.20354097848E-01 0.  0.
         14    1    1    2    0    0 -0.95003864683E-02 -0.21560392338E-01  0.23188358115E-02  0.23674561460E-01  0.00000000000E+00 0.  1.
     999901    1    3    3    0    0  0.65693581920E-01  0.12124685255E+00  0.51381467438E-01  0.89221998473E+00  0.88000000000E+00 0.  1.
        -11    1    4    4    0    0 -0.28019351023E-01 -0.67946915664E-01 -0.38342030138E-01  0.82898973311E-01  0.51100000000E-03 0. -1.
         11    1    4    4    0    0 -0.28173844429E-01 -0.31739544543E-01 -0.15358273111E-01  0.45136480497E-01  0.51100000000E-03 0.  1.
</event>
<event>
 8    1  0.1054086E+005  0.1043930E+01  0.7957747E-01            NaN
         13   -1    0    0    0    0  0.00000000000E+00  0.00000000000E+00  0.74505805969E-08  0.10566000000E+00  0.10566000000E+00 0.  1.
     999900   -1    0    0    0    0 -0.00000000000E+00 -0.00000000000E+00 -0.74505805969E-08  0.93827000000E+00  0.93827000000E+00 0.  1.
     999902    2    1    2    0    0 -0.18220836598E-01  0.50215646225E-02  0.14881301720E-01  0.10198744780E+01  0.10195907428E+01 0.  0.
     999903    2    3    3    0    0  0.12074985932E+00 -0.21339804149E-01  0.32262686771E-01  0.12840945422E+00  0.20302492669E-01 0.  0.
         14    1    1    2    0    0  0.18220836598E-01 -0.50215646225E-02 -0.14881301720E-01  0.24055521996E-01  0.00000000000E+00 0. -1.
     999901    1    3    3    0    0 -0.13897069592E+00  0.26361368772E-01 -0.17381385050E-01  0.89146502379E+00  0.88000000000E+00 0. -1.
        -11    1    4    4    0    0  0.38167223919E-01 -0.11551067494E-01  0.19077680160E-01  0.44208405798E-01  0.51100000000E-03 0. -1.
         11    1    4    4    0    0  0.82582635399E-01 -0.97887366552E-02  0.13185006611E-01  0.84201048420E-01  0.51100000000E-03 0.  1.
</event>
<event>
 8    1  0.1054086E+005  0.1043930E+01  0.7957747E-01            NaN
         13   -1    0    0    0    0  0.00000000000E+00  0.00000000000E+00  0.74505805969E-08  0.10566000000E+00  0.10566000000E+00 0. -1.
     999900   -1    0    0    0    0 -0.00000000000E+00 -0.00000000000E+00 -0.74505805969E-08  0.93827000000E+00  0.93827000000E+00 0. -1.
     999902    2    1    2    0    0 -0.68538821224E-02 -0.23423191932E-01 -0.21551054589E-02  0.10194296714E+01  0.10191352162E+01 0.  0.
     999903    2    3    3    0    0 -0.88007127695E-01  0.29291618342E-01 -0.88716632892E-01  0.12990305658E+00  0.20022730283E-01 0.  0.
         14    1    1    2    0    0  0.68538821224E-02  0.23423191932E-01  0.21551054589E-02  0.24500328569E-01  0.00000000000E+00 0. -1.
     999901    1    3    3    0    0  0.81153245573E-01 -0.52714810274E-01  0.86561527433E-01  0.88952661485E+00  0.88000000000E+00 0.  1.
        -11    1    4    4    0    0 -0.40916675953E-01  0.79687173601E-02 -0.28292594923E-01  0.50382604894E-01  0.51100000000E-03 0. -1.
         11    1    4    4    0    0 -0.47090451742E-01  0.21322900982E-01 -0.60424037969E-01  0.79520451691E-01  0.51100000000E-03 0.  1.
</event>
<event>
 8    1  0.1089850E+005  0.1043930E+01  0.7957747E-01            NaN
         13   -1    0    0    0    0  0.00000000000E+00  0.00000000000E+00  0.74505805969E-08  0.10566000000E+00  0.10566000000E+00 0.  1.
     999900   -1    0    0    0    0 -0.00000000000E+00 -0.00000000000E+00 -0.74505805969E-08  0.93827000000E+00  0.93827000000E+00 0.  1.
     999902    2    1    2    0    0 -0.82427769762E-03 -0.23988394232E-01 -0.18735334303E-02  0.10198544394E+01  0.10195702256E+01 0.  0.
     999903    2    3    3    0    0  0.12782812460E+00 -0.20678531310E-02 -0.14282782328E-01  0.13014328390E+00  0.19722348137E-01 0.  0.
         14    1    1    2    0    0  0.82427769762E-03  0.23988394232E-01  0.18735334303E-02  0.24075560618E-01  0.00000000000E+00 0.  1.
     999901    1    3    3    0    0 -0.12865240230E+00 -0.21920541101E-01  0.12409248898E-01  0.88971115549E+00  0.88000000000E+00 0.  1.
        -11    1    4    4    0    0  0.88629681942E-01 -0.28562197618E-02 -0.80176319500E-03  0.88680789677E-01  0.51100000000E-03 0.  1.
         11    1    4    4    0    0  0.39198442661E-01  0.78836663088E-03 -0.13481019133E-01  0.41462494219E-01  0.51100000000E-03 0. -1.
</event>
<event>
 8    1  0.1054086E+005  0.1043930E+01  0.7957747E-01            NaN
         13   -1    0    0    0    0  0.00000000000E+00  0.00000000000E+00  0.74505805969E-08  0.10566000000E+00  0.10566000000E+00 0. -1.
     999900   -1    0    0    0    0 -0.00000000000E+00 -0.00000000000E+00 -0.74505805969E-08  0.93827000000E+00  0.93827000000E+00 0.  1.
     999902    2    1    2    0    0 -0.70153903953E-02 -0.62247716596E-02  0.21744503506E-01  0.10202490600E+01  0.10199741946E+01 0.  0.
     999903    2    3    3    0    0  0.11907030992E+00 -0.46403029101E-01  0.18740082628E-01  0.13034967093E+00  0.17574589628E-01 0.  0.
         14    1    1    2    0    0  0.70153903953E-02  0.62247716596E-02 -0.21744503506E-01  0.23680939959E-01  0.00000000000E+00 0.  1.
     999901    1    3    3    0    0 -0.12608570031E+00  0.40178257442E-01  0.30044208782E-02  0.88989938911E+00  0.88000000000E+00 0.  1.
        -11    1    4    4    0    0  0.84409666578E-01 -0.24223930114E-01  0.13947440679E-01  0.88918967743E-01  0.51100000000E-03 0. -1.
         11    1    4    4    0    0  0.34660643341E-01 -0.22179098987E-01  0.47926419490E-02  0.41430703187E-01  0.51100000000E-03 0.  1.
</event>
<event>
 8    1  0.1365761E+005  0.1043930E+01  0.7957747E-01            NaN
         13   -1    0    0    0    0  0.00000000000E+00  0.00000000000E+00  0.74505805969E-08  0.10566000000E+00  0.10566000000E+00 0.  1.
     999900   -1    0    0    0    0 -0.00000000000E+00 -0.00000000000E+00 -0.74505805969E-08  0.93827000000E+00  0.93827000000E+00 0. -1.
     999902    2    1    2    0    0 -0.21298145766E-01 -0.83193239661E-02  0.17870466841E-02  0.10209949678E+01  0.10207373358E+01 0.  0.
     999903    2    3    3    0    0 -0.12930552475E+00  0.72226502260E-02  0.27620955032E-01  0.13387911425E+00  0.19713311917E-01 0.  0.
         14    1    1    2    0    0  0.21298145766E-01  0.83193239661E-02 -0.17870466841E-02  0.22935032160E-01  0.00000000000E+00 0.  1.
     999901    1    3    3    0    0  0.10800737899E+00 -0.15541974192E-01 -0.25833908348E-01  0.88711585359E+00  0.88000000000E+00 0. -1.
        -11    1    4    4    0    0 -0.40848716322E-01 -0.68585133004E-02  0.82999590247E-02  0.42246979426E-01  0.51100000000E-03 0.  1.
         11    1    4    4    0    0 -0.88456808430E-01  0.14081163526E-01  0.19320996007E-01  0.91632134820E-01  0.51100000000E-03 0. -1.
</event>
<event>
 8    1  0.1054086E+005  0.1043930E+01  0.7957747E-01            NaN
         13   -1    0    0    0    0  0.00000000000E+00  0.00000000000E+00  0.74505805969E-08  0.10566000000E+00  0.10566000000E+00 0. -1.
     999900   -1    0    0    0    0 -0.00000000000E+00 -0.00000000000E+00 -0.74505805969E-08  0.93827000000E+00  0.93827000000E+00 0.  1.
     999902    2    1    2    0    0  0.22430300875E-01 -0.35389801877E-02  0.16733152985E-03  0.10212216144E+01  0.10209691057E+01 0.  0.
     999903    2    3    3    0    0  0.82235631704E-01  0.13858981867E-01  0.10181754953E+00  0.13318325174E+00  0.20400849297E-01 0.  0.
         14    1    1    2    0    0 -0.22430300875E-01  0.35389801877E-02 -0.16733152985E-03  0.22708385631E-01  0.00000000000E+00 0.  1.
     999901    1    3    3    0    0 -0.59805330828E-01 -0.17397962055E-01 -0.10165021800E+00  0.88803836263E+00  0.88000000000E+00 0.  1.
        -11    1    4    4    0    0  0.65771260159E-01  0.10508906239E-01  0.66765431245E-01  0.94308958766E-01  0.51100000000E-03 0.  1.
         11    1    4    4    0    0  0.16464371545E-01  0.33500756284E-02  0.35052118284E-01  0.38874292975E-01  0.51100000000E-03 0. -1.
</event>
<event>
 8    1  0.1054086E+005  0.1043930E+01  0.7957747E-01            NaN
         13   -1    0    0    0    0  0.00000000000E+00  0.00000000000E+00  0.74505805969E-08  0.10566000000E+00  0.10566000000E+00 0. -1.
     999900   -1    0    0    0    0 -0.00000000000E+00 -0.00000000000E+00 -0.74505805969E-08  0.93827000000E+00  0.93827000000E+00 0.  1.
     999902    2    1    2    0    0  0.22700731758E-01 -0.25888907439E-02 -0.13304232050E-02  0.10210434187E+01  0.10207868863E+01 0.  0.
     999903    2    3    3    0    0  0.31452096333E-01  0.29557296227E-01 -0.12312017644E+00  0.13203120972E+00  0.20268062794E-01 0.  0.
         14    1    1    2    0    0 -0.22700731758E-01  0.25888907439E-02  0.13304232050E-02  0.22886581298E-01  0.00000000000E+00 0.  1.
     999901    1    3    3    0    0 -0.87513645753E-02 -0.32146186971E-01  0.12178975324E+00  0.88901220898E+00  0.88000000000E+00 0. -1.
        -11    1    4    4    0    0  0.27469225478E-01  0.12612647101E-01 -0.75547653254E-01  0.81371655068E-01  0.51100000000E-03 0. -1.
         11    1    4    4    0    0  0.39828708553E-02  0.16944649126E-01 -0.47572523190E-01  0.50659554656E-01  0.51100000000E-03 0.  1.
</event>
<event>
 8    1  0.1054086E+005  0.1043930E+01  0.7957747E-01            NaN
         13   -1    0    0    0    0  0.00000000000E+00  0.00000000000E+00  0.74505805969E-08  0.10566000000E+00  0.10566000000E+00 0.  1.
     999900   -1    0    0    0    0 -0.00000000000E+00 -0.00000000000E+00 -0.74505805969E-08  0.93827000000E+00  0.93827000000E+00 0. -1.
     999902    2    1    2    0    0  0.23179754277E-02 -0.20338540253E-01  0.10688203987E-01  0.10208374269E+01  0.10205762025E+01 0.  0.
     999903    2    3    3    0    0  0.47126255923E-01  0.73488681778E-01 -0.92520107078E-01  0.12872572698E+00  0.19719843452E-01 0.  0.
         14    1    1    2    0    0 -0.23179754277E-02  0.20338540253E-01 -0.10688203987E-01  0.23092573138E-01  0.00000000000E+00 0. -1.
     999901    1    3    3    0    0 -0.44808280496E-01 -0.93827222030E-01  0.10320831106E+00  0.89211169988E+00  0.88000000000E+00 0.  1.
        -11    1    4    4    0    0  0.33551260981E-01  0.57048925188E-01 -0.57255667549E-01  0.87514224935E-01  0.51100000000E-03 0.  1.
         11    1    4    4    0    0  0.13574994942E-01  0.16439756590E-01 -0.35264439529E-01  0.41211502044E-01  0.51100000000E-03 0. -1.
</event>
<event>
 8    1  0.1054086E+005  0.1043930E+01  0.7957747E-01            NaN
         13   -1    0    0    0    0  0.00000000000E+00  0.00000000000E+00  0.74505805969E-08  0.10566000000E+00  0.10566000000E+00 0. -1.
     999900   -1    0    0    0    0 -0.00000000000E+00 -0.00000000000E+00 -0.74505805969E-08  0.93827000000E+00  0.93827000000E+00 0.  1.
     999902    2    1    2    0    0 -0.21193643525E-01  0.30012519547E-02 -0.83943511588E-02  0.10209377585E+01  0.10206788249E+01 0.  0.
     999903    2    3    3    0    0 -0.36589238584E-01  0.12395884117E+00  0.18685101059E-01  0.13211772074E+00  0.20034780984E-01 0.  0.
         14    1    1    2    0    0  0.21193643525E-01 -0.30012519547E-02  0.83943511588E-02  0.22992241529E-01  0.00000000000E+00 0. -1.
     999901    1    3    3    0    0  0.15395595058E-01 -0.12095758921E+00 -0.27079452218E-01  0.88882003773E+00  0.88000000000E+00 0.  1.
        -11    1    4    4    0    0 -0.11628777496E-01  0.72104100964E-01  0.14077124157E-01  0.74381828342E-01  0.51100000000E-03 0.  1.
         11    1    4    4    0    0 -0.24960461088E-01  0.51854740202E-01  0.46079769021E-02  0.57735892400E-01  0.51100000000E-03 0. -1.
</event>
<event>
 8    1  0.1054086E+005  0.1043930E+01  0.7957747E-01            NaN
         13   -1    0    0    0    0  0.00000000000E+00  0.00000000000E+00  0.74505805969E-08  0.10566000000E+00  0.10566000000E+00 0. -1.
     999900   -1    0    0    0    0 -0.00000000000E+00 -0.00000000000E+00 -0.74505805969E-08  0.93827000000E+00  0.93827000000E+00 0. -1.
     999902    2    1    2    0    0  0.53586010999E-02 -0.10089635199E-01 -0.20715077153E-01  0.10202735048E+01  0.10199992131E+01 0.  0.
     999903    2    3    3    0    0  0.56946601853E-01 -0.90482147719E-01  0.71786792171E-01  0.13028424996E+00  0.19766328388E-01 0.  0.
         14    1    1    2    0    0 -0.53586010999E-02  0.10089635199E-01  0.20715077153E-01  0.23656495211E-01  0.00000000000E+00 0. -1.
     999901    1    3    3    0    0 -0.51588000754E-01  0.80392512520E-01 -0.92501869324E-01  0.88998925483E+00  0.88000000000E+00 0.  1.
        -11    1    4    4    0    0  0.44562174579E-01 -0.61454375461E-01  0.59348989596E-01  0.96358659983E-01  0.51100000000E-03 0.  1.
         11    1    4    4    0    0  0.12384427274E-01 -0.29027772257E-01  0.12437802574E-01  0.33925589973E-01  0.51100000000E-03 0. -1.
</event>
<event>
 8    1  0.1054086E+005  0.1043930E+01  0.7957747E-01            NaN
         13   -1    0    0    0    0  0.00000000000E+00  0.00000000000E+00  0.74505805969E-08  0.10566000000E+00  0.10566000000E+00 0. -1.
     999900   -1    0    0    0    0 -0.00000000000E+00 -0.00000000000E+00 -0.74505805969E-08  0.93827000000E+00  0.93827000000E+00 0. -1.
     999902    2    1    2    0    0 -0.23860940765E-01 -0.41636909150E-02  0.32592557821E-04  0.10197084832E+01  0.10194207712E+01 0.  0.
     999903    2    3    3    0    0  0.45877248270E-01  0.90243715031E-02 -0.11835995136E+00  0.12894805831E+00  0.20793327472E-01 0.  0.
         14    1    1    2    0    0  0.23860940765E-01  0.41636909150E-02 -0.32592557821E-04  0.24221516849E-01  0.00000000000E+00 0. -1.
     999901    1    3    3    0    0 -0.69738189035E-01 -0.13188062418E-01  0.11839254392E+00  0.89076042484E+00  0.88000000000E+00 0.  1.
        -11    1    4    4    0    0  0.31319416575E-01 -0.14340548572E-02 -0.90854808734E-01  0.96113577392E-01  0.51100000000E-03 0. -1.
         11    1    4    4    0    0  0.14557831696E-01  0.10458426360E-01 -0.27505142624E-01  0.32834480922E-01  0.51100000000E-03 0.  1.
</event>
<event>
 8    1  0.1054086E+005  0.1043930E+01  0.7957747E-01            NaN
         13   -1    0    0    0    0  0.00000000000E+00  0.00000000000E+00  0.74505805969E-08  0.10566000000E+00  0.10566000000E+00 0.  1.
     999900   -1    0    0    0    0 -0.00000000000E+00 -0.00000000000E+00 -0.74505805969E-08  0.93827000000E+00  0.93827000000E+00 0.  1.
     999902    2    1    2    0    0  0.24693151197E-03  0.20923533157E-01 -0.11290771270E-01  0.10201531892E+01  0.10198760673E+01 0.  0.
     999903    2    3    3    0    0 -0.81686333509E-01  0.95430845202E-01  0.36583640265E-01  0.13192103559E+00  0.16884714918E-01 0.  0.
         14    1    1    2    0    0 -0.24693151197E-03 -0.20923533157E-01  0.11290771270E-01  0.23776810778E-01  0.00000000000E+00 0.  1.
     999901    1    3    3    0    0  0.81933265021E-01 -0.74507312045E-01 -0.47874411535E-01  0.88823215363E+00  0.88000000000E+00 0.  1.
        -11    1    4    4    0    0 -0.53134885405E-01  0.52513942635E-01  0.27317226894E-01  0.79545724110E-01  0.51100000000E-03 0. -1.
         11    1    4    4    0    0 -0.28551448105E-01  0.42916902567E-01  0.92664133711E-02  0.52375311480E-01  0.51100000000E-03 0.  1.
</event>
<event>
 8    1  0.1054086E+005  0.1043930E+01  0.7957747E-01            NaN
         13   -1    0    0    0    0  0.00000000000E+00  0.00000000000E+00  0.74505805969E-08  0.10566000000E+00  0.10566000000E+00 0.  1.
     999900   -1    0    0    0    0 -0.00000000000E+00 -0.00000000000E+00 -0.74505805969E-08  0.93827000000E+00  0.93827000000E+00 0.  1.
     999902    2    1    2    0    0  0.17525910105E-01 -0.77316525194E-02 -0.14060301287E-01  0.10201680967E+01  0.10198913263E+01 0.  0.
     999903    2    3    3    0    0  0.94330477749E-01 -0.78331013862E-01  0.45021234503E-01  0.13203869212E+00  0.19321436139E-01 0.  0.
         14    1    1    2    0    0 -0.17525910105E-01  0.77316525194E-02  0.14060301287E-01  0.23761903290E-01  0.00000000000E+00 0.  1.
     999901    1    3    3    0    0 -0.76804567643E-01  0.70599361343E-01 -0.59081535790E-01  0.88812940459E+00  0.88000000000E+00 0.  1.
        -11    1    4    4    0    0  0.74915407374E-01 -0.62953977410E-01  0.27338977143E-01  0.10160316100E+00  0.51100000000E-03 0. -1.
         11    1    4    4    0    0  0.19415070375E-01 -0.15377036452E-01  0.17682257361E-01  0.30435531112E-01  0.51100000000E-03 0.  1.
</event>
<event>
 8    1  0.1054086E+005  0.1043930E+01  0.7957747E-01            NaN
         13   -1    0    0    0    0  0.00000000000E+00  0.00000000000E+00  0.74505805969E-08  0.10566000000E+00  0.10566000000E+00 0. -1.
     999900   -1    0    0    0    0 -0.00000000000E+00 -0.00000000000E+00 -0.74505805969E-08  0.93827000000E+00  0.93827000000E+00 0.  1.
     999902    2    1    2    0    0  0.16597560437E-01 -0.62881261662E-02 -0.15255640969E-01  0.10205258524E+01  0.10202574485E+01 0.  0.
     999903    2    3    3    0    0 -0.46931391569E-01 -0.12002789728E+00  0.65839728506E-02  0.13066651970E+00  0.20521672244E-01 0.  0.
         14    1    1    2    0    0 -0.16597560437E-01  0.62881261662E-02  0.15255640969E-01  0.23404147592E-01  0.00000000000E+00 0. -1.
     999901    1    3    3    0    0  0.63528952005E-01  0.11373977111E+00 -0.21839613820E-01  0.88985933271E+00  0.88000000000E+00 0. -1.
        -11    1    4    4    0    0 -0.14297007458E-01 -0.21619423808E-01  0.74839548689E-02  0.26982857697E-01  0.51100000000E-03 0. -1.
         11    1    4    4    0    0 -0.32634384111E-01 -0.98408473473E-01 -0.89998201830E-03  0.10368366200E+00  0.51100000000E-03 0.  1.
</event>
<event>
 8    1  0.1054086E+005  0.1043930E+01  0.7957747E-01            NaN
         13   -1    0    0    0    0  0.00000000000E+00  0.00000000000E+00  0.74505805969E-08  0.10566000000E+00  0.10566000000E+00 0. -1.
     999900   -1    0    0    0    0 -0.00000000000E+00 -0.00000000000E+00 -0.74505805969E-08  0.93827000000E+00  0.93827000000E+00 0.  1.
     999902    2    1    2    0    0  0.15510098808E-01  0.12026389766E-01  0.11950953934E-01  0.10209512595E+01  0.10206926333E+01 0.  0.
     999903    2    3    3    0    0 -0.31839943524E-01 -0.78927640694E-01 -0.94360492431E-01  0.12864145577E+00  0.20034149411E-01 0.  0.
         14    1    1    2    0    0 -0.15510098808E-01 -0.12026389766E-01 -0.11950953934E-01  0.22978740518E-01  0.00000000000E+00 0.  1.
     999901    1    3    3    0    0  0.47350042332E-01  0.90954030461E-01  0.10631144636E+00  0.89230980371E+00  0.88000000000E+00 0. -1.
        -11    1    4    4    0    0 -0.31397820867E-01 -0.54925411692E-01 -0.64916509039E-01  0.90647880678E-01  0.51100000000E-03 0.  1.
         11    1    4    4    0    0 -0.44212265714E-03 -0.24002229002E-01 -0.29443983392E-01  0.37993575095E-01  0.51100000000E-03 0. -1.
</event>
<event>
 8    1  0.1114245E+005  0.1043930E+01  0.7957747E-01            NaN
         13   -1    0    0    0    0  0.00000000000E+00  0.00000000000E+00  0.74505805969E-08  0.10566000000E+00  0.10566000000E+00 0. -1.
     999900   -1    0    0    0    0 -0.00000000000E+00 -0.00000000000E+00 -0.74505805969E-08  0.93827000000E+00  0.93827000000E+00 0.  1.
     999902    2    1    2    0    0 -0.18684629397E-01  0.97448505164E-02  0.83498501423E-02  0.10212628986E+01  0.10210113176E+01 0.  0.
     999903    2    3    3    0    0 -0.11921008419E+00 -0.42864846986E-01  0.36606619814E-01  0.13352893377E+00  0.21011717208E-01 0.  0.
         14    1    1    2    0    0  0.18684629397E-01 -0.97448505164E-02 -0.83498501423E-02  0.22667101374E-01  0.00000000000E+00 0.  1.
     999901    1    3    3    0    0  0.10052545479E+00  0.52609697502E-01 -0.28256769672E-01  0.88773396486E+00  0.88000000000E+00 0.  1.
        -11    1    4    4    0    0 -0.69667215215E-01 -0.19503290181E-01  0.30128552434E-01  0.78370211155E-01  0.51100000000E-03 0. -1.
         11    1    4    4    0    0 -0.49542868971E-01 -0.23361556805E-01  0.64780673803E-02  0.55158722612E-01  0.51100000000E-03 0.  1.
</event>
<event>
 8    1  0.1054086E+005  0.1043930E+01  0.7957747E-01            NaN
         13   -1    0    0    0    0  0.00000000000E+00  0.00000000000E+00  0.74505805969E-08  0.10566000000E+00  0.10566000000E+00 0.  1.
     999900   -1    0    0    0    0 -0.00000000000E+00 -0.00000000000E+00 -0.74505805969E-08  0.93827000000E+00  0.93827000000E+00 0.  1.
     999902    2    1    2    0    0  0.13254990525E-01 -0.31633529890E-01  0.18485966833E-02  0.10095818953E+01  0.10089974286E+01 0.  0.
     999903    2    3    3    0    0 -0.73831201638E-01 -0.25265373179E-01  0.89952323064E-01  0.12088238202E+00  0.20778461016E-01 0.  0.
         14    1    1    2    0    0 -0.13254990525E-01  0.31633529890E-01 -0.18485966833E-02  0.34348104705E-01  0.00000000000E+00 0.  1.
     999901    1    3    3    0    0  0.87086192163E-01 -0.63681567107E-02 -0.88103726381E-01  0.88869951327E+00  0.88000000000E+00 0.  1.
        -11    1    4    4    0    0 -0.14310288597E-01 -0.13987657643E-02  0.69116464761E-02  0.15961606542E-01  0.51100000000E-03 0.  1.
         11    1    4    4    0    0 -0.59520913041E-01 -0.23866607415E-01  0.83040676588E-01  0.10492077548E+00  0.51100000000E-03 0. -1.
</event>
<event>
 8    1  0.1054086E+005  0.1043930E+01  0.7957747E-01            NaN
         13   -1    0    0    0    0  0.00000000000E+00  0.00000000000E+00  0.74505805969E-08  0.10566000000E+00  0.10566000000E+00 0. -1.
     999900   -1    0    0    0    0 -0.00000000000E+00 -0.00000000000E+00 -0.74505805969E-08  0.93827000000E+00  0.93827000000E+00 0.  1.
     999902    2    1    2    0    0  0.18388924468E-01 -0.13776377271E-01  0.37711456219E-04  0.10209529998E+01  0.10206944133E+01 0.  0.
     999903    2    3    3    0    0  0.13916684397E-01  0.12246956994E+00  0.31923251432E-01  0.12988642168E+00  0.25669415445E-01 0.  0.
         14    1    1    2    0    0 -0.18388924468E-01  0.13776377271E-01 -0.37711456219E-04  0.22977000151E-01  0.00000000000E+00 0. -1.
     999901    1    3    3    0    0  0.44722400706E-02 -0.13624594721E+00 -0.31885539976E-01  0.89106657817E+00  0.88000000000E+00 0.  1.
        -11    1    4    4    0    0  0.98828888114E-03  0.53995078437E-01  0.19893429228E-02  0.54043166234E-01  0.51100000000E-03 0. -1.
         11    1    4    4    0    0  0.12928395516E-01  0.68474491505E-01  0.29933908510E-01  0.75843255450E-01  0.51100000000E-03 0.  1.
</event>
<event>
 8    1  0.1054086E+005  0.1043930E+01  0.7957747E-01            NaN
         13   -1    0    0    0    0  0.00000000000E+00  0.00000000000E+00  0.74505805969E-08  0.10566000000E+00  0.10566000000E+00 0.  1.
     999900   -1    0    0    0    0 -0.00000000000E+00 -0.00000000000E+00 -0.74505805969E-08  0.93827000000E+00  0.93827000000E+00 0.  1.
     999902    2    1    2    0    0 -0.26482932866E-02 -0.22318117574E-01 -0.11756369988E-01  0.10185661662E+01  0.10182503184E+01 0.  0.
     999903    2    3    3    0    0  0.12440444323E+00 -0.35575378771E-02 -0.28407181720E-01  0.12908788837E+00  0.19172724877E-01 0.  0.
         14    1    1    2    0    0  0.26482932866E-02  0.22318117574E-01  0.11756369988E-01  0.25363833793E-01  0.00000000000E+00 0.  1.
     999901    1    3    3    0    0 -0.12705273652E+00 -0.18760579697E-01  0.16650811732E-01  0.88947827783E+00  0.88000000000E+00 0. -1.
        -11    1    4    4    0    0  0.86417458670E-01 -0.56540557622E-02 -0.28066635074E-01  0.91038138354E-01  0.51100000000E-03 0. -1.
         11    1    4    4    0    0  0.37986984563E-01  0.20965178850E-02 -0.34054664574E-03  0.38049750019E-01  0.51100000000E-03 0.  1.
</event>
<event>
 8    1  0.1054086E+005  0.1043930E+01  0.7957747E-01            NaN
         13   -1    0    0    0    0  0.00000000000E+00  0.00000000000E+00  0.74505805969E-08  0.10566000000E+00  0.10566000000E+00 0. -1.
     999900   -1    0    0    0    0 -0.00000000000E+00 -0.00000000000E+00 -0.74505805969E-08  0.93827000000E+00  0.93827000000E+00 0. -1.
     999902    2    1    2    0    0  0.74520801807E-02 -0.33685929251E-02  0.14612461563E-01  0.10271847036E+01  0.10270482026E+01 0.  0.
     999903    2    3    3    0    0 -0.10052008437E+00  0.69777153615E-01 -0.53244019684E-01  0.13498921463E+00  0.20347577449E-01 0.  0.
         14    1    1    2    0    0 -0.74520801807E-02  0.33685929251E-02 -0.14612461563E-01  0.16745296361E-01  0.00000000000E+00 0.  1.
     999901    1    3    3    0    0  0.10797216455E+00 -0.73145746540E-01  0.67856481246E-01  0.89219548900E+00  0.88000000000E+00 0.  1.
        -11    1    4    4    0    0 -0.68956247119E-01  0.45362549966E-01 -0.45790882514E-01  0.94391689245E-01  0.51100000000E-03 0.  1.
         11    1    4    4    0    0 -0.31563837246E-01  0.24414603649E-01 -0.74531371701E-02  0.40597525389E-01  0.51100000000E-03 0. -1.
</event>
<event>
 8    1  0.1054086E+005  0.1043930E+01  0.7957747E-01            NaN
         13   -1    0    0    0    0  0.00000000000E+00  0.00000000000E+00  0.74505805969E-08  0.10566000000E+00  0.10566000000E+00 0.  1.
     999900   -1    0    0    0    0 -0.00000000000E+00 -0.00000000000E+00 -0.74505805969E-08  0.93827000000E+00  0.93827000000E+00 0.  1.
     999902    2    1    2    0    0  0.10206818454E-01  0.14161943251E-01 -0.16315173819E-01  0.10200359699E+01  0.10197560763E+01 0.  0.
     999903    2    3    3    0    0  0.40884601074E-01  0.87372006628E-01  0.85711779807E-01  0.13059213296E+00  0.20059358098E-01 0.  0.
         14    1    1    2    0    0 -0.10206818454E-01 -0.14161943251E-01  0.16315173819E-01  0.23894030140E-01  0.00000000000E+00 0. -1.
     999901    1    3    3    0    0 -0.30677782620E-01 -0.73210063377E-01 -0.10202695363E+00  0.88944383690E+00  0.88000000000E+00 0.  1.
        -11    1    4    4    0    0  0.33464905451E-01  0.76886723764E-01  0.81824348696E-01  0.11716208153E+00  0.51100000000E-03 0. -1.
         11    1    4    4    0    0  0.74196956224E-02  0.10485282864E-01  0.38874311105E-02  0.13430051433E-01  0.51100000000E-03 0.  1.
</event>
<event>
 8    1  0.1054086E+005  0.1043930E+01  0.7957747E-01            NaN
         13   -1    0    0    0    0  0.00000000000E+00  0.00000000000E+00  0.74505805969E-08  0.10566000000E+00  0.10566000000E+00 0.  1.
     999900   -1    0    0    0    0 -0.00000000000E+00 -0.00000000000E+00 -0.74505805969E-08  0.93827000000E+00  0.93827000000E+00 0. -1.
     999902    2    1    2    0    0 -0.19566359119E-01  0.11114609530E-01  0.13695456150E-02  0.10213855415E+01  0.10211367057E+01 0.  0.
     999903    2    3    3    0    0 -0.48749628765E-01 -0.11333428189E+00  0.39899898112E-01  0.13131600608E+00  0.20753453408E-01 0.  0.
         14    1    1    2    0    0  0.19566359119E-01 -0.11114609530E-01 -0.13695456150E-02  0.22544458506E-01  0.00000000000E+00 0. -1.
     999901    1    3    3    0    0  0.29183269647E-01  0.12444889142E+00 -0.38530352497E-01  0.89006953541E+00  0.88000000000E+00 0. -1.
        -11    1    4    4    0    0 -0.10911534252E-01 -0.36186374406E-01  0.21334576291E-01  0.43404383867E-01  0.51100000000E-03 0.  1.
         11    1    4    4    0    0 -0.37838094513E-01 -0.77147907482E-01  0.18565321822E-01  0.87911622216E-01  0.51100000000E-03 0. -1.
</event>
<event>
 8    1  0.1054086E+005  0.1043930E+01  0.7957747E-01            NaN
         13   -1    0    0    0    0  0.00000000000E+00  0.00000000000E+00  0.74505805969E-08  0.10566000000E+00  0.10566000000E+00 0.  1.
     999900   -1    0    0    0    0 -0.00000000000E+00 -0.00000000000E+00 -0.74505805969E-08  0.93827000000E+00  0.93827000000E+00 0. -1.
     999902    2    1    2    0    0  0.18224939516E-01  0.13179330287E-01 -0.82354568038E-02  0.10199786761E+01  0.10196974227E+01 0.  0.
     999903    2    3    3    0    0 -0.29913126809E-01  0.29872072577E-01  0.11912143871E+00  0.12935209897E+00  0.27475670553E-01 0.  0.
         14    1    1    2    0    0 -0.18224939516E-01 -0.13179330287E-01  0.82354568038E-02  0.23951323887E-01  0.00000000000E+00 0.  1.
     999901    1    3    3    0    0  0.48138066325E-01 -0.16692742290E-01 -0.12735689552E+00  0.89062657714E+00  0.88000000000E+00 0. -1.
        -11    1    4    4    0    0 -0.70200762030E-02  0.10175815797E-01  0.74174181319E-01  0.75199062444E-01  0.51100000000E-03 0. -1.
         11    1    4    4    0    0 -0.22893050606E-01  0.19696256780E-01  0.44947257392E-01  0.54153036529E-01  0.51100000000E-03 0.  1.
</event>
<event>
 8    1  0.1054086E+005  0.1043930E+01  0.7957747E-01            NaN
         13   -1    0    0    0    0  0.00000000000E+00  0.00000000000E+00  0.74505805969E-08  0.10566000000E+00  0.10566000000E+00 0. -1.
     999900   -1    0    0    0    0 -0.00000000000E+00 -0.00000000000E+00 -0.74505805969E-08  0.93827000000E+00  0.93827000000E+00 0.  1.
     999902    2    1    2    0    0  0.14098463814E-01  0.18284181348E-02 -0.18287497201E-01  0.10207666162E+01  0.10205037689E+01 0.  0.
     999903    2    3    3    0    0 -0.27542034089E-01 -0.68406089988E-01 -0.10823040212E+00  0.13242178263E+00  0.19589583524E-01 0.  0.
         14    1    1    2    0    0 -0.14098463814E-01 -0.18284181348E-02  0.18287497201E-01  0.23163383792E-01  0.00000000000E+00 0. -1.
     999901    1    3    3    0    0  0.41640497904E-01  0.70234508123E-01  0.89942904920E-01  0.88834483358E+00  0.88000000000E+00 0. -1.
        -11    1    4    4    0    0 -0.45645290859E-02 -0.37080676937E-01 -0.56160156044E-01  0.67453953004E-01  0.51100000000E-03 0. -1.
         11    1    4    4    0    0 -0.22977505004E-01 -0.31325413051E-01 -0.52070246077E-01  0.64967829628E-01  0.51100000000E-03 0.  1.
</event>
<event>
 8    1  0.1054086E+005  0.1043930E+01  0.7957747E-01            NaN
         13   -1    0    0    0    0  0.00000000000E+00  0.00000000000E+00  0.74505805969E-08  0.10566000000E+00  0.10566000000E+00 0. -1.
     999900   -1    0    0    0    0 -0.00000000000E+00 -0.00000000000E+00 -0.74505805969E-08  0.93827000000E+00  0.93827000000E+00 0. -1.
     999902    2    1    2    0    0 -0.10212227901E-01  0.14420028850E-01  0.16543194773E-01  0.10197245435E+01  0.10194372175E+01 0.  0.
     999903    2    3    3    0    0 -0.28384311911E-02 -0.55704994748E-01 -0.11286985254E+00  0.12746918285E+00  0.19942061896E-01 0.  0.
         14    1    1    2    0    0  0.10212227901E-01 -0.14420028850E-01 -0.16543194773E-01  0.24205456493E-01  0.00000000000E+00 0.  1.
     999901    1    3    3    0    0 -0.73737967098E-02  0.70125023597E-01  0.12941304731E+00  0.89225536066E+00  0.88000000000E+00 0.  1.
        -11    1    4    4    0    0 -0.57233437722E-02 -0.31001239668E-02 -0.11447009808E-01  0.13178110149E-01  0.51100000000E-03 0.  1.
         11    1    4    4    0    0  0.28849125810E-02 -0.52604870781E-01 -0.10142284273E+00  0.11429107270E+00  0.51100000000E-03 0. -1.
</event>
<event>
 8    1  0.1054086E+005  0.1043930E+01  0.7957747E-01            NaN
         13   -1    0    0    0    0  0.00000000000E+00  0.00000000000E+00  0.74505805969E-08  0.10566000000E+00  0.10566000000E+00 0.  1.
     999900   -1    0    0    0    0 -0.00000000000E+00 -0.00000000000E+00 -0.74505805969E-08  0.93827000000E+00  0.93827000000E+00 0.  1.
     999902    2    1    2    0    0 -0.82671093379E-02 -0.20941017687E-01  0.72747946384E-02  0.10202700348E+01  0.10199956617E+01 0.  0.
     999903    2    3    3    0    0  0.66194478848E-01  0.76823106317E-01 -0.75455840457E-01  0.12788743180E+00  0.19445119188E-01 0.  0.
         14    1    1    2    0    0  0.82671093379E-02  0.20941017687E-01 -0.72747946384E-02  0.23659965249E-01  0.00000000000E+00 0. -1.
     999901    1    3    3    0    0 -0.74461588186E-01 -0.97764124004E-01  0.82730635096E-01  0.89238260295E+00  0.88000000000E+00 0. -1.
        -11    1    4    4    0    0  0.20485403041E-01  0.28237731625E-01 -0.15435991381E-01  0.38151699516E-01  0.51100000000E-03 0.  1.
         11    1    4    4    0    0  0.45709075807E-01  0.48585374693E-01 -0.60019849076E-01  0.89735732288E-01  0.51100000000E-03 0. -1.
</event>
<event>
 7    1  0.1054086E+005  0.1043930E+01  0.7957747E-01            NaN
         13   -1    0    0    0    0  0.00000000000E+00  0.00000000000E+00  0.74505805969E-08  0.10566000000E+00  0.10566000000E+00 0.  1.
     999900   -1    0    0    0    0 -0.00000000000E+00 -0.00000000000E+00 -0.74505805969E-08  0.93827000000E+00  0.93827000000E+00 0. -1.
     999902    2    1    2    0    0  0.81807917413E-02 -0.11662216771E-01 -0.20095658816E-01  0.10192973356E+01  0.10189996517E+01 0.  0.
         14    1    1    2    0    0 -0.81807917413E-02  0.11662216771E-01  0.20095658816E-01  0.24632664427E-01  0.00000000000E+00 0.  1.
     999901    1    3    3    0    0  0.11995279402E+00 -0.26177542720E-01 -0.63446120207E-01  0.89078580293E+00  0.88000000000E+00 0.  1.
        -11    1    3    3    0    0 -0.38568406987E-01 -0.20812357467E-02  0.36486074777E-01  0.53135189220E-01  0.51100000000E-03 0.  1.
         11    1    3    3    0    0 -0.73203595286E-01  0.16596561696E-01  0.68643866127E-02  0.75376343421E-01  0.51100000000E-03 0. -1.
</event>
<event>
 8    1  0.1054086E+005  0.1043930E+01  0.7957747E-01            NaN
         13   -1    0    0    0    0  0.00000000000E+00  0.00000000000E+00  0.74505805969E-08  0.10566000000E+00  0.10566000000E+00 0.  1.
     999900   -1    0    0    0    0 -0.00000000000E+00 -0.00000000000E+00 -0.74505805969E-08  0.93827000000E+00  0.93827000000E+00 0. -1.
     999902    2    1    2    0    0  0.12532447739E-01  0.13316727842E-01 -0.13919095153E-01  0.10209487316E+01  0.10206900479E+01 0.  0.
     999903    2    3    3    0    0 -0.90445549842E-01 -0.18874595466E-02 -0.93089092479E-01  0.13128389372E+00  0.19644887965E-01 0.  0.
         14    1    1    2    0    0 -0.12532447739E-01 -0.13316727842E-01  0.13919095153E-01  0.22981268386E-01  0.00000000000E+00 0.  1.
     999901    1    3    3    0    0  0.10297799758E+00  0.15204187389E-01  0.79169997326E-01  0.88966483789E+00  0.88000000000E+00 0.  1.
        -11    1    4    4    0    0 -0.80392645489E-01 -0.80076074978E-02 -0.81023286867E-01  0.11442086070E+00  0.51100000000E-03 0. -1.
         11    1    4    4    0    0 -0.10052904353E-01  0.61201479512E-02 -0.12065805612E-01  0.16863033029E-01  0.51100000000E-03 0.  1.
</event>
<event>
 8    1  0.1054086E+005  0.1043930E+01  0.7957747E-01            NaN
         13   -1    0    0    0    0  0.00000000000E+00  0.00000000000E+00  0.74505805969E-08  0.10566000000E+00  0.10566000000E+00 0.  1.
     999900   -1    0    0    0    0 -0.00000000000E+00 -0.00000000000E+00 -0.74505805969E-08  0.93827000000E+00  0.93827000000E+00 0. -1.
     999902    2    1    2    0    0  0.11766941560E-01 -0.17171848044E-01 -0.10780744805E-01  0.10204873522E+01  0.10202180542E+01 0.  0.
     999903    2    3    3    0    0  0.24580651846E-01  0.26332066014E-01  0.12256486783E+00  0.12928713105E+00  0.19885403772E-01 0.  0.
         14    1    1    2    0    0 -0.11766941560E-01  0.17171848044E-01  0.10780744805E-01  0.23442647834E-01  0.00000000000E+00 0.  1.
     999901    1    3    3    0    0 -0.12813710285E-01 -0.43503914058E-01 -0.13334561263E+00  0.89120022112E+00  0.88000000000E+00 0. -1.
        -11    1    4    4    0    0  0.12123028792E-01  0.30161829567E-02  0.61271053721E-01  0.62533737549E-01  0.51100000000E-03 0.  1.
         11    1    4    4    0    0  0.12457623053E-01  0.23315883057E-01  0.61293814108E-01  0.66753393500E-01  0.51100000000E-03 0. -1.
</event>
<event>
 8    1  0.1054086E+005  0.1043930E+01  0.7957747E-01            NaN
         13   -1    0    0    0    0  0.00000000000E+00  0.00000000000E+00  0.74505805969E-08  0.10566000000E+00  0.10566000000E+00 0.  1.
     999900   -1    0    0    0    0 -0.00000000000E+00 -0.00000000000E+00 -0.74505805969E-08  0.93827000000E+00  0.93827000000E+00 0.  1.
     999902    2    1    2    0    0 -0.76308490205E-03 -0.22120912253E-01  0.73645382428E-02  0.10206029024E+01  0.10203362833E+01 0.  0.
     999903    2    3    3    0    0 -0.21194792607E-01 -0.12931696624E+00  0.18732837647E-01  0.13378968258E+00  0.19407806864E-01 0.  0.
         14    1    1    2    0    0  0.76308490205E-03  0.22120912253E-01 -0.73645382428E-02  0.23327097569E-01  0.00000000000E+00 0. -1.
     999901    1    3    3    0    0  0.20431707705E-01  0.10719605399E+00 -0.11368299404E-01  0.88681321985E+00  0.88000000000E+00 0. -1.
        -11    1    4    4    0    0  0.16232129861E-02 -0.31999029647E-02 -0.17039909320E-02  0.40048602320E-02  0.51100000000E-03 0.  1.
         11    1    4    4    0    0 -0.22818005593E-01 -0.12611706328E+00  0.20436828579E-01  0.12978482235E+00  0.51100000000E-03 0. -1.
</event>
<event>
 7    1  0.1054086E+005  0.1043930E+01  0.7957747E-01            NaN
         13   -1    0    0    0    0  0.00000000000E+00  0.00000000000E+00  0.74505805969E-08  0.10566000000E+00  0.10566000000E+00 0.  1.
     999900   -1    0    0    0    0 -0.00000000000E+00 -0.00000000000E+00 -0.74505805969E-08  0.93827000000E+00  0.93827000000E+00 0.  1.
     999903    2    1    2    0    0  0.15360503795E-01  0.95261653678E-01  0.55632253102E-01  0.11317779986E+00  0.20088281626E-01 0.  0.
         14    1    1    2    0    0 -0.37198603901E-01 -0.21377948700E-01  0.12708107630E-01  0.44746495084E-01  0.00000000000E+00 0.  1.
     999901    1    1    2    0    0  0.21838100106E-01 -0.73883704978E-01 -0.68340360733E-01  0.88600570505E+00  0.88000000000E+00 0.  1.
        -11    1    3    3    0    0  0.15225906920E-01  0.79690685107E-01  0.54113146145E-01  0.97523982902E-01  0.51100000000E-03 0. -1.
         11    1    3    3    0    0  0.13459687514E-03  0.15570968571E-01  0.15191069576E-02  0.15653816963E-01  0.51100000000E-03 0.  1.
</event>
<event>
 8    1  0.1054086E+005  0.1043930E+01  0.7957747E-01            NaN
         13   -1    0    0    0    0  0.00000000000E+00  0.00000000000E+00  0.74505805969E-08  0.10566000000E+00  0.10566000000E+00 0.  1.
     999900   -1    0    0    0    0 -0.00000000000E+00 -0.00000000000E+00 -0.74505805969E-08  0.93827000000E+00  0.93827000000E+00 0.  1.
     999902    2    1    2    0    0  0.22443096670E-01 -0.97209155763E-02 -0.69781802916E-02  0.10184960898E+01  0.10181784722E+01 0.  0.
     999903    2    3    3    0    0  0.80324619812E-01 -0.10192879111E+00 -0.13231971432E-01  0.13176519887E+00  0.18586542446E-01 0.  0.
         14    1    1    2    0    0 -0.22443096670E-01  0.97209155763E-02  0.69781802916E-02  0.25433910198E-01  0.00000000000E+00 0.  1.
     999901    1    3    3    0    0 -0.57881523143E-01  0.92207875533E-01  0.62537911406E-02  0.88673089093E+00  0.88000000000E+00 0.  1.
        -11    1    4    4    0    0  0.43234840250E-01 -0.59169931755E-01  0.14038245633E-02  0.73297776772E-01  0.51100000000E-03 0. -1.
         11    1    4    4    0    0  0.37089779562E-01 -0.42758859354E-01 -0.14635795995E-01  0.58467422097E-01  0.51100000000E-03 0.  1.
</event>
<event>
 8    1  0.1054086E+005  0.1043930E+01  0.7957747E-01            NaN
         13   -1    0    0    0    0  0.00000000000E+00  0.00000000000E+00  0.74505805969E-08  0.10566000000E+00  0.10566000000E+00 0. -1.
     999900   -1    0    0    0    0 -0.00000000000E+00 -0.00000000000E+00 -0.74505805969E-08  0.93827000000E+00  0.93827000000E+00 0. -1.
     999902    2    1    2    0    0 -0.44758296041E-03 -0.16489498944E-03 -0.23841370335E-01  0.10200838586E+01  0.10198050991E+01 0.  0.
     999903    2    3    3    0    0 -0.31898700186E-01  0.10505895481E+00 -0.70509722094E-01  0.13203027552E+00  0.20136079150E-01 0.  0.
         14    1    1    2    0    0  0.44758296041E-03  0.16489498944E-03  0.23841370335E-01  0.23846141414E-01  0.00000000000E+00 0. -1.
     999901    1    3    3    0    0  0.31451117225E-01 -0.10522384980E+00  0.46668351759E-01  0.88805358307E+00  0.88000000000E+00 0.  1.
        -11    1    4    4    0    0 -0.27982198990E-01  0.71859298034E-01 -0.57330450324E-01  0.96092683539E-01  0.51100000000E-03 0. -1.
         11    1    4    4    0    0 -0.39165011955E-02  0.33199656781E-01 -0.13179271770E-01  0.35937591981E-01  0.51100000000E-03 0.  1.
</event>
<event>
 8    1  0.1054086E+005  0.1043930E+01  0.7957747E-01            NaN
         13   -1    0    0    0    0  0.00000000000E+00  0.00000000000E+00  0.74505805969E-08  0.10566000000E+00  0.10566000000E+00 0.  1.
     999900   -1    0    0    0    0 -0.00000000000E+00 -0.00000000000E+00 -0.74505805969E-08  0.93827000000E+00  0.93827000000E+00 0. -1.
     999902    2    1    2    0    0  0.12662939077E-02  0.11198265056E-01  0.20764556014E-01  0.10203043481E+01  0.10200307796E+01 0.  0.
     999903    2    3    3    0    0 -0.30716306441E-01 -0.10738317894E+00 -0.59747831097E-01  0.12813469493E+00  0.19340582285E-01 0.  0.
         14    1    1    2    0    0 -0.12662939077E-02 -0.11198265056E-01 -0.20764556014E-01  0.23625651884E-01  0.00000000000E+00 0. -1.
     999901    1    3    3    0    0  0.31982600348E-01  0.11858144400E+00  0.80512387111E-01  0.89216965318E+00  0.88000000000E+00 0. -1.
        -11    1    4    4    0    0 -0.21444954338E-01 -0.58567802230E-01 -0.23604665483E-01  0.66689690944E-01  0.51100000000E-03 0. -1.
         11    1    4    4    0    0 -0.92713521028E-02 -0.48815376712E-01 -0.36143165614E-01  0.61445003987E-01  0.51100000000E-03 0.  1.
</event>
<event>
 8    1  0.1054086E+005  0.1043930E+01  0.7957747E-01            NaN
         13   -1    0    0    0    0  0.00000000000E+00  0.00000000000E+00  0.74505805969E-08  0.10566000000E+00  0.10566000000E+00 0. -1.
     999900   -1    0    0    0    0 -0.00000000000E+00 -0.00000000000E+00 -0.74505805969E-08  0.93827000000E+00  0.93827000000E+00 0. -1.
     999902    2    1    2    0    0  0.15308813851E-01 -0.15603593179E-02 -0.18491762735E-01  0.10198729887E+01  0.10195892179E+01 0.  0.
     999903    2    3    3    0    0 -0.14798948684E-01 -0.92880067519E-01  0.85303484657E-01  0.12857100855E+00  0.20201582129E-01 0.  0.
         14    1    1    2    0    0 -0.15308813851E-01  0.15603593179E-02  0.18491762735E-01  0.24057011281E-01  0.00000000000E+00 0.  1.
     999901    1    3    3    0    0  0.30107762534E-01  0.91319708202E-01 -0.10379524739E+00  0.89130198017E+00  0.88000000000E+00 0.  1.
        -11    1    4    4    0    0 -0.64557014779E-02 -0.30513953402E-01  0.41437402949E-01  0.51866144236E-01  0.51100000000E-03 0.  1.
         11    1    4    4    0    0 -0.83432472057E-02 -0.62366114117E-01  0.43866081709E-01  0.76704864315E-01  0.51100000000E-03 0. -1.
</event>
<event>
 8    1  0.1054086E+005  0.1043930E+01  0.7957747E-01            NaN
         13   -1    0    0    0    0  0.00000000000E+00  0.00000000000E+00  0.74505805969E-08  0.10566000000E+00  0.10566000000E+00 0.  1.
     999900   -1    0    0    0    0 -0.00000000000E+00 -0.00000000000E+00 -0.74505805969E-08  0.93827000000E+00  0.93827000000E+00 0.  1.
     999902    2    1    2    0    0 -0.21131740456E-01  0.11540407463E-01  0.68617162816E-03  0.10198426114E+01  0.10195581149E+01 0.  0.
     999903    2    3    3    0    0  0.12162195859E+00  0.27922998088E-01 -0.20107237636E-01  0.12794610744E+00  0.19857259868E-01 0.  0.
         14    1    1    2    0    0  0.21131740456E-01 -0.11540407463E-01 -0.68617162816E-03  0.24087388622E-01  0.00000000000E+00 0.  1.
     999901    1    3    3    0    0 -0.14275369905E+00 -0.16382590625E-01  0.20793409265E-01  0.89189650394E+00  0.88000000000E+00 0. -1.
        -11    1    4    4    0    0  0.81913390300E-01  0.12064591776E-01 -0.64174584425E-02  0.83046991390E-01  0.51100000000E-03 0. -1.
         11    1    4    4    0    0  0.39708568293E-01  0.15858406313E-01 -0.13689779194E-01  0.44899116050E-01  0.51100000000E-03 0.  1.
</event>
<event>
 8    1  0.1054086E+005  0.1043930E+01  0.7957747E-01            NaN
         13   -1    0    0    0    0  0.00000000000E+00  0.00000000000E+00  0.74505805969E-08  0.10566000000E+00  0.10566000000E+00 0. -1.
     999900   -1    0    0    0    0 -0.00000000000E+00 -0.00000000000E+00 -0.74505805969E-08  0.93827000000E+00  0.93827000000E+00 0.  1.
     999902    2    1    2    0    0 -0.10247522331E-01 -0.11029187935E-01 -0.17697505091E-01  0.10206951902E+01  0.10204307007E+01 0.  0.
     999903    2    3    3    0    0  0.10780052269E+00 -0.46740009471E-01  0.50655723999E-01  0.12946975988E+00  0.19769551647E-01 0.  0.
         14    1    1    2    0    0  0.10247522331E-01  0.11029187935E-01  0.17697505091E-01  0.23234809809E-01  0.00000000000E+00 0. -1.
     999901    1    3    3    0    0 -0.11804804502E+00  0.35710821536E-01 -0.68353229090E-01  0.89122543031E+00  0.88000000000E+00 0.  1.
        -11    1    4    4    0    0  0.77894294230E-01 -0.24720745306E-01  0.30649697821E-01  0.87282881596E-01  0.51100000000E-03 0. -1.
         11    1    4    4    0    0  0.29906228457E-01 -0.22019264165E-01  0.20006026178E-01  0.42186878284E-01  0.51100000000E-03 0.  1.
</event>
<event>
 8    1  0.1054086E+005  0.1043930E+01  0.7957747E-01            NaN
         13   -1    0    0    0    0  0.00000000000E+00  0.00000000000E+00  0.74505805969E-08  0.10566000000E+00  0.10566000000E+00 0.  1.
     999900   -1    0    0    0    0 -0.00000000000E+00 -0.00000000000E+00 -0.74505805969E-08  0.93827000000E+00  0.93827000000E+00 0. -1.
     999902    2    1    2    0    0  0.20018714561E-01  0.24613898597E-02 -0.15293979759E-01  0.10186176870E+01  0.10183031371E+01 0.  0.
     999903    2    3    3    0    0  0.32687559034E-01 -0.12277788182E+00 -0.17099994791E-01  0.12965838732E+00  0.19390791655E-01 0.  0.
         14    1    1    2    0    0 -0.20018714561E-01 -0.24613898597E-02  0.15293979759E-01  0.25312313004E-01  0.00000000000E+00 0.  1.
     999901    1    3    3    0    0 -0.12668844473E-01  0.12523927168E+00  0.18060150324E-02  0.88895929968E+00  0.88000000000E+00 0.  1.
        -11    1    4    4    0    0  0.29208687191E-01 -0.10302571304E+00 -0.21238824106E-01  0.10917322806E+00  0.51100000000E-03 0. -1.
         11    1    4    4    0    0  0.34788718434E-02 -0.19752168784E-01  0.41388293146E-02  0.20485159264E-01  0.51100000000E-03 0.  1.
</event>
<event>
 8    1  0.1054086E+005  0.1043930E+01  0.7957747E-01            NaN
         13   -1    0    0    0    0  0.00000000000E+00  0.00000000000E+00  0.74505805969E-08  0.10566000000E+00  0.10566000000E+00 0.  1.
     999900   -1    0    0    0    0 -0.00000000000E+00 -0.00000000000E+00 -0.74505805969E-08  0.93827000000E+00  0.93827000000E+00 0.  1.
     999902    2    1    2    0    0  0.31978604686E-01  0.13876916412E-02  0.38392929046E-02  0.10116918702E+01  0.10111780966E+01 0.  0.
     999903    2    3    3    0    0 -0.13164778427E-01 -0.96054601608E-01  0.72439691899E-01  0.12251306907E+00  0.19030114302E-01 0.  0.
         14    1    1    2    0    0 -0.31978604686E-01 -0.13876916412E-02 -0.38392929046E-02  0.32238129843E-01  0.00000000000E+00 0. -1.
     999901    1    3    3    0    0  0.45143383113E-01  0.97442293250E-01 -0.68600398995E-01  0.88917880108E+00  0.88000000000E+00 0.  1.
        -11    1    4    4    0    0 -0.14056812839E-01 -0.50751101636E-01  0.31023013804E-01  0.61122473861E-01  0.51100000000E-03 0. -1.
         11    1    4    4    0    0  0.89203441144E-03 -0.45303499972E-01  0.41416678096E-01  0.61390595213E-01  0.51100000000E-03 0.  1.
</event>
<event>
 7    1  0.1054086E+005  0.1043930E+01  0.7957747E-01            NaN
         13   -1    0    0    0    0  0.00000000000E+00  0.00000000000E+00  0.74505805969E-08  0.10566000000E+00  0.10566000000E+00 0.  1.
     999900   -1    0    0    0    0 -0.00000000000E+00 -0.00000000000E+00 -0.74505805969E-08  0.93827000000E+00  0.93827000000E+00 0.  1.
     999903    2    1    2    0    0 -0.38575497514E-01 -0.29220513547E-01 -0.53790225064E-01  0.74815417881E-01  0.19027638313E-01 0.  0.
         14    1    1    2    0    0  0.60886362859E-02  0.84973210934E-01  0.79703003442E-02  0.85563098096E-01  0.00000000000E+00 0.  1.
     999901    1    1    2    0    0  0.32486861229E-01 -0.55752697387E-01  0.45819924720E-01  0.88355148402E+00  0.88000000000E+00 0. -1.
        -11    1    3    3    0    0 -0.12765611984E-01 -0.19720440485E-01 -0.32121411668E-01  0.39798276732E-01  0.51100000000E-03 0.  1.
         11    1    3    3    0    0 -0.25809885530E-01 -0.95000730617E-02 -0.21668813396E-01  0.35017141149E-01  0.51100000000E-03 0. -1.
</event>
<event>
 8    1  0.1054086E+005  0.1043930E+01  0.7957747E-01            NaN
         13   -1    0    0    0    0  0.00000000000E+00  0.00000000000E+00  0.74505805969E-08  0.10566000000E+00  0.10566000000E+00 0. -1.
     999900   -1    0    0    0    0 -0.00000000000E+00 -0.00000000000E+00 -0.74505805969E-08  0.93827000000E+00  0.93827000000E+00 0. -1.
     999902    2    1    2    0    0 -0.41841977547E-03  0.14175532125E-01  0.20727344909E-01  0.10188153904E+01  0.10185057959E+01 0.  0.
     999903    2    3    3    0    0 -0.26291430572E-01  0.84551181683E-01  0.96835119636E-01  0.13235358184E+00  0.17328836832E-01 0.  0.
         14    1    1    2    0    0  0.41841977547E-03 -0.14175532125E-01 -0.20727344909E-01  0.25114609555E-01  0.00000000000E+00 0.  1.
     999901    1    3    3    0    0  0.25873010797E-01 -0.70375649559E-01 -0.76107774727E-01  0.88646180860E+00  0.88000000000E+00 0. -1.
        -11    1    4    4    0    0 -0.11176818972E-01  0.36724954748E-01  0.54793679854E-01  0.66904798457E-01  0.51100000000E-03 0.  1.
         11    1    4    4    0    0 -0.15114611600E-01  0.47826226935E-01  0.42041439781E-01  0.65448783385E-01  0.51100000000E-03 0. -1.
</event>
<event>
 8    1  0.1054086E+005  0.1043930E+01  0.7957747E-01            NaN
         13   -1    0    0    0    0  0.00000000000E+00  0.00000000000E+00  0.74505805969E-08  0.10566000000E+00  0.10566000000E+00 0.  1.
     999900   -1    0    0    0    0 -0.00000000000E+00 -0.00000000000E+00 -0.74505805969E-08  0.93827000000E+00  0.93827000000E+00 0. -1.
     999902    2    1    2    0    0 -0.19201288629E-01 -0.76802200740E-02  0.13142227773E-01  0.10194270733E+01  0.10191325549E+01 0.  0.
     999903    2    3    3    0    0  0.30714588816E-01  0.11753430730E+00  0.39564901578E-01  0.12877089365E+00  0.16089196814E-01 0.  0.
         14    1    1    2    0    0  0.19201288629E-01  0.76802200740E-02 -0.13142227773E-01  0.24502926687E-01  0.00000000000E+00 0. -1.
     999901    1    3    3    0    0 -0.49915877445E-01 -0.12521452738E+00 -0.26422673805E-01  0.89065617967E+00  0.88000000000E+00 0. -1.
        -11    1    4    4    0    0  0.84536153589E-02  0.54308499822E-01  0.11806850573E-01  0.56218676674E-01  0.51100000000E-03 0. -1.
         11    1    4    4    0    0  0.22260973457E-01  0.63225807482E-01  0.27758051005E-01  0.72552216972E-01  0.51100000000E-03 0.  1.
</event>
<event>
 8    1  0.1054086E+005  0.1043930E+01  0.7957747E-01            NaN
         13   -1    0    0    0    0  0.00000000000E+00  0.00000000000E+00  0.74505805969E-08  0.10566000000E+00  0.10566000000E+00 0. -1.
     999900   -1    0    0    0    0 -0.00000000000E+00 -0.00000000000E+00 -0.74505805969E-08  0.93827000000E+00  0.93827000000E+00 0.  1.
     999902    2    1    2    0    0 -0.79720437654E-02  0.21921230608E-01  0.17217023010E-02  0.10205407270E+01  0.10202726681E+01 0.  0.
     999903    2    3    3    0    0  0.46314663488E-01  0.46362858993E-01 -0.11178148084E+00  0.13125595125E+00  0.20939496899E-01 0.  0.
         14    1    1    2    0    0  0.79720437654E-02 -0.21921230608E-01 -0.17217023010E-02  0.23389273011E-01  0.00000000000E+00 0.  1.
     999901    1    3    3    0    0 -0.54286707253E-01 -0.24441628385E-01  0.11350318314E+00  0.88928477574E+00  0.88000000000E+00 0. -1.
        -11    1    4    4    0    0  0.21727100414E-02  0.63300876089E-02 -0.32907223395E-02  0.74753362851E-02  0.51100000000E-03 0. -1.
         11    1    4    4    0    0  0.44141953447E-01  0.40032771384E-01 -0.10849075850E+00  0.12378061496E+00  0.51100000000E-03 0.  1.
</event>
<event>
 8    1  0.1054086E+005  0.1043930E+01  0.7957747E-01            NaN
         13   -1    0    0    0    0  0.00000000000E+00  0.00000000000E+00  0.74505805969E-08  0.10566000000E+00  0.10566000000E+00 0. -1.
     999900   -1    0    0    0    0 -0.00000000000E+00 -0.00000000000E+00 -0.74505805969E-08  0.93827000000E+00  0.93827000000E+00 0. -1.
     999902    2    1    2    0    0  0.87119804666E-02  0.21046559178E-01 -0.67019017114E-02  0.10201861220E+01  0.10199097763E+01 0.  0.
     999903    2    3    3    0    0  0.75280809520E-01 -0.51091068054E-01 -0.91599193226E-01  0.13066782741E+00  0.20153694548E-01 0.  0.
         14    1    1    2    0    0 -0.87119804666E-02 -0.21046559178E-01  0.67019017114E-02  0.23743878020E-01  0.00000000000E+00 0. -1.
     999901    1    3    3    0    0 -0.66568829054E-01  0.72137627232E-01  0.84897291514E-01  0.88951829457E+00  0.88000000000E+00 0.  1.
        -11    1    4    4    0    0  0.51020809713E-01 -0.22734614562E-01 -0.55605556946E-01  0.78817668116E-01  0.51100000000E-03 0.  1.
         11    1    4    4    0    0  0.24259999808E-01 -0.28356453492E-01 -0.35993636280E-01  0.51850159295E-01  0.51100000000E-03 0. -1.
</event>
<event>
 7    1  0.1054086E+005  0.1043930E+01  0.7957747E-01            NaN
         13   -1    0    0    0    0  0.00000000000E+00  0.00000000000E+00  0.74505805969E-08  0.10566000000E+00  0.10566000000E+00 0. -1.
     999900   -1    0    0    0    0 -0.00000000000E+00 -0.00000000000E+00 -0.74505805969E-08  0.93827000000E+00  0.93827000000E+00 0. -1.
     999903    2    1    2    0    0 -0.75993285078E-01 -0.61613526219E-01 -0.33103959298E-01  0.10486194402E+00  0.18136956564E-01 0.  0.
         14    1    1    2    0    0 -0.22478602088E-01 -0.22747443462E-01  0.37852631796E-01  0.49553561626E-01  0.00000000000E+00 0. -1.
     999901    1    1    2    0    0  0.98471887166E-01  0.84360969681E-01 -0.47486724976E-02  0.88951449435E+00  0.88000000000E+00 0. -1.
        -11    1    3    3    0    0 -0.18185325830E-01 -0.23931875490E-01 -0.14588205989E-01  0.33414332479E-01  0.51100000000E-03 0.  1.
         11    1    3    3    0    0 -0.57807959248E-01 -0.37681650728E-01 -0.18515753309E-01  0.71447611546E-01  0.51100000000E-03 0. -1.
</event>
<event>
 8    1  0.1054086E+005  0.1043930E+01  0.7957747E-01            NaN
         13   -1    0    0    0    0  0.00000000000E+00  0.00000000000E+00  0.74505805969E-08  0.10566000000E+00  0.10566000000E+00 0.  1.
     999900   -1    0    0    0    0 -0.00000000000E+00 -0.00000000000E+00 -0.74505805969E-08  0.93827000000E+00  0.93827000000E+00 0.  1.
     999902    2    1    2    0    0 -0.19754509401E-01 -0.49614231136E-02 -0.12952545731E-01  0.10197923779E+01  0.10195066793E+01 0.  0.
     999903    2    3    3    0    0  0.98097236142E-01 -0.86628557689E-03 -0.81893795505E-01  0.12925394524E+00  0.19395113516E-01 0.  0.
         14    1    1    2    0    0  0.19754509401E-01  0.49614231136E-02  0.12952545731E-01  0.24137622126E-01  0.00000000000E+00 0. -1.
     999901    1    3    3    0    0 -0.11785174554E+00 -0.40951375367E-02  0.68941249775E-01  0.89053843263E+00  0.88000000000E+00 0. -1.
        -11    1    4    4    0    0  0.34459568483E-01  0.88036883080E-02 -0.27022890702E-01  0.44670622682E-01  0.51100000000E-03 0.  1.
         11    1    4    4    0    0  0.63637667659E-01 -0.96699738849E-02 -0.54870904803E-01  0.84583322558E-01  0.51100000000E-03 0. -1.
</event>
<event>
 8    1  0.1054086E+005  0.1043930E+01  0.7957747E-01            NaN
         13   -1    0    0    0    0  0.00000000000E+00  0.00000000000E+00  0.74505805969E-08  0.10566000000E+00  0.10566000000E+00 0.  1.
     999900   -1    0    0    0    0 -0.00000000000E+00 -0.00000000000E+00 -0.74505805969E-08  0.93827000000E+00  0.93827000000E+00 0.  1.
     999902    2    1    2    0    0  0.11037941824E-01  0.17928933554E-01 -0.84364003537E-02  0.10212483848E+01  0.10209964778E+01 0.  0.
     999903    2    3    3    0    0  0.49958316259E-02  0.40291571676E-01 -0.12525149768E+00  0.13322678502E+00  0.20324111133E-01 0.  0.
         14    1    1    2    0    0 -0.11037941824E-01 -0.17928933554E-01  0.84364003537E-02  0.22681615221E-01  0.00000000000E+00 0. -1.
     999901    1    3    3    0    0  0.60421101982E-02 -0.22362638122E-01  0.11681509733E+00  0.88802159976E+00  0.88000000000E+00 0. -1.
        -11    1    4    4    0    0 -0.71684698101E-02  0.88255018273E-02 -0.25524022457E-01  0.27946614917E-01  0.51100000000E-03 0.  1.
         11    1    4    4    0    0  0.12164301436E-01  0.31466069848E-01 -0.99727475223E-01  0.10528017010E+00  0.51100000000E-03 0. -1.
</event>
<event>
 8    1  0.1054086E+005  0.1043930E+01  0.7957747E-01            NaN
         13   -1    0    0    0    0  0.00000000000E+00  0.00000000000E+00  0.74505805969E-08  0.10566000000E+00  0.10566000000E+00 0.  1.
     999900   -1    0    0    0    0 -0.00000000000E+00 -0.00000000000E+00 -0.74505805969E-08  0.93827000000E+00  0.93827000000E+00 0.  1.
     999902    2    1    2    0    0 -0.48265207890E-03  0.56603362071E-02 -0.23529219283E-01  0.10197247006E+01  0.10194373784E+01 0.  0.
     999903    2    3    3    0    0  0.65109104895E-01 -0.30336863720E-01 -0.10949204175E+00  0.13237601838E+00  0.19374782464E-01 0.  0.
         14    1    1    2    0    0  0.48265207890E-03 -0.56603362071E-02  0.23529219283E-01  0.24205299401E-01  0.00000000000E+00 0.  1.
     999901    1    3    3    0    0 -0.65591756974E-01  0.35997199927E-01  0.85962822466E-01  0.88734868222E+00  0.88000000000E+00 0. -1.
        -11    1    4    4    0    0  0.20156267068E-01 -0.18533320085E-01 -0.33167363786E-01  0.43012721339E-01  0.51100000000E-03 0.  1.
         11    1    4    4    0    0  0.44952837827E-01 -0.11803543634E-01 -0.76324677964E-01  0.89363297043E-01  0.51100000000E-03 0. -1.
</event>
<event>
 8    1  0.1054086E+005  0.1043930E+01  0.7957747E-01            NaN
         13   -1    0    0    0    0  0.00000000000E+00  0.00000000000E+00  0.74505805969E-08  0.10566000000E+00  0.10566000000E+00 0. -1.
     999900   -1    0    0    0    0 -0.00000000000E+00 -0.00000000000E+00 -0.74505805969E-08  0.93827000000E+00  0.93827000000E+00 0.  1.
     999902    2    1    2    0    0  0.12653875154E-02  0.23704621827E-01 -0.38827957789E-02  0.10198761769E+01  0.10195924822E+01 0.  0.
     999903    2    3    3    0    0 -0.11110416884E+00  0.52213766833E-01  0.42046499177E-01  0.13108531925E+00  0.18575226749E-01 0.  0.
         14    1    1    2    0    0 -0.12653875154E-02 -0.23704621827E-01  0.38827957789E-02  0.24053823077E-01  0.00000000000E+00 0. -1.
     999901    1    3    3    0    0  0.11236955636E+00 -0.28509145005E-01 -0.45929294956E-01  0.88879085767E+00  0.88000000000E+00 0. -1.
        -11    1    4    4    0    0 -0.41747719301E-01  0.22874088228E-01  0.73578214913E-02  0.48171512715E-01  0.51100000000E-03 0.  1.
         11    1    4    4    0    0 -0.69356449544E-01  0.29339678605E-01  0.34688677685E-01  0.82913806537E-01  0.51100000000E-03 0. -1.
</event>
<event>
 8    1  0.1054086E+005  0.1043930E+01  0.7957747E-01            NaN
         13   -1    0    0    0    0  0.00000000000E+00  0.00000000000E+00  0.74505805969E-08  0.10566000000E+00  0.10566000000E+00 0. -1.
     999900   -1    0    0    0    0 -0.00000000000E+00 -0.00000000000E+00 -0.74505805969E-08  0.93827000000E+00  0.93827000000E+00 0.  1.
     999902    2    1    2    0    0 -0.11911573381E-02  0.19264182524E-01 -0.14839515890E-01  0.10195837720E+01  0.10192930537E+01 0.  0.
     999903    2    3    3    0    0 -0.71818134307E-01 -0.21162706232E-02  0.10450697962E+00  0.12846712443E+00  0.20488295515E-01 0.  0.
         14    1    1    2    0    0  0.11911573381E-02 -0.19264182524E-01  0.14839515890E-01  0.24346227962E-01  0.00000000000E+00 0. -1.
     999901    1    3    3    0    0  0.70626976969E-01  0.21380453148E-01 -0.11934649551E+00  0.89111664761E+00  0.88000000000E+00 0.  1.
        -11    1    4    4    0    0 -0.15265260794E-01  0.79896619076E-02  0.22734552345E-01  0.28530402658E-01  0.51100000000E-03 0. -1.
         11    1    4    4    0    0 -0.56552873514E-01 -0.10105932531E-01  0.81772427276E-01  0.99936721772E-01  0.51100000000E-03 0.  1.
</event>
<event>
 8    1  0.1054086E+005  0.1043930E+01  0.7957747E-01            NaN
         13   -1    0    0    0    0  0.00000000000E+00  0.00000000000E+00  0.74505805969E-08  0.10566000000E+00  0.10566000000E+00 0. -1.
     999900   -1    0    0    0    0 -0.00000000000E+00 -0.00000000000E+00 -0.74505805969E-08  0.93827000000E+00  0.93827000000E+00 0. -1.
     999902    2    1    2    0    0  0.17287929829E-01 -0.11381249192E-01 -0.12029952465E-01  0.10199899685E+01  0.10197089834E+01 0.  0.
     999903    2    3    3    0    0  0.40895054034E-01  0.59279568409E-01 -0.10880949195E+00  0.13155509374E+00  0.16756028046E-01 0.  0.
         14    1    1    2    0    0 -0.17287929829E-01  0.11381249192E-01  0.12029952465E-01  0.23940031480E-01  0.00000000000E+00 0. -1.
     999901    1    3    3    0    0 -0.23607124205E-01 -0.70660817601E-01  0.96779539486E-01  0.88843487478E+00  0.88000000000E+00 0.  1.
        -11    1    4    4    0    0  0.23599692930E-01  0.22608266044E-01 -0.57696704021E-01  0.66311763479E-01  0.51100000000E-03 0. -1.
         11    1    4    4    0    0  0.17295361104E-01  0.36671302365E-01 -0.51112787930E-01  0.65243330264E-01  0.51100000000E-03 0.  1.
</event>
<event>
 8    1  0.1054086E+005  0.1043930E+01  0.7957747E-01            NaN
         13   -1    0    0    0    0  0.00000000000E+00  0.00000000000E+00  0.74505805969E-08  0.10566000000E+00  0.10566000000E+00 0. -1.
     999900   -1    0    0    0    0 -0.00000000000E+00 -0.00000000000E+00 -0.74505805969E-08  0.93827000000E+00  0.93827000000E+00 0. -1.
     999902    2    1    2    0    0  0.10050889051E-01 -0.21854662266E-01  0.15643700189E-02  0.10198241109E+01  0.10195391721E+01 0.  0.
     999903    2    3    3    0    0 -0.59407791106E-01 -0.11474649915E+00 -0.18481105536E-01  0.13198672567E+00  0.19567825110E-01 0.  0.
         14    1    1    2    0    0 -0.10050889051E-01  0.21854662266E-01 -0.15643700189E-02  0.24105889053E-01  0.00000000000E+00 0.  1.
     999901    1    3    3    0    0  0.69458680157E-01  0.92891836883E-01  0.20045475555E-01  0.88783738528E+00  0.88000000000E+00 0.  1.
        -11    1    4    4    0    0 -0.10270388695E-01 -0.14761672609E-01 -0.91644098751E-02  0.20189982454E-01  0.51100000000E-03 0. -1.
         11    1    4    4    0    0 -0.49137402411E-01 -0.99984826541E-01 -0.93166956608E-02  0.11179674321E+00  0.51100000000E-03 0.  1.
</event>
<event>
 8    1  0.1054086E+005  0.1043930E+01  0.7957747E-01            NaN
         13   -1    0    0    0    0  0.00000000000E+00  0.00000000000E+00  0.74505805969E-08  0.10566000000E+00  0.10566000000E+00 0. -1.
     999900   -1    0    0    0    0 -0.00000000000E+00 -0.00000000000E+00 -0.74505805969E-08  0.93827000000E+00  0.93827000000E+00 0. -1.
     999902    2    1    2    0    0  0.23212808157E-01 -0.35143208298E-02  0.19635758245E-02  0.10203707016E+01  0.10200986854E+01 0.  0.
     999903    2    3    3    0    0  0.36701639479E-01 -0.70355945111E-01 -0.10323244208E+00  0.13148603328E+00  0.18294001667E-01 0.  0.
         14    1    1    2    0    0 -0.23212808157E-01  0.35143208298E-02 -0.19635758245E-02  0.23559298450E-01  0.00000000000E+00 0. -1.
     999901    1    3    3    0    0 -0.13488831323E-01  0.66841624281E-01  0.10519601790E+00  0.88888466827E+00  0.88000000000E+00 0.  1.
        -11    1    4    4    0    0  0.32036724854E-01 -0.67718597319E-01 -0.89378868559E-01  0.11662333998E+00  0.51100000000E-03 0.  1.
         11    1    4    4    0    0  0.46649146259E-02 -0.26373477921E-02 -0.13853573519E-01  0.14862693299E-01  0.51100000000E-03 0. -1.
</event>
<event>
 8    1  0.1054086E+005  0.1043930E+01  0.7957747E-01            NaN
         13   -1    0    0    0    0  0.00000000000E+00  0.00000000000E+00  0.74505805969E-08  0.10566000000E+00  0.10566000000E+00 0. -1.
     999900   -1    0    0    0    0 -0.00000000000E+00 -0.00000000000E+00 -0.74505805969E-08  0.93827000000E+00  0.93827000000E+00 0. -1.
     999902    2    1    2    0    0 -0.16278251098E-01  0.91471203781E-02 -0.15058729941E-01  0.10199421569E+01  0.10196600349E+01 0.  0.
     999903    2    3    3    0    0 -0.10151410109E-01  0.28637136018E-01 -0.12743735159E+00  0.13256041631E+00  0.20220007597E-01 0.  0.
         14    1    1    2    0    0  0.16278251098E-01 -0.91471203781E-02  0.15058729941E-01  0.23987843118E-01  0.00000000000E+00 0. -1.
     999901    1    3    3    0    0 -0.61268409892E-02 -0.19490015640E-01  0.11237862165E+00  0.88738174057E+00  0.88000000000E+00 0.  1.
        -11    1    4    4    0    0 -0.16099806620E-01  0.20769763575E-01 -0.10011789104E+00  0.10351057955E+00  0.51100000000E-03 0. -1.
         11    1    4    4    0    0  0.59483965117E-02  0.78673724438E-02 -0.27319460546E-01  0.29049836760E-01  0.51100000000E-03 0.  1.
</event>
<event>
 8    1  0.1054086E+005  0.1043930E+01  0.7957747E-01            NaN
         13   -1    0    0    0    0  0.00000000000E+00  0.00000000000E+00  0.74505805969E-08  0.10566000000E+00  0.10566000000E+00 0.  1.
     999900   -1    0    0    0    0 -0.00000000000E+00 -0.00000000000E+00 -0.74505805969E-08  0.93827000000E+00  0.93827000000E+00 0. -1.
     999902    2    1    2    0    0  0.11846984400E-01 -0.19704735450E-01 -0.95226738284E-02  0.10190440812E+01  0.10187401683E+01 0.  0.
     999903    2    3    3    0    0  0.46358979936E-01  0.88909440555E-01 -0.78784153178E-01  0.12899617821E+00  0.19468630157E-01 0.  0.
         14    1    1    2    0    0 -0.11846984400E-01  0.19704735450E-01  0.95226738284E-02  0.24885918818E-01  0.00000000000E+00 0.  1.
     999901    1    3    3    0    0 -0.34511995535E-01 -0.10861417601E+00  0.69261479349E-01  0.89004790297E+00  0.88000000000E+00 0.  1.
        -11    1    4    4    0    0  0.10809465134E-01  0.41055675116E-01 -0.30443554006E-01  0.52244464752E-01  0.51100000000E-03 0.  1.
         11    1    4    4    0    0  0.35549514802E-01  0.47853765439E-01 -0.48340599172E-01  0.76751713457E-01  0.51100000000E-03 0. -1.
</event>
<event>
 8    1  0.1054086E+005  0.1043930E+01  0.7957747E-01            NaN
         13   -1    0    0    0    0  0.00000000000E+00  0.00000000000E+00  0.74505805969E-08  0.10566000000E+00  0.10566000000E+00 0.  1.
     999900   -1    0    0    0    0 -0.00000000000E+00 -0.00000000000E+00 -0.74505805969E-08  0.93827000000E+00  0.93827000000E+00 0. -1.
     999902    2    1    2    0    0  0.55649763054E-02  0.20938847471E-01  0.13075681901E-01  0.10186243138E+01  0.10183099307E+01 0.  0.
     999903    2    3    3    0    0  0.12619330766E-01 -0.12358724405E+00 -0.12577931492E-01  0.12643842350E+00  0.19885074157E-01 0.  0.
         14    1    1    2    0    0 -0.55649763054E-02 -0.20938847471E-01 -0.13075681901E-01  0.25305686157E-01  0.00000000000E+00 0. -1.
     999901    1    3    3    0    0 -0.70543544611E-02  0.14452609153E+00  0.25653613393E-01  0.89218589034E+00  0.88000000000E+00 0. -1.
        -11    1    4    4    0    0  0.15881568113E-01 -0.65847232188E-01 -0.28954667916E-02  0.67799166967E-01  0.51100000000E-03 0. -1.
         11    1    4    4    0    0 -0.32622373464E-02 -0.57740011867E-01 -0.96824647003E-02  0.58639256532E-01  0.51100000000E-03 0.  1.
</event>
<event>
 8    1  0.1054086E+005  0.1043930E+01  0.7957747E-01            NaN
         13   -1    0    0    0    0  0.00000000000E+00  0.00000000000E+00  0.74505805969E-08  0.10566000000E+00  0.10566000000E+00 0. -1.
     999900   -1    0    0    0    0 -0.00000000000E+00 -0.00000000000E+00 -0.74505805969E-08  0.93827000000E+00  0.93827000000E+00 0.  1.
     999902    2    1    2    0    0  0.22947845768E-02  0.13617258306E-01 -0.19114456358E-01  0.10203491136E+01  0.10200765930E+01 0.  0.
     999903    2    3    3    0    0  0.12466751116E+00  0.32555432253E-01  0.16626360455E-01  0.13096104050E+00  0.16507990732E-01 0.  0.
         14    1    1    2    0    0 -0.22947845768E-02 -0.13617258306E-01  0.19114456358E-01  0.23580886368E-01  0.00000000000E+00 0. -1.
     999901    1    3    3    0    0 -0.12237272659E+00 -0.18938173947E-01 -0.35740816814E-01  0.88938807313E+00  0.88000000000E+00 0. -1.
        -11    1    4    4    0    0  0.23963022115E-01  0.12084873313E-01  0.70341797958E-02  0.27749079233E-01  0.51100000000E-03 0. -1.
         11    1    4    4    0    0  0.10070448905E+00  0.20470558940E-01  0.95921806596E-02  0.10321196127E+00  0.51100000000E-03 0.  1.
</event>
<event>
 8    1  0.1054086E+005  0.1043930E+01  0.7957747E-01            NaN
         13   -1    0    0    0    0  0.00000000000E+00  0.00000000000E+00  0.74505805969E-08  0.10566000000E+00  0.10566000000E+00 0.  1.
     999900   -1    0    0    0    0 -0.00000000000E+00 -0.00000000000E+00 -0.74505805969E-08  0.93827000000E+00  0.93827000000E+00 0. -1.
     999902    2    1    2    0    0 -0.81189137026E-02 -0.39141966142E-02 -0.24209863084E-01  0.10180967817E+01  0.10177689825E+01 0.  0.
     999903    2    3    3    0    0  0.11241533403E-01  0.17196757233E-01  0.12217722787E+00  0.12554444172E+00  0.20298554227E-01 0.  0.
         14    1    1    2    0    0  0.81189137026E-02  0.39141966142E-02  0.24209863084E-01  0.25833218254E-01  0.00000000000E+00 0.  1.
     999901    1    3    3    0    0 -0.19360447105E-01 -0.21110953847E-01 -0.14638709096E+00  0.89255234002E+00  0.88000000000E+00 0. -1.
        -11    1    4    4    0    0  0.19201650904E-02 -0.45227368896E-02  0.15061295399E-01  0.15850738880E-01  0.51100000000E-03 0.  1.
         11    1    4    4    0    0  0.93213683123E-02  0.21719494123E-01  0.10711593247E+00  0.10969370284E+00  0.51100000000E-03 0. -1.
</event>
<event>
 8    1  0.1054086E+005  0.1043930E+01  0.7957747E-01            NaN
         13   -1    0    0    0    0  0.00000000000E+00  0.00000000000E+00  0.74505805969E-08  0.10566000000E+00  0.10566000000E+00 0. -1.
     999900   -1    0    0    0    0 -0.00000000000E+00 -0.00000000000E+00 -0.74505805969E-08  0.93827000000E+00  0.93827000000E+00 0.  1.
     999902    2    1    2    0    0 -0.87159645119E-04  0.14004395870E-01 -0.18289979646E-01  0.10208940703E+01  0.10206341405E+01 0.  0.
     999903    2    3    3    0    0  0.51757901411E-02 -0.66636254896E-01 -0.11221166190E+00  0.13221420919E+00  0.20541683833E-01 0.  0.
         14    1    1    2    0    0  0.87159645119E-04 -0.14004395870E-01  0.18289979646E-01  0.23035929674E-01  0.00000000000E+00 0. -1.
     999901    1    3    3    0    0 -0.52629497863E-02  0.80640650765E-01  0.93921682253E-01  0.88867986114E+00  0.88000000000E+00 0. -1.
        -11    1    4    4    0    0 -0.39728334144E-02 -0.25654014186E-01 -0.28463436919E-01  0.38527136040E-01  0.51100000000E-03 0. -1.
         11    1    4    4    0    0  0.91486235556E-02 -0.40982240710E-01 -0.83748224981E-01  0.93687073148E-01  0.51100000000E-03 0.  1.
</event>
<event>
 8    1  0.1054086E+005  0.1043930E+01  0.7957747E-01            NaN
         13   -1    0    0    0    0  0.00000000000E+00  0.00000000000E+00  0.74505805969E-08  0.10566000000E+00  0.10566000000E+00 0. -1.
     999900   -1    0    0    0    0 -0.00000000000E+00 -0.00000000000E+00 -0.74505805969E-08  0.93827000000E+00  0.93827000000E+00 0.  1.
     999902    2    1    2    0    0 -0.22641500829E-01 -0.67792138176E-02 -0.19225852799E-02  0.10202173107E+01  0.10199416990E+01 0.  0.
     999903    2    3    3    0    0 -0.62492889484E-02 -0.86133877190E-01 -0.97137605379E-01  0.13137999867E+00  0.19154405714E-01 0.  0.
         14    1    1    2    0    0  0.22641500829E-01  0.67792138176E-02  0.19225852799E-02  0.23712689302E-01  0.00000000000E+00 0.  1.
     999901    1    3    3    0    0 -0.16392211880E-01  0.79354663373E-01  0.95215020100E-01  0.88883731203E+00  0.88000000000E+00 0. -1.
        -11    1    4    4    0    0  0.66972452015E-02 -0.30803135075E-01 -0.37753138108E-01  0.49185839239E-01  0.51100000000E-03 0. -1.
         11    1    4    4    0    0 -0.12946534150E-01 -0.55330742116E-01 -0.59384467272E-01  0.82194159426E-01  0.51100000000E-03 0.  1.
</event>
<event>
 8    1  0.1054086E+005  0.1043930E+01  0.7957747E-01            NaN
         13   -1    0    0    0    0  0.00000000000E+00  0.00000000000E+00  0.74505805969E-08  0.10566000000E+00  0.10566000000E+00 0. -1.
     999900   -1    0    0    0    0 -0.00000000000E+00 -0.00000000000E+00 -0.74505805969E-08  0.93827000000E+00  0.93827000000E+00 0.  1.
     999902    2    1    2    0    0  0.18877489245E-01  0.10926735420E-01  0.98779369378E-02  0.10199857567E+01  0.10197046715E+01 0.  0.
     999903    2    3    3    0    0  0.80897658023E-01 -0.61367303202E-02 -0.10052861044E+00  0.13075728840E+00  0.20233052710E-01 0.  0.
         14    1    1    2    0    0 -0.18877489245E-01 -0.10926735420E-01 -0.98779369378E-02  0.23944243260E-01  0.00000000000E+00 0.  1.
     999901    1    3    3    0    0 -0.62020168779E-01  0.17063465741E-01  0.11040654737E+00  0.88922846834E+00  0.88000000000E+00 0. -1.
        -11    1    4    4    0    0  0.38409066539E-01 -0.29329754988E-02 -0.63660764893E-01  0.74409763106E-01  0.51100000000E-03 0. -1.
         11    1    4    4    0    0  0.42488591484E-01 -0.32037548214E-02 -0.36867845542E-01  0.56347525297E-01  0.51100000000E-03 0.  1.
</event>
<event>
 8    1  0.1054086E+005  0.1043930E+01  0.7957747E-01            NaN
         13   -1    0    0    0    0  0.00000000000E+00  0.00000000000E+00  0.74505805969E-08  0.10566000000E+00  0.10566000000E+00 0. -1.
     999900   -1    0    0    0    0 -0.00000000000E+00 -0.00000000000E+00 -0.74505805969E-08  0.93827000000E+00  0.93827000000E+00 0. -1.
     999902    2    1    2    0    0 -0.36287372208E-03  0.82309107560E-02 -0.21882122246E-01  0.10205482370E+01  0.10202803522E+01 0.  0.
     999903    2    3    3    0    0 -0.26824069564E-01  0.10049242153E+00 -0.80971407551E-01  0.13335946060E+00  0.20251404821E-01 0.  0.
         14    1    1    2    0    0  0.36287372208E-03 -0.82309107560E-02  0.21882122246E-01  0.23381763047E-01  0.00000000000E+00 0. -1.
     999901    1    3    3    0    0  0.26461195842E-01 -0.92261510772E-01  0.59089285306E-01  0.88718877636E+00  0.88000000000E+00 0. -1.
        -11    1    4    4    0    0 -0.23335726560E-01  0.58386013460E-01 -0.40126665048E-01  0.74591508034E-01  0.51100000000E-03 0.  1.
         11    1    4    4    0    0 -0.34883430038E-02  0.42106408068E-01 -0.40844742503E-01  0.58767952563E-01  0.51100000000E-03 0. -1.
</event>
<event>
 8    1  0.1054086E+005  0.1043930E+01  0.7957747E-01            NaN
         13   -1    0    0    0    0  0.00000000000E+00  0.00000000000E+00  0.74505805969E-08  0.10566000000E+00  0.10566000000E+00 0. -1.
     999900   -1    0    0    0    0 -0.00000000000E+00 -0.00000000000E+00 -0.74505805969E-08  0.93827000000E+00  0.93827000000E+00 0.  1.
     999902    2    1    2    0    0  0.89416108169E-02 -0.15790113864E-01 -0.15398695978E-01  0.10201308417E+01  0.10198531925E+01 0.  0.
     999903    2    3    3    0    0  0.35649497706E-01  0.10923945908E+00 -0.57390199455E-01  0.12990110070E+00  0.19403990843E-01 0.  0.
         14    1    1    2    0    0 -0.89416108169E-02  0.15790113864E-01  0.15398695978E-01  0.23799158339E-01  0.00000000000E+00 0. -1.
     999901    1    3    3    0    0 -0.26707886889E-01 -0.12502957295E+00  0.41991503477E-01  0.89022974096E+00  0.88000000000E+00 0.  1.
        -11    1    4    4    0    0  0.21573314053E-01  0.39906552759E-01 -0.17094081978E-01  0.48481023009E-01  0.51100000000E-03 0.  1.
         11    1    4    4    0    0  0.14076183654E-01  0.69332906326E-01 -0.40296117477E-01  0.81420077687E-01  0.51100000000E-03 0. -1.
</event>
<event>
 8    1  0.1054086E+005  0.1043930E+01  0.7957747E-01            NaN
         13   -1    0    0    0    0  0.00000000000E+00  0.00000000000E+00  0.74505805969E-08  0.10566000000E+00  0.10566000000E+00 0. -1.
     999900   -1    0    0    0    0 -0.00000000000E+00 -0.00000000000E+00 -0.74505805969E-08  0.93827000000E+00  0.93827000000E+00 0.  1.
     999902    2    1    2    0    0 -0.20193436307E-01  0.34034453297E-02  0.14534407784E-01  0.10188181040E+01  0.10185085772E+01 0.  0.
     999903    2    3    3    0    0  0.91795230045E-01  0.42161138354E-01 -0.73513739367E-01  0.12651989357E+00  0.19977180650E-01 0.  0.
         14    1    1    2    0    0  0.20193436307E-01 -0.34034453297E-02 -0.14534407784E-01  0.25111895978E-01  0.00000000000E+00 0.  1.
     999901    1    3    3    0    0 -0.11198866635E+00 -0.38757693024E-01  0.88048147150E-01  0.89229821045E+00  0.88000000000E+00 0. -1.
        -11    1    4    4    0    0  0.65349969481E-01  0.19716076033E-01 -0.47569072619E-01  0.83201081460E-01  0.51100000000E-03 0. -1.
         11    1    4    4    0    0  0.26445260565E-01  0.22445062321E-01 -0.25944666747E-01  0.43318812109E-01  0.51100000000E-03 0.  1.
</event>
<event>
 8    1  0.1054086E+005  0.1043930E+01  0.7957747E-01            NaN
         13   -1    0    0    0    0  0.00000000000E+00  0.00000000000E+00  0.74505805969E-08  0.10566000000E+00  0.10566000000E+00 0. -1.
     999900   -1    0    0    0    0 -0.00000000000E+00 -0.00000000000E+00 -0.74505805969E-08  0.93827000000E+00  0.93827000000E+00 0. -1.
     999902    2    1    2    0    0 -0.20643625438E-01 -0.12330259744E-03 -0.11217743799E-01  0.10204350590E+01  0.10201645443E+01 0.  0.
     999903    2    3    3    0    0  0.80324233838E-01 -0.88273119629E-01  0.43436651200E-01  0.12860996310E+00  0.20239904929E-01 0.  0.
         14    1    1    2    0    0  0.20643625438E-01  0.12330259744E-03  0.11217743799E-01  0.23494940959E-01  0.00000000000E+00 0.  1.
     999901    1    3    3    0    0 -0.10096785928E+00  0.88149817031E-01 -0.54654394999E-01  0.89182509594E+00  0.88000000000E+00 0.  1.
        -11    1    4    4    0    0  0.62489550334E-01 -0.63962146728E-01  0.40947772364E-01  0.98351824069E-01  0.51100000000E-03 0. -1.
         11    1    4    4    0    0  0.17834683503E-01 -0.24310972901E-01  0.24888788369E-02  0.30258139036E-01  0.51100000000E-03 0.  1.
</event>
<event>
 8    1  0.1054086E+005  0.1043930E+01  0.7957747E-01            NaN
         13   -1    0    0    0    0  0.00000000000E+00  0.00000000000E+00  0.74505805969E-08  0.10566000000E+00  0.10566000000E+00 0.  1.
     999900   -1    0    0    0    0 -0.00000000000E+00 -0.00000000000E+00 -0.74505805969E-08  0.93827000000E+00  0.93827000000E+00 0. -1.
     999902    2    1    2    0    0 -0.36884028176E-02  0.23380941806E-01  0.35418747992E-02  0.10199963912E+01  0.10197155585E+01 0.  0.
     999903    2    3    3    0    0  0.80665225312E-01  0.82221313124E-01  0.61689638885E-01  0.13210062794E+00  0.19435571758E-01 0.  0.
         14    1    1    2    0    0  0.36884028176E-02 -0.23380941806E-01 -0.35418747992E-02  0.23933608842E-01  0.00000000000E+00 0.  1.
     999901    1    3    3    0    0 -0.84353628129E-01 -0.58840371318E-01 -0.58147764085E-01  0.88789576322E+00  0.88000000000E+00 0.  1.
        -11    1    4    4    0    0  0.30776043838E-01  0.44519975386E-01  0.31993032998E-01  0.62872954154E-01  0.51100000000E-03 0. -1.
         11    1    4    4    0    0  0.49889181474E-01  0.37701337738E-01  0.29696605887E-01  0.69227673785E-01  0.51100000000E-03 0.  1.
</event>
<event>
 8    1  0.1054086E+005  0.1043930E+01  0.7957747E-01            NaN
         13   -1    0    0    0    0  0.00000000000E+00  0.00000000000E+00  0.74505805969E-08  0.10566000000E+00  0.10566000000E+00 0. -1.
     999900   -1    0    0    0    0 -0.00000000000E+00 -0.00000000000E+00 -0.74505805969E-08  0.93827000000E+00  0.93827000000E+00 0.  1.
     999902    2    1    2    0    0 -0.75173815719E-02 -0.17217644669E-01  0.14361693755E-01  0.10202822398E+01  0.10200081531E+01 0.  0.
     999903    2    3    3    0    0  0.50213964873E-01 -0.11704051407E+00 -0.27115961782E-01  0.13179030991E+00  0.20334360126E-01 0.  0.
         14    1    1    2    0    0  0.75173815719E-02  0.17217644669E-01 -0.14361693755E-01  0.23647760172E-01  0.00000000000E+00 0.  1.
     999901    1    3    3    0    0 -0.57731346445E-01  0.99822869399E-01  0.41477655537E-01  0.88849192992E+00  0.88000000000E+00 0.  1.
        -11    1    4    4    0    0  0.19576200524E-01 -0.50101800513E-01 -0.14060260330E-02  0.53811300596E-01  0.51100000000E-03 0. -1.
         11    1    4    4    0    0  0.30637764349E-01 -0.66938713554E-01 -0.25709935749E-01  0.77979009316E-01  0.51100000000E-03 0.  1.
</event>
<event>
 8    1  0.1054086E+005  0.1043930E+01  0.7957747E-01            NaN
         13   -1    0    0    0    0  0.00000000000E+00  0.00000000000E+00  0.74505805969E-08  0.10566000000E+00  0.10566000000E+00 0.  1.
     999900   -1    0    0    0    0 -0.00000000000E+00 -0.00000000000E+00 -0.74505805969E-08  0.93827000000E+00  0.93827000000E+00 0.  1.
     999902    2    1    2    0    0  0.98516294141E-02 -0.99559559369E-02 -0.19718486163E-01  0.10197433434E+01  0.10194564689E+01 0.  0.
     999903    2    3    3    0    0 -0.11472249824E+00 -0.11241607437E-01  0.51778732617E-01  0.12809755136E+00  0.20983807381E-01 0.  0.
         14    1    1    2    0    0 -0.98516294141E-02  0.99559559369E-02  0.19718486163E-01  0.24186656596E-01  0.00000000000E+00 0.  1.
     999901    1    3    3    0    0  0.12457412765E+00  0.12856515002E-02 -0.71497218780E-01  0.89164579205E+00  0.88000000000E+00 0.  1.
        -11    1    4    4    0    0 -0.44745990155E-01  0.55239455926E-02  0.17148653619E-01  0.48239558993E-01  0.51100000000E-03 0.  1.
         11    1    4    4    0    0 -0.69976508085E-01 -0.16765553030E-01  0.34630078998E-01  0.79857992365E-01  0.51100000000E-03 0. -1.
</event>
<event>
 8    1  0.1054086E+005  0.1043930E+01  0.7957747E-01            NaN
         13   -1    0    0    0    0  0.00000000000E+00  0.00000000000E+00  0.74505805969E-08  0.10566000000E+00  0.10566000000E+00 0.  1.
     999900   -1    0    0    0    0 -0.00000000000E+00 -0.00000000000E+00 -0.74505805969E-08  0.93827000000E+00  0.93827000000E+00 0. -1.
     999902    2    1    2    0    0 -0.44034706774E-02 -0.84842149736E-02  0.20792206949E-01  0.10210457625E+01  0.10207892832E+01 0.  0.
     999903    2    3    3    0    0  0.11260203123E-01  0.12778428244E+00 -0.76280281198E-02  0.12996654947E+00  0.19429414700E-01 0.  0.
         14    1    1    2    0    0  0.44034706774E-02  0.84842149736E-02 -0.20792206949E-01  0.22884237535E-01  0.00000000000E+00 0. -1.
     999901    1    3    3    0    0 -0.15663673800E-01 -0.13626849742E+00  0.28420235069E-01  0.89107921299E+00  0.88000000000E+00 0.  1.
        -11    1    4    4    0    0 -0.49152693914E-02  0.23073274910E-01 -0.41251814740E-02  0.23954417786E-01  0.51100000000E-03 0. -1.
         11    1    4    4    0    0  0.16175472515E-01  0.10471100753E+00 -0.35028466458E-02  0.10601213169E+00  0.51100000000E-03 0.  1.
</event>
<event>
 8    1  0.1054086E+005  0.1043930E+01  0.7957747E-01            NaN
         13   -1    0    0    0    0  0.00000000000E+00  0.00000000000E+00  0.74505805969E-08  0.10566000000E+00  0.10566000000E+00 0.  1.
     999900   -1    0    0    0    0 -0.00000000000E+00 -0.00000000000E+00 -0.74505805969E-08  0.93827000000E+00  0.93827000000E+00 0.  1.
     999902    2    1    2    0    0  0.14688206499E-01 -0.15508679124E-01 -0.11034606487E-01  0.10198878479E+01  0.10196044317E+01 0.  0.
     999903    2    3    3    0    0 -0.10454696384E+00  0.15352714794E-01 -0.71731486277E-01  0.12924001473E+00  0.19793983499E-01 0.  0.
         14    1    1    2    0    0 -0.14688206499E-01  0.15508679124E-01  0.11034606487E-01  0.24042152121E-01  0.00000000000E+00 0.  1.
     999901    1    3    3    0    0  0.11923517034E+00 -0.30861393917E-01  0.60696879790E-01  0.89064783315E+00  0.88000000000E+00 0.  1.
        -11    1    4    4    0    0 -0.80076887670E-01  0.18607942185E-01 -0.49173250745E-01  0.95795788848E-01  0.51100000000E-03 0.  1.
         11    1    4    4    0    0 -0.24470076174E-01 -0.32552273915E-02 -0.22558235532E-01  0.33444225879E-01  0.51100000000E-03 0. -1.
</event>
<event>
 8    1  0.1054086E+005  0.1043930E+01  0.7957747E-01            NaN
         13   -1    0    0    0    0  0.00000000000E+00  0.00000000000E+00  0.74505805969E-08  0.10566000000E+00  0.10566000000E+00 0.  1.
     999900   -1    0    0    0    0 -0.00000000000E+00 -0.00000000000E+00 -0.74505805969E-08  0.93827000000E+00  0.93827000000E+00 0. -1.
     999902    2    1    2    0    0  0.49821538889E-02  0.11769467955E-01 -0.21512759922E-01  0.10189071890E+01  0.10185998815E+01 0.  0.
     999903    2    3    3    0    0  0.59813236526E-01  0.11348230331E+00  0.14567181458E-01  0.13062023606E+00  0.19839023796E-01 0.  0.
         14    1    1    2    0    0 -0.49821538889E-02 -0.11769467955E-01  0.21512759922E-01  0.25022811048E-01  0.00000000000E+00 0.  1.
     999901    1    3    3    0    0 -0.54831082637E-01 -0.10171283536E+00 -0.36079941380E-01  0.88828695289E+00  0.88000000000E+00 0.  1.
        -11    1    4    4    0    0  0.30527063886E-01  0.43390186983E-01  0.13060326466E-01  0.54639209404E-01  0.51100000000E-03 0.  1.
         11    1    4    4    0    0  0.29286172640E-01  0.70092116330E-01  0.15068549926E-02  0.75981026661E-01  0.51100000000E-03 0. -1.
</event>
<event>
 8    1  0.1054086E+005  0.1043930E+01  0.7957747E-01            NaN
         13   -1    0    0    0    0  0.00000000000E+00  0.00000000000E+00  0.74505805969E-08  0.10566000000E+00  0.10566000000E+00 0.  1.
     999900   -1    0    0    0    0 -0.00000000000E+00 -0.00000000000E+00 -0.74505805969E-08  0.93827000000E+00  0.93827000000E+00 0. -1.
     999902    2    1    2    0    0 -0.18390509263E-01  0.14864344448E-01 -0.20273177543E-02  0.10201966988E+01  0.10199206022E+01 0.  0.
     999903    2    3    3    0    0 -0.71342616692E-01  0.23769939899E-01  0.10644409601E+00  0.13191223825E+00  0.20389066348E-01 0.  0.
         14    1    1    2    0    0  0.18390509263E-01 -0.14864344448E-01  0.20273177543E-02  0.23733301163E-01  0.00000000000E+00 0. -1.
     999901    1    3    3    0    0  0.52952107428E-01 -0.89055954519E-02 -0.10847141376E+00  0.88828446058E+00  0.88000000000E+00 0. -1.
        -11    1    4    4    0    0 -0.43924841478E-01  0.21351957334E-01  0.54932698242E-01  0.73506191835E-01  0.51100000000E-03 0.  1.
         11    1    4    4    0    0 -0.27417775213E-01  0.24179825654E-02  0.51511397767E-01  0.58406046418E-01  0.51100000000E-03 0. -1.
</event>
<event>
 8    1  0.1054086E+005  0.1043930E+01  0.7957747E-01            NaN
         13   -1    0    0    0    0  0.00000000000E+00  0.00000000000E+00  0.74505805969E-08  0.10566000000E+00  0.10566000000E+00 0.  1.
     999900   -1    0    0    0    0 -0.00000000000E+00 -0.00000000000E+00 -0.74505805969E-08  0.93827000000E+00  0.93827000000E+00 0. -1.
     999902    2    1    2    0    0  0.21914501169E-01  0.99786378698E-02  0.14882403984E-01  0.10156226772E+01  0.10152281113E+01 0.  0.
     999903    2    3    3    0    0  0.98583438652E-01 -0.43930239688E-01 -0.64020041702E-01  0.12713526087E+00  0.20402168562E-01 0.  0.
         14    1    1    2    0    0 -0.21914501169E-01 -0.99786378698E-02 -0.14882403984E-01  0.28307322790E-01  0.00000000000E+00 0. -1.
     999901    1    3    3    0    0 -0.76668937484E-01  0.53908877558E-01  0.78902445686E-01  0.88848741634E+00  0.88000000000E+00 0.  1.
        -11    1    4    4    0    0  0.78120423451E-01 -0.43379886134E-01 -0.52555122360E-01  0.10366733858E+00  0.51100000000E-03 0.  1.
         11    1    4    4    0    0  0.20463015201E-01 -0.55035355402E-03 -0.11464919341E-01  0.23467922291E-01  0.51100000000E-03 0. -1.
</event>
<event>
 8    1  0.1054086E+005  0.1043930E+01  0.7957747E-01            NaN
         13   -1    0    0    0    0  0.00000000000E+00  0.00000000000E+00  0.74505805969E-08  0.10566000000E+00  0.10566000000E+00 0. -1.
     999900   -1    0    0    0    0 -0.00000000000E+00 -0.00000000000E+00 -0.74505805969E-08  0.93827000000E+00  0.93827000000E+00 0. -1.
     999902    2    1    2    0    0 -0.13896881125E-02 -0.59066348526E-02  0.21489537508E-01  0.10216002040E+01  0.10213561362E+01 0.  0.
     999903    2    3    3    0    0  0.54293984568E-01 -0.11851185908E+00  0.15067386935E-01  0.13265596953E+00  0.19434057753E-01 0.  0.
         14    1    1    2    0    0  0.13896881125E-02  0.59066348526E-02 -0.21489537508E-01  0.22329796028E-01  0.00000000000E+00 0.  1.
     999901    1    3    3    0    0 -0.55683672681E-01  0.11260522423E+00  0.64221505734E-02  0.88894423444E+00  0.88000000000E+00 0.  1.
        -11    1    4    4    0    0  0.45701490038E-01 -0.91273635157E-01  0.44286804191E-02  0.10217326949E+00  0.51100000000E-03 0.  1.
         11    1    4    4    0    0  0.85924945302E-02 -0.27238223922E-01  0.10638706516E-01  0.30482700044E-01  0.51100000000E-03 0. -1.
</event>
<event>
 8    1  0.1054086E+005  0.1043930E+01  0.7957747E-01            NaN
         13   -1    0    0    0    0  0.00000000000E+00  0.00000000000E+00  0.74505805969E-08  0.10566000000E+00  0.10566000000E+00 0. -1.
     999900   -1    0    0    0    0 -0.00000000000E+00 -0.00000000000E+00 -0.74505805969E-08  0.93827000000E+00  0.93827000000E+00 0. -1.
     999902    2    1    2    0    0  0.38805200523E-02  0.36865423515E-02 -0.22669944321E-01  0.10206367519E+01  0.10203709149E+01 0.  0.
     999903    2    3    3    0    0 -0.69604326902E-01  0.27863392881E-01 -0.10818753290E+00  0.13311334334E+00  0.19836554988E-01 0.  0.
         14    1    1    2    0    0 -0.38805200523E-02 -0.36865423515E-02  0.22669944321E-01  0.23293248075E-01  0.00000000000E+00 0. -1.
     999901    1    3    3    0    0  0.73484846954E-01 -0.24176850529E-01  0.85517588577E-01  0.88752340859E+00  0.88000000000E+00 0.  1.
        -11    1    4    4    0    0 -0.27954369317E-01  0.42100477488E-02 -0.52737428774E-01  0.59838689663E-01  0.51100000000E-03 0. -1.
         11    1    4    4    0    0 -0.41649957586E-01  0.23653345132E-01 -0.55450104124E-01  0.73274653675E-01  0.51100000000E-03 0.  1.
</event>
<event>
 8    1  0.1054086E+005  0.1043930E+01  0.7957747E-01            NaN
         13   -1    0    0    0    0  0.00000000000E+00  0.00000000000E+00  0.74505805969E-08  0.10566000000E+00  0.10566000000E+00 0.  1.
     999900   -1    0    0    0    0 -0.00000000000E+00 -0.00000000000E+00 -0.74505805969E-08  0.93827000000E+00  0.93827000000E+00 0.  1.
     999902    2    1    2    0    0 -0.19844618843E-01 -0.89659261941E-02 -0.96262799004E-02  0.10201211362E+01  0.10198432578E+01 0.  0.
     999903    2    3    3    0    0 -0.74605051831E-01 -0.10736784942E+00 -0.11897232962E-01  0.13294201071E+00  0.20934784741E-01 0.  0.
         14    1    1    2    0    0  0.19844618843E-01  0.89659261941E-02  0.96262799004E-02  0.23808863775E-01  0.00000000000E+00 0.  1.
     999901    1    3    3    0    0  0.54760432988E-01  0.98401923228E-01  0.22709530617E-02  0.88717912551E+00  0.88000000000E+00 0. -1.
        -11    1    4    4    0    0 -0.47788050917E-01 -0.72754475685E-01  0.17841375486E-02  0.87065238818E-01  0.51100000000E-03 0. -1.
         11    1    4    4    0    0 -0.26817000915E-01 -0.34613373737E-01 -0.13681370511E-01  0.45876771895E-01  0.51100000000E-03 0.  1.
</event>
<event>
 8    1  0.1054086E+005  0.1043930E+01  0.7957747E-01            NaN
         13   -1    0    0    0    0  0.00000000000E+00  0.00000000000E+00  0.74505805969E-08  0.10566000000E+00  0.10566000000E+00 0. -1.
     999900   -1    0    0    0    0 -0.00000000000E+00 -0.00000000000E+00 -0.74505805969E-08  0.93827000000E+00  0.93827000000E+00 0.  1.
     999902    2    1    2    0    0  0.23121057440E-01  0.60040457250E-02  0.63949355341E-02  0.10192009268E+01  0.10189008794E+01 0.  0.
     999903    2    3    3    0    0  0.41799064276E-01  0.27510734532E-01  0.11988477059E+00  0.13145583483E+00  0.20106615886E-01 0.  0.
         14    1    1    2    0    0 -0.23121057440E-01 -0.60040457250E-02 -0.63949355341E-02  0.24729073228E-01  0.00000000000E+00 0.  1.
     999901    1    3    3    0    0 -0.18678006836E-01 -0.21506688807E-01 -0.11348983506E+00  0.88774509194E+00  0.88000000000E+00 0.  1.
        -11    1    4    4    0    0  0.95961643599E-02  0.16083207756E-01  0.55289614066E-01  0.58377722521E-01  0.51100000000E-03 0.  1.
         11    1    4    4    0    0  0.32202899916E-01  0.11427526776E-01  0.64595156527E-01  0.73078112311E-01  0.51100000000E-03 0. -1.
</event>
<event>
 8    1  0.1054086E+005  0.1043930E+01  0.7957747E-01            NaN
         13   -1    0    0    0    0  0.00000000000E+00  0.00000000000E+00  0.74505805969E-08  0.10566000000E+00  0.10566000000E+00 0. -1.
     999900   -1    0    0    0    0 -0.00000000000E+00 -0.00000000000E+00 -0.74505805969E-08  0.93827000000E+00  0.93827000000E+00 0. -1.
     999902    2    1    2    0    0 -0.91440067971E-02 -0.52753916937E-02 -0.21497414619E-01  0.10199804394E+01  0.10196992279E+01 0.  0.
     999903    2    3    3    0    0  0.23130257383E-01  0.95711923845E-01 -0.84339704641E-01  0.13139210983E+00  0.21328843697E-01 0.  0.
         14    1    1    2    0    0  0.91440067971E-02  0.52753916937E-02  0.21497414619E-01  0.23949560604E-01  0.00000000000E+00 0.  1.
     999901    1    3    3    0    0 -0.32274264180E-01 -0.10098731554E+00  0.62842290022E-01  0.88858832957E+00  0.88000000000E+00 0.  1.
        -11    1    4    4    0    0  0.12866395481E-01  0.58222682626E-01 -0.37157103560E-01  0.70259066111E-01  0.51100000000E-03 0. -1.
         11    1    4    4    0    0  0.10263861902E-01  0.37489241219E-01 -0.47182601081E-01  0.61133043717E-01  0.51100000000E-03 0.  1.
</event>
<event>
 8    1  0.1054086E+005  0.1043930E+01  0.7957747E-01            NaN
         13   -1    0    0    0    0  0.00000000000E+00  0.00000000000E+00  0.74505805969E-08  0.10566000000E+00  0.10566000000E+00 0. -1.
     999900   -1    0    0    0    0 -0.00000000000E+00 -0.00000000000E+00 -0.74505805969E-08  0.93827000000E+00  0.93827000000E+00 0.  1.
     999902    2    1    2    0    0 -0.86893294228E-02 -0.12598374119E-01 -0.17067985043E-01  0.10210053497E+01  0.10207479535E+01 0.  0.
     999903    2    3    3    0    0 -0.81392176136E-01  0.64335244680E-01 -0.79880229316E-01  0.13243916557E+00  0.19888979262E-01 0.  0.
         14    1    1    2    0    0  0.86893294228E-02  0.12598374119E-01  0.17067985043E-01  0.22924650263E-01  0.00000000000E+00 0. -1.
     999901    1    3    3    0    0  0.72702846713E-01 -0.76933618798E-01  0.62812244272E-01  0.88856618417E+00  0.88000000000E+00 0. -1.
        -11    1    4    4    0    0 -0.54816878860E-01  0.32509062372E-01 -0.54212597119E-01  0.83671955586E-01  0.51100000000E-03 0. -1.
         11    1    4    4    0    0 -0.26575297276E-01  0.31826182308E-01 -0.25667632197E-01  0.48767209979E-01  0.51100000000E-03 0.  1.
</event>
<event>
 8    1  0.1054086E+005  0.1043930E+01  0.7957747E-01            NaN
         13   -1    0    0    0    0  0.00000000000E+00  0.00000000000E+00  0.74505805969E-08  0.10566000000E+00  0.10566000000E+00 0.  1.
     999900   -1    0    0    0    0 -0.00000000000E+00 -0.00000000000E+00 -0.74505805969E-08  0.93827000000E+00  0.93827000000E+00 0. -1.
     999902    2    1    2    0    0  0.12202859494E-01  0.18018834307E-01 -0.90659173929E-02  0.10203550339E+01  0.10200826516E+01 0.  0.
     999903    2    3    3    0    0 -0.38873596109E-01 -0.10474153361E+00 -0.61051636781E-01  0.12884988680E+00  0.19825378575E-01 0.  0.
         14    1    1    2    0    0 -0.12202859494E-01 -0.18018834307E-01  0.90659173929E-02  0.23574966125E-01  0.00000000000E+00 0.  1.
     999901    1    3    3    0    0  0.51076455603E-01  0.12276036792E+00  0.51985719388E-01  0.89150514708E+00  0.88000000000E+00 0.  1.
        -11    1    4    4    0    0 -0.28765257538E-01 -0.51032748330E-01 -0.27481066722E-01  0.64708976136E-01  0.51100000000E-03 0.  1.
         11    1    4    4    0    0 -0.10108338571E-01 -0.53708785282E-01 -0.33570570059E-01  0.64140910660E-01  0.51100000000E-03 0. -1.
</event>
<event>
 8    1  0.1054086E+005  0.1043930E+01  0.7957747E-01            NaN
         13   -1    0    0    0    0  0.00000000000E+00  0.00000000000E+00  0.74505805969E-08  0.10566000000E+00  0.10566000000E+00 0.  1.
     999900   -1    0    0    0    0 -0.00000000000E+00 -0.00000000000E+00 -0.74505805969E-08  0.93827000000E+00  0.93827000000E+00 0. -1.
     999902    2    1    2    0    0 -0.55324093299E-02  0.14637547376E-01 -0.17476024813E-01  0.10204720208E+01  0.10202023664E+01 0.  0.
     999903    2    3    3    0    0  0.61372077640E-01  0.98735042782E-01 -0.58185730047E-01  0.13300039914E+00  0.28078219355E-01 0.  0.
         14    1    1    2    0    0  0.55324093299E-02 -0.14637547376E-01  0.17476024813E-01  0.23457979228E-01  0.00000000000E+00 0.  1.
     999901    1    3    3    0    0 -0.66904486970E-01 -0.84097495405E-01  0.40709705233E-01  0.88747162164E+00  0.88000000000E+00 0.  1.
        -11    1    4    4    0    0  0.26009531615E-01  0.19320290998E-01 -0.19753339156E-01  0.37950295228E-01  0.51100000000E-03 0.  1.
         11    1    4    4    0    0  0.35362546025E-01  0.79414751784E-01 -0.38432390891E-01  0.95050103908E-01  0.51100000000E-03 0. -1.
</event>
<event>
 8    1  0.1054086E+005  0.1043930E+01  0.7957747E-01            NaN
         13   -1    0    0    0    0  0.00000000000E+00  0.00000000000E+00  0.74505805969E-08  0.10566000000E+00  0.10566000000E+00 0.  1.
     999900   -1    0    0    0    0 -0.00000000000E+00 -0.00000000000E+00 -0.74505805969E-08  0.93827000000E+00  0.93827000000E+00 0.  1.
     999902    2    1    2    0    0 -0.17380868621E-01 -0.81393137239E-02 -0.13913697147E-01  0.10202248531E+01  0.10199494188E+01 0.  0.
     999903    2    3    3    0    0 -0.51620468795E-01  0.56293950753E-01 -0.10633200205E+00  0.13238188337E+00  0.19615980596E-01 0.  0.
         14    1    1    2    0    0  0.17380868621E-01  0.81393137239E-02  0.13913697147E-01  0.23705146914E-01  0.00000000000E+00 0. -1.
     999901    1    3    3    0    0  0.34239600173E-01 -0.64433264477E-01  0.92418304904E-01  0.88784296972E+00  0.88000000000E+00 0. -1.
        -11    1    4    4    0    0 -0.92734602347E-02  0.82532234810E-02 -0.71933193991E-02  0.14356800741E-01  0.51100000000E-03 0. -1.
         11    1    4    4    0    0 -0.42347008560E-01  0.48040727272E-01 -0.99138682652E-01  0.11802508263E+00  0.51100000000E-03 0.  1.
</event>
<event>
 8    1  0.1054086E+005  0.1043930E+01  0.7957747E-01            NaN
         13   -1    0    0    0    0  0.00000000000E+00  0.00000000000E+00  0.74505805969E-08  0.10566000000E+00  0.10566000000E+00 0. -1.
     999900   -1    0    0    0    0 -0.00000000000E+00 -0.00000000000E+00 -0.74505805969E-08  0.93827000000E+00  0.93827000000E+00 0.  1.
     999902    2    1    2    0    0  0.15266113596E-01  0.45899097272E-02 -0.17341092430E-01  0.10203750646E+01  0.10201031504E+01 0.  0.
     999903    2    3    3    0    0 -0.26937014860E-01  0.53915271134E-01 -0.11626296180E+00  0.13245635684E+00  0.19878404079E-01 0.  0.
         14    1    1    2    0    0 -0.15266113596E-01 -0.45899097272E-02  0.17341092430E-01  0.23554935412E-01  0.00000000000E+00 0. -1.
     999901    1    3    3    0    0  0.42203128456E-01 -0.49325361407E-01  0.98921869374E-01  0.88791870775E+00  0.88000000000E+00 0. -1.
        -11    1    4    4    0    0 -0.62027540755E-02  0.30689792224E-01 -0.70062530067E-01  0.76742144518E-01  0.51100000000E-03 0.  1.
         11    1    4    4    0    0 -0.20734260785E-01  0.23225478910E-01 -0.46200431737E-01  0.55714212321E-01  0.51100000000E-03 0. -1.
</event>
<event>
 8    1  0.1054086E+005  0.1043930E+01  0.7957747E-01            NaN
         13   -1    0    0    0    0  0.00000000000E+00  0.00000000000E+00  0.74505805969E-08  0.10566000000E+00  0.10566000000E+00 0.  1.
     999900   -1    0    0    0    0 -0.00000000000E+00 -0.00000000000E+00 -0.74505805969E-08  0.93827000000E+00  0.93827000000E+00 0.  1.
     999902    2    1    2    0    0  0.85446010960E-02 -0.89432864504E-02  0.18559330373E-01  0.10216266073E+01  0.10213831228E+01 0.  0.
     999903    2    3    3    0    0  0.15924763064E-01  0.12016877438E+00  0.47685598753E-01  0.13169810990E+00  0.19399572376E-01 0.  0.
         14    1    1    2    0    0 -0.85446010960E-02  0.89432864504E-02 -0.18559330373E-01  0.22303392664E-01  0.00000000000E+00 0. -1.
     999901    1    3    3    0    0 -0.73801619679E-02 -0.12911206083E+00 -0.29126268380E-01  0.88992849744E+00  0.88000000000E+00 0.  1.
        -11    1    4    4    0    0  0.16875988985E-01  0.89583448171E-01  0.28223560558E-01  0.95429679251E-01  0.51100000000E-03 0.  1.
         11    1    4    4    0    0 -0.95122592143E-03  0.30585326206E-01  0.19462038195E-01  0.36268430647E-01  0.51100000000E-03 0. -1.
</event>
<event>
 8    1  0.1054086E+005  0.1043930E+01  0.7957747E-01            NaN
         13   -1    0    0    0    0  0.00000000000E+00  0.00000000000E+00  0.74505805969E-08  0.10566000000E+00  0.10566000000E+00 0.  1.
     999900   -1    0    0    0    0 -0.00000000000E+00 -0.00000000000E+00 -0.74505805969E-08  0.93827000000E+00  0.93827000000E+00 0.  1.
     999902    2    1    2    0    0  0.19043041665E-01  0.51170545702E-02 -0.22360865194E-01  0.10141167483E+01  0.10136784250E+01 0.  0.
     999903    2    3    3    0    0  0.95886620940E-01  0.70596815416E-02  0.77992250046E-01  0.12508387086E+00  0.17863384420E-01 0.  0.
         14    1    1    2    0    0 -0.19043041665E-01 -0.51170545702E-02  0.22360865194E-01  0.29813251677E-01  0.00000000000E+00 0.  1.
     999901    1    3    3    0    0 -0.76843579275E-01 -0.19426269714E-02 -0.10035311524E+00  0.88903287746E+00  0.88000000000E+00 0.  1.
        -11    1    4    4    0    0  0.34325690265E-01  0.83734146720E-02  0.36683679037E-01  0.50934472749E-01  0.51100000000E-03 0.  1.
         11    1    4    4    0    0  0.61560930675E-01 -0.13137331304E-02  0.41308571008E-01  0.74149398110E-01  0.51100000000E-03 0. -1.
</event>
<event>
 7    1  0.1054086E+005  0.1043930E+01  0.7957747E-01            NaN
         13   -1    0    0    0    0  0.00000000000E+00  0.00000000000E+00  0.74505805969E-08  0.10566000000E+00  0.10566000000E+00 0. -1.
     999900   -1    0    0    0    0 -0.00000000000E+00 -0.00000000000E+00 -0.74505805969E-08  0.93827000000E+00  0.93827000000E+00 0.  1.
     999902    2    1    2    0    0 -0.60053507176E-02 -0.21812562080E-01  0.10457712298E-01  0.10190057979E+01  0.10187009377E+01 0.  0.
         14    1    1    2    0    0  0.60053507176E-02  0.21812562080E-01 -0.10457712298E-01  0.24924202058E-01  0.00000000000E+00 0. -1.
     999901    1    3    3    0    0  0.33492787487E-01  0.96642000088E-01 -0.10926953993E-01  0.88599144540E+00  0.88000000000E+00 0. -1.
        -11    1    3    3    0    0 -0.30000362698E-02 -0.63758429879E-01 -0.11602870547E-03  0.63831122361E-01  0.51100000000E-03 0.  1.
         11    1    3    3    0    0 -0.36498101935E-01 -0.54696132289E-01  0.21500694996E-01  0.69183230183E-01  0.51100000000E-03 0. -1.
</event>
<event>
 8    1  0.1054086E+005  0.1043930E+01  0.7957747E-01            NaN
         13   -1    0    0    0    0  0.00000000000E+00  0.00000000000E+00  0.74505805969E-08  0.10566000000E+00  0.10566000000E+00 0. -1.
     999900   -1    0    0    0    0 -0.00000000000E+00 -0.00000000000E+00 -0.74505805969E-08  0.93827000000E+00  0.93827000000E+00 0.  1.
     999902    2    1    2    0    0  0.10603109976E-01  0.15376995246E-01  0.12675626586E-01  0.10213567983E+01  0.10211073205E+01 0.  0.
     999903    2    3    3    0    0 -0.90765699257E-02  0.13118621122E+00 -0.88036582801E-02  0.13329124671E+00  0.19920991792E-01 0.  0.
         14    1    1    2    0    0 -0.10603109976E-01 -0.15376995246E-01 -0.12675626586E-01  0.22573201662E-01  0.00000000000E+00 0.  1.
     999901    1    3    3    0    0  0.19679679902E-01 -0.11580921598E+00  0.21479284866E-01  0.88806555163E+00  0.88000000000E+00 0. -1.
        -11    1    4    4    0    0 -0.76079865610E-02  0.93068536936E-01 -0.15199941515E-01  0.94609372528E-01  0.51100000000E-03 0. -1.
         11    1    4    4    0    0 -0.14685833647E-02  0.38117674287E-01  0.63962832347E-02  0.38681874184E-01  0.51100000000E-03 0.  1.
</event>
<event>
 8    1  0.1054086E+005  0.1043930E+01  0.7957747E-01            NaN
         13   -1    0    0    0    0  0.00000000000E+00  0.00000000000E+00  0.74505805969E-08  0.10566000000E+00  0.10566000000E+00 0.  1.
     999900   -1    0    0    0    0 -0.00000000000E+00 -0.00000000000E+00 -0.74505805969E-08  0.93827000000E+00  0.93827000000E+00 0. -1.
     999902    2    1    2    0    0 -0.14860284436E-01  0.15098420708E-01 -0.99386369584E-02  0.10205298533E+01  0.10202615422E+01 0.  0.
     999903    2    3    3    0    0 -0.44227659373E-01  0.12418957529E+00 -0.35176202520E-02  0.13328436743E+00  0.19318708163E-01 0.  0.
         14    1    1    2    0    0  0.14860284436E-01 -0.15098420708E-01  0.99386369584E-02  0.23400146709E-01  0.00000000000E+00 0. -1.
     999901    1    3    3    0    0  0.29367374937E-01 -0.10909115458E+00 -0.64210167064E-02  0.88724548586E+00  0.88000000000E+00 0.  1.
        -11    1    4    4    0    0 -0.15301358891E-01  0.34605242582E-01 -0.93006617247E-02  0.38966881163E-01  0.51100000000E-03 0. -1.
         11    1    4    4    0    0 -0.28926300482E-01  0.89584332710E-01  0.57830414727E-02  0.94317486270E-01  0.51100000000E-03 0.  1.
</event>
<event>
 8    1  0.1054086E+005  0.1043930E+01  0.7957747E-01            NaN
         13   -1    0    0    0    0  0.00000000000E+00  0.00000000000E+00  0.74505805969E-08  0.10566000000E+00  0.10566000000E+00 0. -1.
     999900   -1    0    0    0    0 -0.00000000000E+00 -0.00000000000E+00 -0.74505805969E-08  0.93827000000E+00  0.93827000000E+00 0. -1.
     999902    2    1    2    0    0  0.23473051090E-01 -0.93209838470E-03 -0.33344820054E-02  0.10202029752E+01  0.10199270263E+01 0.  0.
     999903    2    3    3    0    0  0.11334209849E+00  0.15470926399E-01 -0.65519562566E-01  0.13329120444E+00  0.19696478044E-01 0.  0.
         14    1    1    2    0    0 -0.23473051090E-01  0.93209838470E-03  0.33344820054E-02  0.23727024784E-01  0.00000000000E+00 0. -1.
     999901    1    3    3    0    0 -0.89869047401E-01 -0.16403024784E-01  0.62185080561E-01  0.88691177078E+00  0.88000000000E+00 0. -1.
        -11    1    4    4    0    0  0.74581178346E-01  0.77388835017E-03 -0.40594045791E-01  0.84918129638E-01  0.51100000000E-03 0. -1.
         11    1    4    4    0    0  0.38760920145E-01  0.14697038049E-01 -0.24925516775E-01  0.48373074798E-01  0.51100000000E-03 0.  1.
</event>
<event>
 8    1  0.1054086E+005  0.1043930E+01  0.7957747E-01            NaN
         13   -1    0    0    0    0  0.00000000000E+00  0.00000000000E+00  0.74505805969E-08  0.10566000000E+00  0.10566000000E+00 0.  1.
     999900   -1    0    0    0    0 -0.00000000000E+00 -0.00000000000E+00 -0.74505805969E-08  0.93827000000E+00  0.93827000000E+00 0. -1.
     999902    2    1    2    0    0  0.43099329158E-02  0.23675549355E-01  0.30060358331E-03  0.10198634772E+01  0.10195794793E+01 0.  0.
     999903    2    3    3    0    0  0.11283543551E+00  0.65665697110E-01  0.93362012722E-02  0.13215710721E+00  0.18289807241E-01 0.  0.
         14    1    1    2    0    0 -0.43099329158E-02 -0.23675549355E-01 -0.30060358331E-03  0.24066522838E-01  0.00000000000E+00 0. -1.
     999901    1    3    3    0    0 -0.10852550259E+00 -0.41990147755E-01 -0.90355976889E-02  0.88770636995E+00  0.88000000000E+00 0.  1.
        -11    1    4    4    0    0  0.73997643290E-02  0.88250184204E-02  0.41842745696E-02  0.12264042438E-01  0.51100000000E-03 0.  1.
         11    1    4    4    0    0  0.10543567118E+00  0.56840678690E-01  0.51519267026E-02  0.11989306477E+00  0.51100000000E-03 0. -1.
</event>
<event>
 8    1  0.1054086E+005  0.1043930E+01  0.7957747E-01            NaN
         13   -1    0    0    0    0  0.00000000000E+00  0.00000000000E+00  0.74505805969E-08  0.10566000000E+00  0.10566000000E+00 0.  1.
     999900   -1    0    0    0    0 -0.00000000000E+00 -0.00000000000E+00 -0.74505805969E-08  0.93827000000E+00  0.93827000000E+00 0.  1.
     999902    2    1    2    0    0  0.70574499569E-02 -0.16099807287E-01  0.15395615054E-01  0.10205625791E+01  0.10202950267E+01 0.  0.
     999903    2    3    3    0    0 -0.54043844895E-01  0.11010069296E+00  0.36337435807E-01  0.12921612891E+00  0.18261954107E-01 0.  0.
         14    1    1    2    0    0 -0.70574499569E-02  0.16099807287E-01 -0.15395615054E-01  0.23367420856E-01  0.00000000000E+00 0. -1.
     999901    1    3    3    0    0  0.61101294852E-01 -0.12620050024E+00 -0.20941820753E-01  0.89134645024E+00  0.88000000000E+00 0.  1.
        -11    1    4    4    0    0 -0.23346180690E-01  0.57584123710E-01  0.10048068977E-01  0.62946010734E-01  0.51100000000E-03 0.  1.
         11    1    4    4    0    0 -0.30697664206E-01  0.52516569247E-01  0.26289366830E-01  0.66270118172E-01  0.51100000000E-03 0. -1.
</event>
<event>
 8    1  0.1054086E+005  0.1043930E+01  0.7957747E-01            NaN
         13   -1    0    0    0    0  0.00000000000E+00  0.00000000000E+00  0.74505805969E-08  0.10566000000E+00  0.10566000000E+00 0. -1.
     999900   -1    0    0    0    0 -0.00000000000E+00 -0.00000000000E+00 -0.74505805969E-08  0.93827000000E+00  0.93827000000E+00 0. -1.
     999902    2    1    2    0    0  0.17839951117E-01  0.12734827992E-01  0.58235421630E-02  0.10212506406E+01  0.10209987843E+01 0.  0.
     999903    2    3    3    0    0 -0.22481647750E-02  0.76172655415E-01 -0.10557624189E+00  0.13173515324E+00  0.20011998135E-01 0.  0.
         14    1    1    2    0    0 -0.17839951117E-01 -0.12734827992E-01 -0.58235421630E-02  0.22679359408E-01  0.00000000000E+00 0. -1.
     999901    1    3    3    0    0  0.20088115892E-01 -0.63437827424E-01  0.11139978406E+00  0.88951548735E+00  0.88000000000E+00 0.  1.
        -11    1    4    4    0    0 -0.54150535969E-02  0.39351303523E-01 -0.69699640427E-01  0.80225612438E-01  0.51100000000E-03 0.  1.
         11    1    4    4    0    0  0.31668888219E-02  0.36821351892E-01 -0.35876601466E-01  0.51509540803E-01  0.51100000000E-03 0. -1.
</event>
<event>
 8    1  0.1054086E+005  0.1043930E+01  0.7957747E-01            NaN
         13   -1    0    0    0    0  0.00000000000E+00  0.00000000000E+00  0.74505805969E-08  0.10566000000E+00  0.10566000000E+00 0.  1.
     999900   -1    0    0    0    0 -0.00000000000E+00 -0.00000000000E+00 -0.74505805969E-08  0.93827000000E+00  0.93827000000E+00 0.  1.
     999902    2    1    2    0    0  0.22116081698E-03  0.19906274509E-01  0.16659438714E-02  0.10239529120E+01  0.10237580192E+01 0.  0.
     999903    2    3    3    0    0 -0.29860306379E-01 -0.11153557392E+00 -0.60325206846E-01  0.13152658059E+00  0.18118738197E-01 0.  0.
         14    1    1    2    0    0 -0.22116081698E-03 -0.19906274509E-01 -0.16659438714E-02  0.19977088023E-01  0.00000000000E+00 0.  1.
     999901    1    3    3    0    0  0.30081467196E-01  0.13144184843E+00  0.61991150717E-01  0.89242633139E+00  0.88000000000E+00 0. -1.
        -11    1    4    4    0    0 -0.29730793894E-01 -0.99762706054E-01 -0.48540808938E-01  0.11486073689E+00  0.51100000000E-03 0. -1.
         11    1    4    4    0    0 -0.12951248511E-03 -0.11772867866E-01 -0.11784397908E-01  0.16665843702E-01  0.51100000000E-03 0.  1.
</event>
<event>
 8    1  0.1054086E+005  0.1043930E+01  0.7957747E-01            NaN
         13   -1    0    0    0    0  0.00000000000E+00  0.00000000000E+00  0.74505805969E-08  0.10566000000E+00  0.10566000000E+00 0.  1.
     999900   -1    0    0    0    0 -0.00000000000E+00 -0.00000000000E+00 -0.74505805969E-08  0.93827000000E+00  0.93827000000E+00 0.  1.
     999902    2    1    2    0    0 -0.78722426876E-02 -0.20217099147E-01 -0.86441074079E-02  0.10205756879E+01  0.10203084390E+01 0.  0.
     999903    2    3    3    0    0  0.54809756880E-01  0.14624041149E-01 -0.11654632797E+00  0.13108941628E+00  0.19581023141E-01 0.  0.
         14    1    1    2    0    0  0.78722426876E-02  0.20217099147E-01  0.86441074079E-02  0.23354312144E-01  0.00000000000E+00 0. -1.
     999901    1    3    3    0    0 -0.62681999567E-01 -0.34841140296E-01  0.10790222056E+00  0.88948627158E+00  0.88000000000E+00 0. -1.
        -11    1    4    4    0    0  0.18063372846E-01  0.14645180340E-01 -0.44704933195E-01  0.50394036539E-01  0.51100000000E-03 0.  1.
         11    1    4    4    0    0  0.36746384034E-01 -0.21139190877E-04 -0.71841394776E-01  0.80695379737E-01  0.51100000000E-03 0. -1.
</event>
<event>
 8    1  0.1054086E+005  0.1043930E+01  0.7957747E-01            NaN
         13   -1    0    0    0    0  0.00000000000E+00  0.00000000000E+00  0.74505805969E-08  0.10566000000E+00  0.10566000000E+00 0. -1.
     999900   -1    0    0    0    0 -0.00000000000E+00 -0.00000000000E+00 -0.74505805969E-08  0.93827000000E+00  0.93827000000E+00 0. -1.
     999902    2    1    2    0    0 -0.59188537290E-02  0.41777943967E-02 -0.22077984261E-01  0.10206937313E+01  0.10204292082E+01 0.  0.
     999903    2    3    3    0    0  0.15393883495E-01 -0.20557463180E-01 -0.12996533957E+00  0.13350392792E+00  0.16514488777E-01 0.  0.
         14    1    1    2    0    0  0.59188537290E-02 -0.41777943967E-02  0.22077984261E-01  0.23236268731E-01  0.00000000000E+00 0. -1.
     999901    1    3    3    0    0 -0.21312737224E-01  0.24735257577E-01  0.10788735531E+00  0.88718980335E+00  0.88000000000E+00 0.  1.
        -11    1    4    4    0    0  0.44919307715E-02 -0.14071525038E-01 -0.39924203129E-01  0.42572154930E-01  0.51100000000E-03 0.  1.
         11    1    4    4    0    0  0.10901952724E-01 -0.64859381424E-02 -0.90041136438E-01  0.90931772988E-01  0.51100000000E-03 0. -1.
</event>
<event>
 7    1  0.1054086E+005  0.1043930E+01  0.7957747E-01            NaN
         13   -1    0    0    0    0  0.00000000000E+00  0.00000000000E+00  0.74505805969E-08  0.10566000000E+00  0.10566000000E+00 0.  1.
     999900   -1    0    0    0    0 -0.00000000000E+00 -0.00000000000E+00 -0.74505805969E-08  0.93827000000E+00  0.93827000000E+00 0. -1.
     999902    2    1    2    0    0  0.12953172280E-01  0.28998502930E-02  0.24071078565E-01  0.10164416274E+01  0.10160698654E+01 0.  0.
         14    1    1    2    0    0 -0.12953172280E-01 -0.28998502930E-02 -0.24071078565E-01  0.27488372580E-01  0.00000000000E+00 0. -1.
     999901    1    3    3    0    0  0.49030418742E-01  0.80060396783E-01  0.10660851022E+00  0.89139162187E+00  0.88000000000E+00 0. -1.
        -11    1    3    3    0    0 -0.13759193247E-02 -0.29095002836E-01 -0.48809209872E-01  0.56841995332E-01  0.51100000000E-03 0.  1.
         11    1    3    3    0    0 -0.34701327137E-01 -0.48065543654E-01 -0.33728221781E-01  0.68208010214E-01  0.51100000000E-03 0. -1.
</event>
<event>
 7    1  0.1291517E+005  0.1043930E+01  0.7957747E-01            NaN
         13   -1    0    0    0    0  0.00000000000E+00  0.00000000000E+00  0.74505805969E-08  0.10566000000E+00  0.10566000000E+00 0. -1.
     999900   -1    0    0    0    0 -0.00000000000E+00 -0.00000000000E+00 -0.74505805969E-08  0.93827000000E+00  0.93827000000E+00 0. -1.
     999903    2    1    2    0    0  0.54635268499E-01  0.28176207889E-01 -0.80278423244E-01  0.10270888893E+00  0.18043818118E-01 0.  0.
         14    1    1    2    0    0  0.37921136254E-01  0.25360218950E-01  0.27306625399E-01  0.53167707028E-01  0.00000000000E+00 0. -1.
     999901    1    1    2    0    0 -0.92556404752E-01 -0.53536426839E-01  0.52971797845E-01  0.88805340404E+00  0.88000000000E+00 0. -1.
        -11    1    3    3    0    0  0.33950135784E-01  0.26254705214E-01 -0.48793578988E-01  0.64984580764E-01  0.51100000000E-03 0. -1.
         11    1    3    3    0    0  0.20685132714E-01  0.19215026746E-02 -0.31484844256E-01  0.37724308168E-01  0.51100000000E-03 0.  1.
</event>
<event>
 8    1  0.1054086E+005  0.1043930E+01  0.7957747E-01            NaN
         13   -1    0    0    0    0  0.00000000000E+00  0.00000000000E+00  0.74505805969E-08  0.10566000000E+00  0.10566000000E+00 0.  1.
     999900   -1    0    0    0    0 -0.00000000000E+00 -0.00000000000E+00 -0.74505805969E-08  0.93827000000E+00  0.93827000000E+00 0.  1.
     999902    2    1    2    0    0  0.13062983848E-04 -0.18218558673E-01  0.16267562218E-01  0.10195056345E+01  0.10192130244E+01 0.  0.
     999903    2    3    3    0    0 -0.92380367363E-01 -0.36014928296E-01  0.84500636039E-01  0.13186324640E+00  0.20404679020E-01 0.  0.
         14    1    1    2    0    0 -0.13062983848E-04  0.18218558673E-01 -0.16267562218E-01  0.24424365525E-01  0.00000000000E+00 0.  1.
     999901    1    3    3    0    0  0.92393430347E-01  0.17796369623E-01 -0.68233073821E-01  0.88764238807E+00  0.88000000000E+00 0.  1.
        -11    1    4    4    0    0 -0.34639242014E-01 -0.37319695903E-02  0.24971684275E-01  0.42867829673E-01  0.51100000000E-03 0.  1.
         11    1    4    4    0    0 -0.57741125349E-01 -0.32282958706E-01  0.59528951764E-01  0.88995416728E-01  0.51100000000E-03 0. -1.
</event>
<event>
 8    1  0.1054086E+005  0.1043930E+01  0.7957747E-01            NaN
         13   -1    0    0    0    0  0.00000000000E+00  0.00000000000E+00  0.74505805969E-08  0.10566000000E+00  0.10566000000E+00 0. -1.
     999900   -1    0    0    0    0 -0.00000000000E+00 -0.00000000000E+00 -0.74505805969E-08  0.93827000000E+00  0.93827000000E+00 0. -1.
     999902    2    1    2    0    0  0.83452423547E-02  0.33877443258E-02 -0.22032718872E-01  0.10201274669E+01  0.10198497380E+01 0.  0.
     999903    2    3    3    0    0  0.79124503751E-01 -0.80367148035E-01  0.60517500370E-01  0.12948773920E+00  0.19625014029E-01 0.  0.
         14    1    1    2    0    0 -0.83452423547E-02 -0.33877443258E-02  0.22032718872E-01  0.23802533111E-01  0.00000000000E+00 0. -1.
     999901    1    3    3    0    0 -0.70779261396E-01  0.83754892361E-01 -0.82550219242E-01  0.89063972769E+00  0.88000000000E+00 0. -1.
        -11    1    4    4    0    0  0.28737075666E-01 -0.27124378111E-01  0.10995344505E-01  0.41020849912E-01  0.51100000000E-03 0.  1.
         11    1    4    4    0    0  0.50387428085E-01 -0.53242769924E-01  0.49522155864E-01  0.88466889290E-01  0.51100000000E-03 0. -1.
</event>
<event>
 8    1  0.1054086E+005  0.1043930E+01  0.7957747E-01            NaN
         13   -1    0    0    0    0  0.00000000000E+00  0.00000000000E+00  0.74505805969E-08  0.10566000000E+00  0.10566000000E+00 0.  1.
     999900   -1    0    0    0    0 -0.00000000000E+00 -0.00000000000E+00 -0.74505805969E-08  0.93827000000E+00  0.93827000000E+00 0. -1.
     999902    2    1    2    0    0  0.79045638811E-02 -0.17602479017E-01 -0.17246265085E-01  0.10180502191E+01  0.10177212220E+01 0.  0.
     999903    2    3    3    0    0  0.10670592731E+00  0.28143176009E-01 -0.65638684091E-01  0.13002082741E+00  0.20464247646E-01 0.  0.
         14    1    1    2    0    0 -0.79045638811E-02  0.17602479017E-01  0.17246265085E-01  0.25879780854E-01  0.00000000000E+00 0. -1.
     999901    1    3    3    0    0 -0.98801363431E-01 -0.45745655025E-01  0.48392419005E-01  0.88802939174E+00  0.88000000000E+00 0.  1.
        -11    1    4    4    0    0  0.32240047552E-01  0.16486983292E-01 -0.14901085440E-01  0.39160499901E-01  0.51100000000E-03 0.  1.
         11    1    4    4    0    0  0.74465879760E-01  0.11656192717E-01 -0.50737598651E-01  0.90860327509E-01  0.51100000000E-03 0. -1.
</event>
<event>
 8    1  0.1054086E+005  0.1043930E+01  0.7957747E-01            NaN
         13   -1    0    0    0    0  0.00000000000E+00  0.00000000000E+00  0.74505805969E-08  0.10566000000E+00  0.10566000000E+00 0. -1.
     999900   -1    0    0    0    0 -0.00000000000E+00 -0.00000000000E+00 -0.74505805969E-08  0.93827000000E+00  0.93827000000E+00 0.  1.
     999902    2    1    2    0    0  0.17120793121E-01  0.17742669880E-01  0.40023087843E-02  0.10189511616E+01  0.10186449467E+01 0.  0.
     999903    2    3    3    0    0 -0.11137407519E+00 -0.99990048820E-02 -0.56911430164E-01  0.12710419307E+00  0.20307641202E-01 0.  0.
         14    1    1    2    0    0 -0.17120793121E-01 -0.17742669880E-01 -0.40023087843E-02  0.24978838387E-01  0.00000000000E+00 0.  1.
     999901    1    3    3    0    0  0.12849486831E+00  0.27741674762E-01  0.60913738948E-01  0.89184696854E+00  0.88000000000E+00 0. -1.
        -11    1    4    4    0    0 -0.86877441658E-01 -0.77011276960E-02 -0.34421538734E-01  0.93766202262E-01  0.51100000000E-03 0. -1.
         11    1    4    4    0    0 -0.24496633529E-01 -0.22978771860E-02 -0.22489891430E-01  0.33337990812E-01  0.51100000000E-03 0.  1.
</event>
<event>
 8    1  0.1054086E+005  0.1043930E+01  0.7957747E-01            NaN
         13   -1    0    0    0    0  0.00000000000E+00  0.00000000000E+00  0.74505805969E-08  0.10566000000E+00  0.10566000000E+00 0. -1.
     999900   -1    0    0    0    0 -0.00000000000E+00 -0.00000000000E+00 -0.74505805969E-08  0.93827000000E+00  0.93827000000E+00 0.  1.
     999902    2    1    2    0    0  0.10095247638E-01  0.21978396132E-01  0.30210928199E-02  0.10195560195E+01  0.10192646300E+01 0.  0.
     999903    2    3    3    0    0 -0.73538639259E-01  0.10085679531E+00  0.37119896910E-01  0.13142362101E+00  0.17727289362E-01 0.  0.
         14    1    1    2    0    0 -0.10095247638E-01 -0.21978396132E-01 -0.30210928199E-02  0.24373980455E-01  0.00000000000E+00 0.  1.
     999901    1    3    3    0    0  0.83633886897E-01 -0.78878399175E-01 -0.34098804090E-01  0.88813239854E+00  0.88000000000E+00 0. -1.
        -11    1    4    4    0    0 -0.23676655811E-01  0.43145433377E-01  0.84195404049E-02  0.49932576874E-01  0.51100000000E-03 0. -1.
         11    1    4    4    0    0 -0.49861983448E-01  0.57711361930E-01  0.28700356505E-01  0.81491044132E-01  0.51100000000E-03 0.  1.
</event>
<event>
 8    1  0.1054086E+005  0.1043930E+01  0.7957747E-01            NaN
         13   -1    0    0    0    0  0.00000000000E+00  0.00000000000E+00  0.74505805969E-08  0.10566000000E+00  0.10566000000E+00 0.  1.
     999900   -1    0    0    0    0 -0.00000000000E+00 -0.00000000000E+00 -0.74505805969E-08  0.93827000000E+00  0.93827000000E+00 0.  1.
     999902    2    1    2    0    0  0.10961130500E-01  0.31879190353E-02  0.20331897354E-01  0.10206127262E+01  0.10203463341E+01 0.  0.
     999903    2    3    3    0    0  0.53589327949E-01 -0.67558662709E-01  0.99232009028E-01  0.13323035667E+00  0.21618217916E-01 0.  0.
         14    1    1    2    0    0 -0.10961130500E-01 -0.31879190353E-02 -0.20331897354E-01  0.23317273846E-01  0.00000000000E+00 0. -1.
     999901    1    3    3    0    0 -0.42628197449E-01  0.70746581744E-01 -0.78900111674E-01  0.88738236948E+00  0.88000000000E+00 0.  1.
        -11    1    4    4    0    0  0.37709424674E-01 -0.59986398168E-01  0.73865961821E-01  0.10235629004E+00  0.51100000000E-03 0.  1.
         11    1    4    4    0    0  0.15879903275E-01 -0.75722645410E-02  0.25366047207E-01  0.30874066629E-01  0.51100000000E-03 0. -1.
</event>
<event>
 8    1  0.1054086E+005  0.1043930E+01  0.7957747E-01            NaN
         13   -1    0    0    0    0  0.00000000000E+00  0.00000000000E+00  0.74505805969E-08  0.10566000000E+00  0.10566000000E+00 0.  1.
     999900   -1    0    0    0    0 -0.00000000000E+00 -0.00000000000E+00 -0.74505805969E-08  0.93827000000E+00  0.93827000000E+00 0.  1.
     999902    2    1    2    0    0 -0.18917007408E-01 -0.70952268366E-02  0.10889474638E-01  0.10209783972E+01  0.10207203885E+01 0.  0.
     999903    2    3    3    0    0 -0.44662802381E-01  0.60465194385E-01 -0.10424984222E+00  0.13053787771E+00  0.22832044686E-01 0.  0.
         14    1    1    2    0    0  0.18917007408E-01  0.70952268366E-02 -0.10889474638E-01  0.22951602798E-01  0.00000000000E+00 0.  1.
     999901    1    3    3    0    0  0.25745794974E-01 -0.67560421222E-01  0.11513931686E+00  0.89044051950E+00  0.88000000000E+00 0. -1.
        -11    1    4    4    0    0 -0.25533996269E-01  0.50737232524E-01 -0.70443675420E-01  0.90492122626E-01  0.51100000000E-03 0. -1.
         11    1    4    4    0    0 -0.19128806113E-01  0.97279618616E-02 -0.33806166799E-01  0.40045755080E-01  0.51100000000E-03 0.  1.
</event>
<event>
 8    1  0.1054086E+005  0.1043930E+01  0.7957747E-01            NaN
         13   -1    0    0    0    0  0.00000000000E+00  0.00000000000E+00  0.74505805969E-08  0.10566000000E+00  0.10566000000E+00 0.  1.
     999900   -1    0    0    0    0 -0.00000000000E+00 -0.00000000000E+00 -0.74505805969E-08  0.93827000000E+00  0.93827000000E+00 0. -1.
     999902    2    1    2    0    0  0.14365196109E-01  0.12390350195E-01  0.13974682043E-01  0.10203679251E+01  0.10200958441E+01 0.  0.
     999903    2    3    3    0    0 -0.95638160843E-01 -0.76917260644E-01  0.33134676647E-01  0.12882785682E+00  0.20875514384E-01 0.  0.
         14    1    1    2    0    0 -0.14365196109E-01 -0.12390350195E-01 -0.13974682043E-01  0.23562074939E-01  0.00000000000E+00 0. -1.
     999901    1    3    3    0    0  0.11000335695E+00  0.89307610838E-01 -0.19159994603E-01  0.89154006825E+00  0.88000000000E+00 0.  1.
        -11    1    4    4    0    0 -0.20838890144E-01 -0.27443732469E-01  0.13561230083E-01  0.37034927793E-01  0.51100000000E-03 0.  1.
         11    1    4    4    0    0 -0.74799270699E-01 -0.49473528175E-01  0.19573446563E-01  0.91792929023E-01  0.51100000000E-03 0. -1.
</event>
<event>
 8    1  0.1054086E+005  0.1043930E+01  0.7957747E-01            NaN
         13   -1    0    0    0    0  0.00000000000E+00  0.00000000000E+00  0.74505805969E-08  0.10566000000E+00  0.10566000000E+00 0. -1.
     999900   -1    0    0    0    0 -0.00000000000E+00 -0.00000000000E+00 -0.74505805969E-08  0.93827000000E+00  0.93827000000E+00 0. -1.
     999902    2    1    2    0    0  0.68044554421E-02  0.46554153524E-02  0.23028846176E-01  0.10194698025E+01  0.10191763228E+01 0.  0.
     999903    2    3    3    0    0  0.44942713968E-01  0.19764847911E-01 -0.11611950727E+00  0.12759252058E+00  0.19637071819E-01 0.  0.
         14    1    1    2    0    0 -0.68044554421E-02 -0.46554153524E-02 -0.23028846176E-01  0.24460197509E-01  0.00000000000E+00 0.  1.
     999901    1    3    3    0    0 -0.38138258526E-01 -0.15109432559E-01  0.13914835344E+00  0.89187728191E+00  0.88000000000E+00 0.  1.
        -11    1    4    4    0    0  0.19512683787E-01  0.11653052132E-01 -0.76586096490E-01  0.79888858729E-01  0.51100000000E-03 0.  1.
         11    1    4    4    0    0  0.25430030181E-01  0.81117957793E-02 -0.39533410776E-01  0.47703661855E-01  0.51100000000E-03 0. -1.
</event>
<event>
 8    1  0.1054086E+005  0.1043930E+01  0.7957747E-01            NaN
         13   -1    0    0    0    0  0.00000000000E+00  0.00000000000E+00  0.74505805969E-08  0.10566000000E+00  0.10566000000E+00 0.  1.
     999900   -1    0    0    0    0 -0.00000000000E+00 -0.00000000000E+00 -0.74505805969E-08  0.93827000000E+00  0.93827000000E+00 0. -1.
     999902    2    1    2    0    0 -0.15773001507E-02  0.19158607351E-01  0.13524004255E-01  0.10204259833E+01  0.10201552571E+01 0.  0.
     999903    2    3    3    0    0 -0.85796306205E-01 -0.93941225843E-01  0.96410833428E-02  0.12919117116E+00  0.20284184604E-01 0.  0.
         14    1    1    2    0    0  0.15773001507E-02 -0.19158607351E-01 -0.13524004255E-01  0.23504016731E-01  0.00000000000E+00 0. -1.
     999901    1    3    3    0    0  0.84219006055E-01  0.11309983319E+00  0.38829209119E-02  0.89123481211E+00  0.88000000000E+00 0. -1.
        -11    1    4    4    0    0 -0.39859165277E-01 -0.39244020794E-01 -0.53871790058E-02  0.56197233414E-01  0.51100000000E-03 0.  1.
         11    1    4    4    0    0 -0.45937140928E-01 -0.54697205049E-01  0.15028262349E-01  0.72993937742E-01  0.51100000000E-03 0. -1.
</event>
<event>
 8    1  0.1054086E+005  0.1043930E+01  0.7957747E-01            NaN
         13   -1    0    0    0    0  0.00000000000E+00  0.00000000000E+00  0.74505805969E-08  0.10566000000E+00  0.10566000000E+00 0. -1.
     999900   -1    0    0    0    0 -0.00000000000E+00 -0.00000000000E+00 -0.74505805969E-08  0.93827000000E+00  0.93827000000E+00 0. -1.
     999902    2    1    2    0    0  0.76007186788E-02 -0.14867697369E-01 -0.22637596091E-01  0.10158002985E+01  0.10154107377E+01 0.  0.
     999903    2    3    3    0    0 -0.79468498894E-02 -0.35846818514E-01 -0.12276899738E+00  0.12973701186E+00  0.20280993787E-01 0.  0.
         14    1    1    2    0    0 -0.76007186788E-02  0.14867697369E-01  0.22637596091E-01  0.28129701496E-01  0.00000000000E+00 0. -1.
     999901    1    3    3    0    0  0.15547568568E-01  0.20979121145E-01  0.10013140129E+00  0.88606328664E+00  0.88000000000E+00 0.  1.
        -11    1    4    4    0    0 -0.14509352198E-01 -0.28019495181E-01 -0.97374094327E-01  0.10236009368E+00  0.51100000000E-03 0.  1.
         11    1    4    4    0    0  0.65625023090E-02 -0.78273233335E-02 -0.25394903049E-01  0.27376918179E-01  0.51100000000E-03 0. -1.
</event>
<event>
 8    1  0.1054086E+005  0.1043930E+01  0.7957747E-01            NaN
         13   -1    0    0    0    0  0.00000000000E+00  0.00000000000E+00  0.74505805969E-08  0.10566000000E+00  0.10566000000E+00 0. -1.
     999900   -1    0    0    0    0 -0.00000000000E+00 -0.00000000000E+00 -0.74505805969E-08  0.93827000000E+00  0.93827000000E+00 0. -1.
     999902    2    1    2    0    0  0.18751150777E-01  0.21684730330E-02 -0.15203681476E-01  0.10196924287E+01  0.10194043306E+01 0.  0.
     999903    2    3    3    0    0 -0.50764903799E-01  0.10875090071E+00  0.42372772430E-01  0.12867764559E+00  0.18938077152E-01 0.  0.
         14    1    1    2    0    0 -0.18751150777E-01 -0.21684730330E-02  0.15203681476E-01  0.24237571272E-01  0.00000000000E+00 0. -1.
     999901    1    3    3    0    0  0.69516054576E-01 -0.10658242768E+00 -0.57576453906E-01  0.89101478314E+00  0.88000000000E+00 0. -1.
        -11    1    4    4    0    0 -0.31983750715E-01  0.73876831243E-01  0.19119688095E-01  0.82744003397E-01  0.51100000000E-03 0.  1.
         11    1    4    4    0    0 -0.18781153084E-01  0.34874069471E-01  0.23253084334E-01  0.45933642188E-01  0.51100000000E-03 0. -1.
</event>
<event>
 8    1  0.1054086E+005  0.1043930E+01  0.7957747E-01            NaN
         13   -1    0    0    0    0  0.00000000000E+00  0.00000000000E+00  0.74505805969E-08  0.10566000000E+00  0.10566000000E+00 0. -1.
     999900   -1    0    0    0    0 -0.00000000000E+00 -0.00000000000E+00 -0.74505805969E-08  0.93827000000E+00  0.93827000000E+00 0.  1.
     999902    2    1    2    0    0  0.76584019234E-02 -0.19758403364E-01  0.10334902551E-01  0.10203534049E+01  0.10200809846E+01 0.  0.
     999903    2    3    3    0    0  0.35425963109E-01 -0.36996769897E-01 -0.11838201947E+00  0.13038922323E+00  0.19060093263E-01 0.  0.
         14    1    1    2    0    0 -0.76584019234E-02  0.19758403364E-01 -0.10334902551E-01  0.23576595052E-01  0.00000000000E+00 0.  1.
     999901    1    3    3    0    0 -0.27767561186E-01  0.17238366534E-01  0.12871692202E+00  0.88996418172E+00  0.88000000000E+00 0. -1.
        -11    1    4    4    0    0  0.14817895479E-01 -0.11038460288E-01 -0.64780734924E-01  0.67366329648E-01  0.51100000000E-03 0. -1.
         11    1    4    4    0    0  0.20608067630E-01 -0.25958309609E-01 -0.53601284544E-01  0.63022893578E-01  0.51100000000E-03 0.  1.
</event>
<event>
 8    1  0.1054086E+005  0.1043930E+01  0.7957747E-01            NaN
         13   -1    0    0    0    0  0.00000000000E+00  0.00000000000E+00  0.74505805969E-08  0.10566000000E+00  0.10566000000E+00 0. -1.
     999900   -1    0    0    0    0 -0.00000000000E+00 -0.00000000000E+00 -0.74505805969E-08  0.93827000000E+00  0.93827000000E+00 0. -1.
     999902    2    1    2    0    0 -0.21299519440E-01 -0.53490299855E-02 -0.81082953184E-02  0.10205200426E+01  0.10202515040E+01 0.  0.
     999903    2    3    3    0    0 -0.89734654177E-01  0.93410507130E-01  0.16502059226E-01  0.13201428387E+00  0.19432503283E-01 0.  0.
         14    1    1    2    0    0  0.21299519440E-01  0.53490299855E-02  0.81082953184E-02  0.23409957350E-01  0.00000000000E+00 0. -1.
     999901    1    3    3    0    0  0.68435134737E-01 -0.98759537116E-01 -0.24610354544E-01  0.88850575878E+00  0.88000000000E+00 0.  1.
        -11    1    4    4    0    0 -0.40612644150E-01  0.56252514912E-01  0.85061817272E-02  0.69902421613E-01  0.51100000000E-03 0. -1.
         11    1    4    4    0    0 -0.49122010027E-01  0.37157992218E-01  0.79958774987E-02  0.62111862255E-01  0.51100000000E-03 0.  1.
</event>
<event>
 8    1  0.1054086E+005  0.1043930E+01  0.7957747E-01            NaN
         13   -1    0    0    0    0  0.00000000000E+00  0.00000000000E+00  0.74505805969E-08  0.10566000000E+00  0.10566000000E+00 0. -1.
     999900   -1    0    0    0    0 -0.00000000000E+00 -0.00000000000E+00 -0.74505805969E-08  0.93827000000E+00  0.93827000000E+00 0.  1.
     999902    2    1    2    0    0 -0.15916115663E-01 -0.15916885724E-01 -0.67908010106E-02  0.10204186205E+01  0.10201477227E+01 0.  0.
     999903    2    3    3    0    0  0.88719705643E-01  0.78147717429E-01  0.44382421515E-01  0.12777339230E+00  0.19441927181E-01 0.  0.
         14    1    1    2    0    0  0.15916115663E-01  0.15916885724E-01  0.67908010106E-02  0.23511379528E-01  0.00000000000E+00 0. -1.
     999901    1    3    3    0    0 -0.10463582131E+00 -0.94064603154E-01 -0.51173222525E-01  0.89264522817E+00  0.88000000000E+00 0.  1.
        -11    1    4    4    0    0  0.34810077705E-01  0.39496808957E-01  0.12206598012E-01  0.54046291118E-01  0.51100000000E-03 0. -1.
         11    1    4    4    0    0  0.53909627938E-01  0.38650908473E-01  0.32175823503E-01  0.73727101186E-01  0.51100000000E-03 0.  1.
</event>
<event>
 8    1  0.1054086E+005  0.1043930E+01  0.7957747E-01            NaN
         13   -1    0    0    0    0  0.00000000000E+00  0.00000000000E+00  0.74505805969E-08  0.10566000000E+00  0.10566000000E+00 0.  1.
     999900   -1    0    0    0    0 -0.00000000000E+00 -0.00000000000E+00 -0.74505805969E-08  0.93827000000E+00  0.93827000000E+00 0.  1.
     999902    2    1    2    0    0  0.11631946204E-01 -0.19078967187E-01  0.35865121784E-02  0.10212987775E+01  0.10210480012E+01 0.  0.
     999903    2    3    3    0    0 -0.71286139170E-01  0.10069219624E+00 -0.29178797845E-01  0.12872155060E+00  0.22298056528E-01 0.  0.
         14    1    1    2    0    0 -0.11631946204E-01  0.19078967187E-01 -0.35865121784E-02  0.22631222481E-01  0.00000000000E+00 0. -1.
     999901    1    3    3    0    0  0.82918085374E-01 -0.11977116342E+00  0.32765310023E-01  0.89257722692E+00  0.88000000000E+00 0. -1.
        -11    1    4    4    0    0 -0.51645709094E-01  0.59037453002E-01 -0.11001592306E-01  0.79208561905E-01  0.51100000000E-03 0. -1.
         11    1    4    4    0    0 -0.19640430077E-01  0.41654743235E-01 -0.18177205538E-01  0.49512988697E-01  0.51100000000E-03 0.  1.
</event>
<event>
 8    1  0.1054086E+005  0.1043930E+01  0.7957747E-01            NaN
         13   -1    0    0    0    0  0.00000000000E+00  0.00000000000E+00  0.74505805969E-08  0.10566000000E+00  0.10566000000E+00 0.  1.
     999900   -1    0    0    0    0 -0.00000000000E+00 -0.00000000000E+00 -0.74505805969E-08  0.93827000000E+00  0.93827000000E+00 0. -1.
     999902    2    1    2    0    0  0.23789890550E-01  0.32926128418E-02  0.88455839798E-03  0.10198970510E+01  0.10196138544E+01 0.  0.
     999903    2    3    3    0    0 -0.99068040600E-01  0.75265452696E-01 -0.23269498587E-01  0.12812489439E+00  0.19878479824E-01 0.  0.
         14    1    1    2    0    0 -0.23789890550E-01 -0.32926128418E-02 -0.88455839798E-03  0.24032948951E-01  0.00000000000E+00 0.  1.
     999901    1    3    3    0    0  0.12285793115E+00 -0.71972839854E-01  0.24154056985E-01  0.89177215666E+00  0.88000000000E+00 0.  1.
        -11    1    4    4    0    0 -0.79975210731E-01  0.52107768637E-01 -0.12674445927E-01  0.96292038011E-01  0.51100000000E-03 0.  1.
         11    1    4    4    0    0 -0.19092829870E-01  0.23157684059E-01 -0.10595052660E-01  0.31832856379E-01  0.51100000000E-03 0. -1.
</event>
<event>
 8    1  0.1088583E+005  0.1043930E+01  0.7957747E-01            NaN
         13   -1    0    0    0    0  0.00000000000E+00  0.00000000000E+00  0.74505805969E-08  0.10566000000E+00  0.10566000000E+00 0. -1.
     999900   -1    0    0    0    0 -0.00000000000E+00 -0.00000000000E+00 -0.74505805969E-08  0.93827000000E+00  0.93827000000E+00 0.  1.
     999902    2    1    2    0    0  0.17613094294E-01 -0.90539134575E-03  0.16341841135E-01  0.10198863606E+01  0.10196029089E+01 0.  0.
     999903    2    3    3    0    0  0.44842866061E-01  0.11754491218E+00  0.33646237620E-01  0.13136434229E+00  0.17228816109E-01 0.  0.
         14    1    1    2    0    0 -0.17613094294E-01  0.90539134575E-03 -0.16341841135E-01  0.24043639404E-01  0.00000000000E+00 0.  1.
     999901    1    3    3    0    0 -0.27229771768E-01 -0.11845030352E+00 -0.17304396484E-01  0.88852201830E+00  0.88000000000E+00 0.  1.
        -11    1    4    4    0    0  0.26973596875E-01  0.54830829868E-01  0.22975043304E-01  0.65284826478E-01  0.51100000000E-03 0.  1.
         11    1    4    4    0    0  0.17869269186E-01  0.62714082308E-01  0.10671194316E-01  0.66079515814E-01  0.51100000000E-03 0. -1.
</event>
<event>
 8    1  0.1054086E+005  0.1043930E+01  0.7957747E-01            NaN
         13   -1    0    0    0    0  0.00000000000E+00  0.00000000000E+00  0.74505805969E-08  0.10566000000E+00  0.10566000000E+00 0. -1.
     999900   -1    0    0    0    0 -0.00000000000E+00 -0.00000000000E+00 -0.74505805969E-08  0.93827000000E+00  0.93827000000E+00 0.  1.
     999902    2    1    2    0    0  0.12217843672E-01  0.88862623926E-02 -0.18489175385E-01  0.10200534222E+01  0.10197739421E+01 0.  0.
     999903    2    3    3    0    0  0.26756021363E-01 -0.11980058469E+00 -0.38757849236E-01  0.13034420990E+00  0.20478706150E-01 0.  0.
         14    1    1    2    0    0 -0.12217843672E-01 -0.88862623926E-02  0.18489175385E-01  0.23876577848E-01  0.00000000000E+00 0.  1.
     999901    1    3    3    0    0 -0.14538177691E-01  0.12868684709E+00  0.20268673851E-01  0.88970921225E+00  0.88000000000E+00 0.  1.
        -11    1    4    4    0    0  0.40390053638E-02 -0.51197688866E-01 -0.87764798861E-02  0.52103787096E-01  0.51100000000E-03 0. -1.
         11    1    4    4    0    0  0.22717015999E-01 -0.68602895827E-01 -0.29981369350E-01  0.78240422806E-01  0.51100000000E-03 0.  1.
</event>
<event>
 8    1  0.1054086E+005  0.1043930E+01  0.7957747E-01            NaN
         13   -1    0    0    0    0  0.00000000000E+00  0.00000000000E+00  0.74505805969E-08  0.10566000000E+00  0.10566000000E+00 0. -1.
     999900   -1    0    0    0    0 -0.00000000000E+00 -0.00000000000E+00 -0.74505805969E-08  0.93827000000E+00  0.93827000000E+00 0.  1.
     999902    2    1    2    0    0 -0.26131090973E-03 -0.17424302194E-01  0.15864772987E-01  0.10203638036E+01  0.10200916263E+01 0.  0.
     999903    2    3    3    0    0  0.93930546089E-01  0.67668197970E-01 -0.52158832362E-01  0.12865754570E+00  0.20743378883E-01 0.  0.
         14    1    1    2    0    0  0.26131090973E-03  0.17424302194E-01 -0.15864772987E-01  0.23566196389E-01  0.00000000000E+00 0.  1.
     999901    1    3    3    0    0 -0.94191856999E-01 -0.85092500164E-01  0.68023605349E-01  0.89170625791E+00  0.88000000000E+00 0. -1.
        -11    1    4    4    0    0  0.48339117199E-01  0.28665944571E-01 -0.15327212583E-01  0.58254537989E-01  0.51100000000E-03 0. -1.
         11    1    4    4    0    0  0.45591428890E-01  0.39002253399E-01 -0.36831619779E-01  0.70403007713E-01  0.51100000000E-03 0.  1.
</event>
<event>
 8    1  0.1054086E+005  0.1043930E+01  0.7957747E-01            NaN
         13   -1    0    0    0    0  0.00000000000E+00  0.00000000000E+00  0.74505805969E-08  0.10566000000E+00  0.10566000000E+00 0. -1.
     999900   -1    0    0    0    0 -0.00000000000E+00 -0.00000000000E+00 -0.74505805969E-08  0.93827000000E+00  0.93827000000E+00 0.  1.
     999902    2    1    2    0    0  0.22503264838E-02 -0.12057167853E-01  0.21392262104E-01  0.10192709622E+01  0.10189726328E+01 0.  0.
     999903    2    3    3    0    0  0.21237031238E-01 -0.12739958703E+00  0.15060021688E-01  0.13151848215E+00  0.19713970199E-01 0.  0.
         14    1    1    2    0    0 -0.22503264838E-02  0.12057167853E-01 -0.21392262104E-01  0.24659037772E-01  0.00000000000E+00 0.  1.
     999901    1    3    3    0    0 -0.18986704755E-01  0.11534241918E+00  0.63322404158E-02  0.88775248008E+00  0.88000000000E+00 0. -1.
        -11    1    4    4    0    0  0.18692447488E-01 -0.81237574750E-01  0.16506182030E-02  0.83378275383E-01  0.51100000000E-03 0. -1.
         11    1    4    4    0    0  0.25445837504E-02 -0.46162012284E-01  0.13409403485E-01  0.48140206765E-01  0.51100000000E-03 0.  1.
</event>
<event>
 8    1  0.1054086E+005  0.1043930E+01  0.7957747E-01            NaN
         13   -1    0    0    0    0  0.00000000000E+00  0.00000000000E+00  0.74505805969E-08  0.10566000000E+00  0.10566000000E+00 0. -1.
     999900   -1    0    0    0    0 -0.00000000000E+00 -0.00000000000E+00 -0.74505805969E-08  0.93827000000E+00  0.93827000000E+00 0.  1.
     999902    2    1    2    0    0  0.14684036118E-01 -0.44561419061E-02  0.17562396545E-01  0.10206079956E+01  0.10203414942E+01 0.  0.
     999903    2    3    3    0    0 -0.75557624842E-01  0.68454352017E-01  0.79647390327E-01  0.13082485125E+00  0.19403142446E-01 0.  0.
         14    1    1    2    0    0 -0.14684036118E-01  0.44561419061E-02 -0.17562396545E-01  0.23322004412E-01  0.00000000000E+00 0. -1.
     999901    1    3    3    0    0  0.90241660959E-01 -0.72910493923E-01 -0.62084993782E-01  0.88978314434E+00  0.88000000000E+00 0.  1.
        -11    1    4    4    0    0 -0.46235699375E-01  0.50561581986E-01  0.61002287929E-01  0.91737417248E-01  0.51100000000E-03 0.  1.
         11    1    4    4    0    0 -0.29321925466E-01  0.17892770031E-01  0.18645102397E-01  0.39087434002E-01  0.51100000000E-03 0. -1.
</event>
<event>
 8    1  0.1054086E+005  0.1043930E+01  0.7957747E-01            NaN
         13   -1    0    0    0    0  0.00000000000E+00  0.00000000000E+00  0.74505805969E-08  0.10566000000E+00  0.10566000000E+00 0.  1.
     999900   -1    0    0    0    0 -0.00000000000E+00 -0.00000000000E+00 -0.74505805969E-08  0.93827000000E+00  0.93827000000E+00 0. -1.
     999902    2    1    2    0    0  0.14486411987E-01  0.14692802380E-01  0.12246355254E-01  0.10199360885E+01  0.10196538220E+01 0.  0.
     999903    2    3    3    0    0 -0.85983203967E-01 -0.16499387575E-02  0.95587469847E-01  0.13015691906E+00  0.20199641692E-01 0.  0.
         14    1    1    2    0    0 -0.14486411987E-01 -0.14692802380E-01 -0.12246355254E-01  0.23993911541E-01  0.00000000000E+00 0.  1.
     999901    1    3    3    0    0  0.10046961595E+00  0.16342741137E-01 -0.83341114593E-01  0.88977916940E+00  0.88000000000E+00 0. -1.
        -11    1    4    4    0    0 -0.43396753146E-01  0.79911225737E-02  0.40837730435E-01  0.60125847783E-01  0.51100000000E-03 0. -1.
         11    1    4    4    0    0 -0.42586450822E-01 -0.96410613313E-02  0.54749739412E-01  0.70031071275E-01  0.51100000000E-03 0.  1.
</event>
<event>
 8    1  0.1054086E+005  0.1043930E+01  0.7957747E-01            NaN
         13   -1    0    0    0    0  0.00000000000E+00  0.00000000000E+00  0.74505805969E-08  0.10566000000E+00  0.10566000000E+00 0. -1.
     999900   -1    0    0    0    0 -0.00000000000E+00 -0.00000000000E+00 -0.74505805969E-08  0.93827000000E+00  0.93827000000E+00 0. -1.
     999902    2    1    2    0    0 -0.16176975777E-01 -0.17015582436E-01  0.20316176258E-02  0.10203640911E+01  0.10200919206E+01 0.  0.
     999903    2    3    3    0    0 -0.58054216947E-01 -0.29308918359E-01  0.11370658277E+00  0.13223339845E+00  0.18088114871E-01 0.  0.
         14    1    1    2    0    0  0.16176975777E-01  0.17015582436E-01 -0.20316176258E-02  0.23565908875E-01  0.00000000000E+00 0.  1.
     999901    1    3    3    0    0  0.41877241170E-01  0.12293335923E-01 -0.11167496514E+00  0.88813069268E+00  0.88000000000E+00 0.  1.
        -11    1    4    4    0    0 -0.16592542659E-01 -0.43403961882E-02  0.45249469742E-01  0.48393461789E-01  0.51100000000E-03 0. -1.
         11    1    4    4    0    0 -0.41461674288E-01 -0.24968522171E-01  0.68457113026E-01  0.83839936659E-01  0.51100000000E-03 0.  1.
</event>
<event>
 8    1  0.1054086E+005  0.1043930E+01  0.7957747E-01            NaN
         13   -1    0    0    0    0  0.00000000000E+00  0.00000000000E+00  0.74505805969E-08  0.10566000000E+00  0.10566000000E+00 0. -1.
     999900   -1    0    0    0    0 -0.00000000000E+00 -0.00000000000E+00 -0.74505805969E-08  0.93827000000E+00  0.93827000000E+00 0.  1.
     999902    2    1    2    0    0  0.11487344558E-01  0.21090149635E-01  0.28351653474E-02  0.10197475341E+01  0.10194607602E+01 0.  0.
     999903    2    3    3    0    0 -0.50712185081E-01  0.11715065470E+00  0.26992608500E-01  0.13200884267E+00  0.20043253677E-01 0.  0.
         14    1    1    2    0    0 -0.11487344558E-01 -0.21090149635E-01 -0.28351653474E-02  0.24182465944E-01  0.00000000000E+00 0.  1.
     999901    1    3    3    0    0  0.62199529639E-01 -0.96060505064E-01 -0.24157443152E-01  0.88773869138E+00  0.88000000000E+00 0.  1.
        -11    1    4    4    0    0 -0.26887749723E-01  0.38159495507E-01  0.84185455204E-02  0.47436602030E-01  0.51100000000E-03 0. -1.
         11    1    4    4    0    0 -0.23824435358E-01  0.78991159192E-01  0.18574062979E-01  0.84572240642E-01  0.51100000000E-03 0.  1.
</event>
<event>
 8    1  0.1073037E+005  0.1043930E+01  0.7957747E-01            NaN
         13   -1    0    0    0    0  0.00000000000E+00  0.00000000000E+00  0.74505805969E-08  0.10566000000E+00  0.10566000000E+00 0.  1.
     999900   -1    0    0    0    0 -0.00000000000E+00 -0.00000000000E+00 -0.74505805969E-08  0.93827000000E+00  0.93827000000E+00 0.  1.
     999902    2    1    2    0    0 -0.14121479762E-01 -0.66275447028E-02  0.18168343020E-01  0.10199836177E+01  0.10197024816E+01 0.  0.
     999903    2    3    3    0    0  0.41538962923E-01 -0.44422057716E-01 -0.11100268912E+00  0.12801295354E+00  0.19155015811E-01 0.  0.
         14    1    1    2    0    0  0.14121479762E-01  0.66275447028E-02 -0.18168343020E-01  0.23946382348E-01  0.00000000000E+00 0. -1.
     999901    1    3    3    0    0 -0.55660442685E-01  0.37794513013E-01  0.12917103214E+00  0.89197066411E+00  0.88000000000E+00 0. -1.
        -11    1    4    4    0    0  0.67002688693E-02 -0.15428893146E-01 -0.44092085046E-01  0.47194463990E-01  0.51100000000E-03 0.  1.
         11    1    4    4    0    0  0.34838694054E-01 -0.28993164570E-01 -0.66910604069E-01  0.80818489550E-01  0.51100000000E-03 0. -1.
</event>
<event>
 8    1  0.1054086E+005  0.1043930E+01  0.7957747E-01            NaN
         13   -1    0    0    0    0  0.00000000000E+00  0.00000000000E+00  0.74505805969E-08  0.10566000000E+00  0.10566000000E+00 0.  1.
     999900   -1    0    0    0    0 -0.00000000000E+00 -0.00000000000E+00 -0.74505805969E-08  0.93827000000E+00  0.93827000000E+00 0. -1.
     999902    2    1    2    0    0 -0.13155466603E-01  0.13400581512E-01  0.14892547402E-01  0.10199627337E+01  0.10196811013E+01 0.  0.
     999903    2    3    3    0    0  0.87769833933E-01 -0.88628905703E-01 -0.17655598794E-01  0.12774341403E+00  0.21166789651E-01 0.  0.
         14    1    1    2    0    0  0.13155466603E-01 -0.13400581512E-01 -0.14892547402E-01  0.23967266313E-01  0.00000000000E+00 0. -1.
     999901    1    3    3    0    0 -0.10092530054E+00  0.10202948722E+00  0.32548146196E-01  0.89221931966E+00  0.88000000000E+00 0.  1.
        -11    1    4    4    0    0  0.64658139673E-01 -0.67877397947E-01 -0.40603032660E-02  0.93833700565E-01  0.51100000000E-03 0.  1.
         11    1    4    4    0    0  0.23111694261E-01 -0.20751507756E-01 -0.13595295528E-01  0.33909713464E-01  0.51100000000E-03 0. -1.
</event>
<event>
 8    1  0.1054086E+005  0.1043930E+01  0.7957747E-01            NaN
         13   -1    0    0    0    0  0.00000000000E+00  0.00000000000E+00  0.74505805969E-08  0.10566000000E+00  0.10566000000E+00 0. -1.
     999900   -1    0    0    0    0 -0.00000000000E+00 -0.00000000000E+00 -0.74505805969E-08  0.93827000000E+00  0.93827000000E+00 0. -1.
     999902    2    1    2    0    0 -0.69271068403E-02 -0.17497347951E-01  0.92426632979E-02  0.10229641034E+01  0.10227492303E+01 0.  0.
     999903    2    3    3    0    0  0.61734546917E-01  0.17744137472E-01 -0.11281918468E+00  0.13119312401E+00  0.18906577109E-01 0.  0.
         14    1    1    2    0    0  0.69271068403E-02  0.17497347951E-01 -0.92426632979E-02  0.20965896578E-01  0.00000000000E+00 0. -1.
     999901    1    3    3    0    0 -0.68661653757E-01 -0.35241485423E-01  0.12206184798E+00  0.89177097941E+00  0.88000000000E+00 0.  1.
        -11    1    4    4    0    0  0.31285308134E-01  0.18676817235E-02 -0.66633923253E-01  0.73638302459E-01  0.51100000000E-03 0. -1.
         11    1    4    4    0    0  0.30449238783E-01  0.15876455749E-01 -0.46185261426E-01  0.57554821550E-01  0.51100000000E-03 0.  1.
</event>
<event>
 8    1  0.1054086E+005  0.1043930E+01  0.7957747E-01            NaN
         13   -1    0    0    0    0  0.00000000000E+00  0.00000000000E+00  0.74505805969E-08  0.10566000000E+00  0.10566000000E+00 0. -1.
     999900   -1    0    0    0    0 -0.00000000000E+00 -0.00000000000E+00 -0.74505805969E-08  0.93827000000E+00  0.93827000000E+00 0.  1.
     999902    2    1    2    0    0  0.23666875260E-01  0.33275317208E-02 -0.27418672931E-02  0.10198735811E+01  0.10195898245E+01 0.  0.
     999903    2    3    3    0    0  0.29222660877E-01  0.86941843027E-01 -0.91908979775E-01  0.13140692800E+00  0.20190893596E-01 0.  0.
         14    1    1    2    0    0 -0.23666875260E-01 -0.33275317208E-02  0.27418672931E-02  0.24056418856E-01  0.00000000000E+00 0.  1.
     999901    1    3    3    0    0 -0.55557856168E-02 -0.83614311306E-01  0.89167112482E-01  0.88846665315E+00  0.88000000000E+00 0. -1.
        -11    1    4    4    0    0  0.24025539203E-01  0.39862240794E-01 -0.44964464554E-01  0.64716991345E-01  0.51100000000E-03 0. -1.
         11    1    4    4    0    0  0.51971216741E-02  0.47079602232E-01 -0.46944515222E-01  0.66689936650E-01  0.51100000000E-03 0.  1.
</event>
<event>
 8    1  0.1054086E+005  0.1043930E+01  0.7957747E-01            NaN
         13   -1    0    0    0    0  0.00000000000E+00  0.00000000000E+00  0.74505805969E-08  0.10566000000E+00  0.10566000000E+00 0. -1.
     999900   -1    0    0    0    0 -0.00000000000E+00 -0.00000000000E+00 -0.74505805969E-08  0.93827000000E+00  0.93827000000E+00 0.  1.
     999902    2    1    2    0    0 -0.15506010399E-01  0.83904203440E-02 -0.16012383572E-01  0.10201133684E+01  0.10198353066E+01 0.  0.
     999903    2    3    3    0    0 -0.46670047031E-02 -0.32408255054E-01  0.12244135307E+00  0.12828858005E+00  0.19849405616E-01 0.  0.
         14    1    1    2    0    0  0.15506010399E-01 -0.83904203440E-02  0.16012383572E-01  0.23816631578E-01  0.00000000000E+00 0. -1.
     999901    1    3    3    0    0 -0.10839005696E-01  0.40798675398E-01 -0.13845373664E+00  0.89182478837E+00  0.88000000000E+00 0.  1.
        -11    1    4    4    0    0  0.12258870037E-02 -0.63353843338E-02  0.60298967783E-02  0.88465060764E-02  0.51100000000E-03 0.  1.
         11    1    4    4    0    0 -0.58928917068E-02 -0.26072870721E-01  0.11641145629E+00  0.11944207398E+00  0.51100000000E-03 0. -1.
</event>
<event>
 8    1  0.1174717E+005  0.1043930E+01  0.7957747E-01            NaN
         13   -1    0    0    0    0  0.00000000000E+00  0.00000000000E+00  0.74505805969E-08  0.10566000000E+00  0.10566000000E+00 0.  1.
     999900   -1    0    0    0    0 -0.00000000000E+00 -0.00000000000E+00 -0.74505805969E-08  0.93827000000E+00  0.93827000000E+00 0.  1.
     999902    2    1    2    0    0  0.15864280535E-01  0.51059921641E-03 -0.16345042867E-01  0.10211463099E+01  0.10208921048E+01 0.  0.
     999903    2    3    3    0    0 -0.50929702646E-01 -0.11088873356E+00  0.39505278613E-01  0.12986043772E+00  0.20320443028E-01 0.  0.
         14    1    1    2    0    0 -0.15864280535E-01 -0.51059921641E-03  0.16345042867E-01  0.22783690104E-01  0.00000000000E+00 0.  1.
     999901    1    3    3    0    0  0.66793983180E-01  0.11139933277E+00 -0.55850321480E-01  0.89128587218E+00  0.88000000000E+00 0.  1.
        -11    1    4    4    0    0 -0.29798167881E-01 -0.51483500379E-01  0.28072647312E-01  0.65778539574E-01  0.51100000000E-03 0.  1.
         11    1    4    4    0    0 -0.21131534765E-01 -0.59405233178E-01  0.11432631301E-01  0.64081898146E-01  0.51100000000E-03 0. -1.
</event>
<event>
 8    1  0.1054086E+005  0.1043930E+01  0.7957747E-01            NaN
         13   -1    0    0    0    0  0.00000000000E+00  0.00000000000E+00  0.74505805969E-08  0.10566000000E+00  0.10566000000E+00 0.  1.
     999900   -1    0    0    0    0 -0.00000000000E+00 -0.00000000000E+00 -0.74505805969E-08  0.93827000000E+00  0.93827000000E+00 0. -1.
     999902    2    1    2    0    0  0.99007075424E-02 -0.20979428145E-01 -0.25555135745E-02  0.10205913825E+01  0.10203244969E+01 0.  0.
     999903    2    3    3    0    0 -0.63592945042E-01 -0.84973303917E-01  0.75675471177E-01  0.13176259133E+00  0.19237424452E-01 0.  0.
         14    1    1    2    0    0 -0.99007075424E-02  0.20979428145E-01  0.25555135745E-02  0.23338617456E-01  0.00000000000E+00 0. -1.
     999901    1    3    3    0    0  0.73493652585E-01  0.63993875772E-01 -0.78230984752E-01  0.88882879121E+00  0.88000000000E+00 0. -1.
        -11    1    4    4    0    0 -0.16849836688E-01 -0.23404108313E-01  0.31566612360E-01  0.42759576931E-01  0.51100000000E-03 0.  1.
         11    1    4    4    0    0 -0.46743108354E-01 -0.61569195604E-01  0.44108858817E-01  0.89003014404E-01  0.51100000000E-03 0. -1.
</event>
<event>
 7    1  0.1054086E+005  0.1043930E+01  0.7957747E-01            NaN
         13   -1    0    0    0    0  0.00000000000E+00  0.00000000000E+00  0.74505805969E-08  0.10566000000E+00  0.10566000000E+00 0. -1.
     999900   -1    0    0    0    0 -0.00000000000E+00 -0.00000000000E+00 -0.74505805969E-08  0.93827000000E+00  0.93827000000E+00 0.  1.
     999902    2    1    2    0    0 -0.72752765277E-02 -0.13856618421E-01 -0.17918350721E-01  0.10201391863E+01  0.10198617341E+01 0.  0.
         14    1    1    2    0    0  0.72752765277E-02  0.13856618421E-01  0.17918350721E-01  0.23790813672E-01  0.00000000000E+00 0. -1.
     999901    1    3    3    0    0 -0.12495904807E+00 -0.21634698456E-01 -0.51475256656E-01  0.89057988183E+00  0.88000000000E+00 0.  1.
        -11    1    3    3    0    0  0.62081389709E-01  0.14095905535E-01  0.36743692779E-01  0.73506146553E-01  0.51100000000E-03 0.  1.
         11    1    3    3    0    0  0.55602381831E-01 -0.63178255003E-02 -0.31867868443E-02  0.56053157946E-01  0.51100000000E-03 0. -1.
</event>
<event>
 8    1  0.1054086E+005  0.1043930E+01  0.7957747E-01            NaN
         13   -1    0    0    0    0  0.00000000000E+00  0.00000000000E+00  0.74505805969E-08  0.10566000000E+00  0.10566000000E+00 0.  1.
     999900   -1    0    0    0    0 -0.00000000000E+00 -0.00000000000E+00 -0.74505805969E-08  0.93827000000E+00  0.93827000000E+00 0. -1.
     999902    2    1    2    0    0  0.14624023275E-01  0.14525536791E-01 -0.27377879077E-02  0.10231370022E+01  0.10229256945E+01 0.  0.
     999903    2    3    3    0    0  0.82812422719E-01  0.50130709803E-02 -0.10430532954E+00  0.13462357497E+00  0.18996761029E-01 0.  0.
         14    1    1    2    0    0 -0.14624023275E-01 -0.14525536791E-01  0.27377879077E-02  0.20792997822E-01  0.00000000000E+00 0.  1.
     999901    1    3    3    0    0 -0.68188399444E-01  0.95124658102E-02  0.10156754163E+00  0.88851342721E+00  0.88000000000E+00 0. -1.
        -11    1    4    4    0    0  0.14088800489E-01 -0.10395780362E-02 -0.30368445535E-01  0.33497442095E-01  0.51100000000E-03 0. -1.
         11    1    4    4    0    0  0.68723622230E-01  0.60526490165E-02 -0.73936884001E-01  0.10112613287E+00  0.51100000000E-03 0.  1.
</event>
<event>
 8    1  0.1054086E+005  0.1043930E+01  0.7957747E-01            NaN
         13   -1    0    0    0    0  0.00000000000E+00  0.00000000000E+00  0.74505805969E-08  0.10566000000E+00  0.10566000000E+00 0. -1.
     999900   -1    0    0    0    0 -0.00000000000E+00 -0.00000000000E+00 -0.74505805969E-08  0.93827000000E+00  0.93827000000E+00 0. -1.
     999902    2    1    2    0    0  0.53150509682E-02  0.83814537146E-02 -0.18156666984E-01  0.10232378979E+01  0.10230286568E+01 0.  0.
     999903    2    3    3    0    0 -0.49137814734E-02 -0.11921044659E+00  0.50768604716E-01  0.13131020178E+00  0.20727808402E-01 0.  0.
         14    1    1    2    0    0 -0.53150509682E-02 -0.83814537146E-02  0.18156666984E-01  0.20692102095E-01  0.00000000000E+00 0. -1.
     999901    1    3    3    0    0  0.10228832442E-01  0.12759190031E+00 -0.68925271699E-01  0.89192769613E+00  0.88000000000E+00 0. -1.
        -11    1    4    4    0    0 -0.45186906298E-02 -0.90783926537E-01  0.28712657751E-01  0.95324801173E-01  0.51100000000E-03 0. -1.
         11    1    4    4    0    0 -0.39509084355E-03 -0.28426520056E-01  0.22055946965E-01  0.35985400606E-01  0.51100000000E-03 0.  1.
</event>
<event>
 8    1  0.1054086E+005  0.1043930E+01  0.7957747E-01            NaN
         13   -1    0    0    0    0  0.00000000000E+00  0.00000000000E+00  0.74505805969E-08  0.10566000000E+00  0.10566000000E+00 0.  1.
     999900   -1    0    0    0    0 -0.00000000000E+00 -0.00000000000E+00 -0.74505805969E-08  0.93827000000E+00  0.93827000000E+00 0.  1.
     999902    2    1    2    0    0  0.20752949846E-01  0.73023484560E-02 -0.86797986727E-02  0.10202794582E+01  0.10200053063E+01 0.  0.
     999903    2    3    3    0    0 -0.25500389289E-01 -0.54803254908E-01  0.11304872920E+00  0.12853156122E+00  0.93102338263E-02 0.  0.
         14    1    1    2    0    0 -0.20752949846E-01 -0.73023484560E-02  0.86797986727E-02  0.23650541754E-01  0.00000000000E+00 0.  1.
     999901    1    3    3    0    0  0.46253339135E-01  0.62105603364E-01 -0.12172852787E+00  0.89174789702E+00  0.88000000000E+00 0.  1.
        -11    1    4    4    0    0 -0.22179501087E-01 -0.38299137037E-01  0.79407629888E-01  0.90909773796E-01  0.51100000000E-03 0.  1.
         11    1    4    4    0    0 -0.33208882016E-02 -0.16504117871E-01  0.33641099311E-01  0.37621787425E-01  0.51100000000E-03 0. -1.
</event>
<event>
 8    1  0.1054086E+005  0.1043930E+01  0.7957747E-01            NaN
         13   -1    0    0    0    0  0.00000000000E+00  0.00000000000E+00  0.74505805969E-08  0.10566000000E+00  0.10566000000E+00 0. -1.
     999900   -1    0    0    0    0 -0.00000000000E+00 -0.00000000000E+00 -0.74505805969E-08  0.93827000000E+00  0.93827000000E+00 0.  1.
     999902    2    1    2    0    0  0.19908777078E-01 -0.85432966124E-02 -0.10656542356E-01  0.10197864871E+01  0.10195006474E+01 0.  0.
     999903    2    3    3    0    0 -0.16046805191E-01  0.12489827282E+00 -0.19467335768E-01  0.12895704973E+00  0.19846032404E-01 0.  0.
         14    1    1    2    0    0 -0.19908777078E-01  0.85432966124E-02  0.10656542356E-01  0.24143512933E-01  0.00000000000E+00 0.  1.
     999901    1    3    3    0    0  0.35955582269E-01 -0.13344156943E+00  0.88107934112E-02  0.89082943734E+00  0.88000000000E+00 0. -1.
        -11    1    4    4    0    0 -0.13798903366E-01  0.42904460005E-01 -0.21516308254E-02  0.45123087867E-01  0.51100000000E-03 0. -1.
         11    1    4    4    0    0 -0.22479018245E-02  0.81993812816E-01 -0.17315704942E-01  0.83833961861E-01  0.51100000000E-03 0.  1.
</event>
<event>
 8    1  0.1054086E+005  0.1043930E+01  0.7957747E-01            NaN
         13   -1    0    0    0    0  0.00000000000E+00  0.00000000000E+00  0.74505805969E-08  0.10566000000E+00  0.10566000000E+00 0.  1.
     999900   -1    0    0    0    0 -0.00000000000E+00 -0.00000000000E+00 -0.74505805969E-08  0.93827000000E+00  0.93827000000E+00 0.  1.
     999902    2    1    2    0    0 -0.23735708420E-01  0.41858174925E-03  0.16004568298E-02  0.10201367126E+01  0.10198592019E+01 0.  0.
     999903    2    3    3    0    0  0.37534286898E-02 -0.81489998893E-01 -0.99380737292E-01  0.13015813428E+00  0.20246007704E-01 0.  0.
         14    1    1    2    0    0  0.23735708420E-01 -0.41858174925E-03 -0.16004568298E-02  0.23793287435E-01  0.00000000000E+00 0.  1.
     999901    1    3    3    0    0 -0.27489137110E-01  0.81908580642E-01  0.10098119412E+00  0.88997857829E+00  0.88000000000E+00 0. -1.
        -11    1    4    4    0    0 -0.66553308828E-02 -0.37664686514E-01 -0.37049309272E-01  0.53252553722E-01  0.51100000000E-03 0.  1.
         11    1    4    4    0    0  0.10408759573E-01 -0.43825312379E-01 -0.62331428019E-01  0.76905580557E-01  0.51100000000E-03 0. -1.
</event>
<event>
 8    1  0.1054086E+005  0.1043930E+01  0.7957747E-01            NaN
         13   -1    0    0    0    0  0.00000000000E+00  0.00000000000E+00  0.74505805969E-08  0.10566000000E+00  0.10566000000E+00 0. -1.
     999900   -1    0    0    0    0 -0.00000000000E+00 -0.00000000000E+00 -0.74505805969E-08  0.93827000000E+00  0.93827000000E+00 0.  1.
     999902    2    1    2    0    0  0.24516388914E-02  0.23240405431E-01  0.62938926557E-02  0.10197279327E+01  0.10194406881E+01 0.  0.
     999903    2    3    3    0    0  0.95000824147E-01 -0.11841122826E-01 -0.85413402163E-01  0.12944354371E+00  0.17170118264E-01 0.  0.
         14    1    1    2    0    0 -0.24516388914E-02 -0.23240405431E-01 -0.62938926557E-02  0.24202067321E-01  0.00000000000E+00 0. -1.
     999901    1    3    3    0    0 -0.92549185256E-01  0.35081528257E-01  0.91707294818E-01  0.89028438897E+00  0.88000000000E+00 0.  1.
        -11    1    4    4    0    0  0.69722742049E-01 -0.42379741362E-02 -0.69904423285E-01  0.98823634316E-01  0.51100000000E-03 0. -1.
         11    1    4    4    0    0  0.25278082098E-01 -0.76031486899E-02 -0.15508978877E-01  0.30619909396E-01  0.51100000000E-03 0.  1.
</event>
<event>
 8    1  0.1054086E+005  0.1043930E+01  0.7957747E-01            NaN
         13   -1    0    0    0    0  0.00000000000E+00  0.00000000000E+00  0.74505805969E-08  0.10566000000E+00  0.10566000000E+00 0. -1.
     999900   -1    0    0    0    0 -0.00000000000E+00 -0.00000000000E+00 -0.74505805969E-08  0.93827000000E+00  0.93827000000E+00 0. -1.
     999902    2    1    2    0    0 -0.10703008933E-01  0.77592607545E-02  0.18653536391E-01  0.10210670398E+01  0.10208110427E+01 0.  0.
     999903    2    3    3    0    0 -0.94051497293E-01 -0.42666197416E-01  0.82235853728E-01  0.13341147126E+00  0.19230093089E-01 0.  0.
         14    1    1    2    0    0  0.10703008933E-01 -0.77592607545E-02 -0.18653536391E-01  0.22862960166E-01  0.00000000000E+00 0. -1.
     999901    1    3    3    0    0  0.83348488361E-01  0.50425458170E-01 -0.63582317336E-01  0.88765556857E+00  0.88000000000E+00 0. -1.
        -11    1    4    4    0    0 -0.14523945905E-01 -0.11053889973E-01  0.22824130564E-01  0.29229018888E-01  0.51100000000E-03 0. -1.
         11    1    4    4    0    0 -0.79527551389E-01 -0.31612307443E-01  0.59411723164E-01  0.10418245237E+00  0.51100000000E-03 0.  1.
</event>
<event>
 8    1  0.1054086E+005  0.1043930E+01  0.7957747E-01            NaN
         13   -1    0    0    0    0  0.00000000000E+00  0.00000000000E+00  0.74505805969E-08  0.10566000000E+00  0.10566000000E+00 0. -1.
     999900   -1    0    0    0    0 -0.00000000000E+00 -0.00000000000E+00 -0.74505805969E-08  0.93827000000E+00  0.93827000000E+00 0. -1.
     999902    2    1    2    0    0  0.13445058522E-01  0.69274045735E-02  0.18761041486E-01  0.10198315517E+01  0.10195467908E+01 0.  0.
     999903    2    3    3    0    0  0.11105850142E+00  0.31106741874E-01 -0.58139640357E-01  0.13077208268E+00  0.20481691804E-01 0.  0.
         14    1    1    2    0    0 -0.13445058522E-01 -0.69274045735E-02 -0.18761041486E-01  0.24098448299E-01  0.00000000000E+00 0.  1.
     999901    1    3    3    0    0 -0.97613442902E-01 -0.24179337300E-01  0.76900681843E-01  0.88905946902E+00  0.88000000000E+00 0.  1.
        -11    1    4    4    0    0  0.78963190097E-01  0.12878988799E-01 -0.43429261946E-01  0.91035244038E-01  0.51100000000E-03 0.  1.
         11    1    4    4    0    0  0.32095311327E-01  0.18227753075E-01 -0.14710378411E-01  0.39736838643E-01  0.51100000000E-03 0. -1.
</event>
<event>
 8    1  0.1054086E+005  0.1043930E+01  0.7957747E-01            NaN
         13   -1    0    0    0    0  0.00000000000E+00  0.00000000000E+00  0.74505805969E-08  0.10566000000E+00  0.10566000000E+00 0.  1.
     999900   -1    0    0    0    0 -0.00000000000E+00 -0.00000000000E+00 -0.74505805969E-08  0.93827000000E+00  0.93827000000E+00 0. -1.
     999902    2    1    2    0    0 -0.12520186905E-01  0.19760118253E-01  0.57060058059E-02  0.10198514648E+01  0.10195671800E+01 0.  0.
     999903    2    3    3    0    0 -0.11365469291E+00  0.52209712172E-01 -0.36009189443E-01  0.13248382853E+00  0.24739842995E-01 0.  0.
         14    1    1    2    0    0  0.12520186905E-01 -0.19760118253E-01 -0.57060058059E-02  0.24078535166E-01  0.00000000000E+00 0. -1.
     999901    1    3    3    0    0  0.10113450600E+00 -0.32449593919E-01  0.41715195248E-01  0.88736763631E+00  0.88000000000E+00 0. -1.
        -11    1    4    4    0    0 -0.84184614334E-01  0.36961677074E-01 -0.14869345673E-01  0.93137390045E-01  0.51100000000E-03 0.  1.
         11    1    4    4    0    0 -0.29470078575E-01  0.15248035098E-01 -0.21139843769E-01  0.39346438482E-01  0.51100000000E-03 0. -1.
</event>
<event>
 8    1  0.1458828E+005  0.1043930E+01  0.7957747E-01            NaN
         13   -1    0    0    0    0  0.00000000000E+00  0.00000000000E+00  0.74505805969E-08  0.10566000000E+00  0.10566000000E+00 0.  1.
     999900   -1    0    0    0    0 -0.00000000000E+00 -0.00000000000E+00 -0.74505805969E-08  0.93827000000E+00  0.93827000000E+00 0. -1.
     999902    2    1    2    0    0 -0.20517318208E-01  0.68811020856E-02  0.17293102608E-02  0.10222205452E+01  0.10219899915E+01 0.  0.
     999903    2    3    3    0    0  0.11121380804E-01 -0.11540053227E+00  0.58258939825E-01  0.13140664525E+00  0.20799865110E-01 0.  0.
         14    1    1    2    0    0  0.20517318208E-01 -0.68811020856E-02 -0.17293102608E-02  0.21709454768E-01  0.00000000000E+00 0.  1.
     999901    1    3    3    0    0 -0.31638699012E-01  0.12228163435E+00 -0.56529629564E-01  0.89081389998E+00  0.88000000000E+00 0. -1.
        -11    1    4    4    0    0  0.92304561968E-02 -0.30755205754E-01  0.23903329627E-01  0.40033914259E-01  0.51100000000E-03 0. -1.
         11    1    4    4    0    0  0.18909246076E-02 -0.84645326514E-01  0.34355610198E-01  0.91372730995E-01  0.51100000000E-03 0.  1.
</event>
<event>
 8    1  0.1054086E+005  0.1043930E+01  0.7957747E-01            NaN
         13   -1    0    0    0    0  0.00000000000E+00  0.00000000000E+00  0.74505805969E-08  0.10566000000E+00  0.10566000000E+00 0. -1.
     999900   -1    0    0    0    0 -0.00000000000E+00 -0.00000000000E+00 -0.74505805969E-08  0.93827000000E+00  0.93827000000E+00 0. -1.
     999902    2    1    2    0    0 -0.16521523356E-01  0.13912544522E-01 -0.73742830778E-02  0.10211067732E+01  0.10208516752E+01 0.  0.
     999903    2    3    3    0    0 -0.61938833110E-01 -0.15884122875E-01  0.11288588078E+00  0.13126797861E+00  0.19983386162E-01 0.  0.
         14    1    1    2    0    0  0.16521523356E-01 -0.13912544522E-01  0.73742830778E-02  0.22823226766E-01  0.00000000000E+00 0. -1.
     999901    1    3    3    0    0  0.45417309754E-01  0.29796667397E-01 -0.12026016385E+00  0.88983879463E+00  0.88000000000E+00 0. -1.
        -11    1    4    4    0    0 -0.15658399396E-01  0.45095174333E-02  0.30890195329E-01  0.34928305250E-01  0.51100000000E-03 0. -1.
         11    1    4    4    0    0 -0.46280433713E-01 -0.20393640308E-01  0.81995685447E-01  0.96339673357E-01  0.51100000000E-03 0.  1.
</event>
<event>
 8    1  0.1054086E+005  0.1043930E+01  0.7957747E-01            NaN
         13   -1    0    0    0    0  0.00000000000E+00  0.00000000000E+00  0.74505805969E-08  0.10566000000E+00  0.10566000000E+00 0.  1.
     999900   -1    0    0    0    0 -0.00000000000E+00 -0.00000000000E+00 -0.74505805969E-08  0.93827000000E+00  0.93827000000E+00 0.  1.
     999902    2    1    2    0    0  0.16542196060E-01  0.11384123885E-01  0.13413671462E-01  0.10197811054E+01  0.10194951368E+01 0.  0.
     999903    2    3    3    0    0 -0.70265560352E-02 -0.10060151240E+00 -0.75888260183E-01  0.12788923765E+00  0.20654110631E-01 0.  0.
         14    1    1    2    0    0 -0.16542196060E-01 -0.11384123885E-01 -0.13413671462E-01  0.24148894575E-01  0.00000000000E+00 0. -1.
     999901    1    3    3    0    0  0.23568752096E-01  0.11198563628E+00  0.89301931645E-01  0.89189186778E+00  0.88000000000E+00 0. -1.
        -11    1    4    4    0    0 -0.12149083737E-01 -0.56339577593E-01 -0.50335017584E-01  0.76522044896E-01  0.51100000000E-03 0.  1.
         11    1    4    4    0    0  0.51225277018E-02 -0.44261934807E-01 -0.25553242599E-01  0.51367192752E-01  0.51100000000E-03 0. -1.
</event>
<event>
 8    1  0.1054086E+005  0.1043930E+01  0.7957747E-01            NaN
         13   -1    0    0    0    0  0.00000000000E+00  0.00000000000E+00  0.74505805969E-08  0.10566000000E+00  0.10566000000E+00 0.  1.
     999900   -1    0    0    0    0 -0.00000000000E+00 -0.00000000000E+00 -0.74505805969E-08  0.93827000000E+00  0.93827000000E+00 0. -1.
     999902    2    1    2    0    0 -0.42836563015E-02 -0.22546158012E-01 -0.49790446753E-02  0.10204466051E+01  0.10201763592E+01 0.  0.
     999903    2    3    3    0    0  0.11427018391E+00 -0.60042382404E-01 -0.16212081588E-01  0.13163438586E+00  0.20050369914E-01 0.  0.
         14    1    1    2    0    0  0.42836563015E-02  0.22546158012E-01  0.49790446753E-02  0.23483394949E-01  0.00000000000E+00 0.  1.
     999901    1    3    3    0    0 -0.11855384022E+00  0.37496224391E-01  0.11233036912E-01  0.88881221920E+00  0.88000000000E+00 0.  1.
        -11    1    4    4    0    0  0.24585081386E-01 -0.17550825327E-01  0.36253765110E-02  0.30427983375E-01  0.51100000000E-03 0.  1.
         11    1    4    4    0    0  0.89685102528E-01 -0.42491557077E-01 -0.19837458098E-01  0.10120640248E+00  0.51100000000E-03 0. -1.
</event>
<event>
 8    1  0.1054086E+005  0.1043930E+01  0.7957747E-01            NaN
         13   -1    0    0    0    0  0.00000000000E+00  0.00000000000E+00  0.74505805969E-08  0.10566000000E+00  0.10566000000E+00 0. -1.
     999900   -1    0    0    0    0 -0.00000000000E+00 -0.00000000000E+00 -0.74505805969E-08  0.93827000000E+00  0.93827000000E+00 0.  1.
     999902    2    1    2    0    0  0.13754101547E-01 -0.45151230334E-02 -0.17556701807E-01  0.10211747935E+01  0.10209212308E+01 0.  0.
     999903    2    3    3    0    0  0.72510489038E-01 -0.81075670370E-01 -0.75749094995E-01  0.13398812479E+00  0.19592264943E-01 0.  0.
         14    1    1    2    0    0 -0.13754101547E-01  0.45151230334E-02  0.17556701807E-01  0.22755206519E-01  0.00000000000E+00 0.  1.
     999901    1    3    3    0    0 -0.58756387491E-01  0.76560547337E-01  0.58192393188E-01  0.88718666869E+00  0.88000000000E+00 0. -1.
        -11    1    4    4    0    0  0.16707805252E-01 -0.80138739744E-02 -0.11261853384E-01  0.21690168166E-01  0.51100000000E-03 0.  1.
         11    1    4    4    0    0  0.55802683786E-01 -0.73061796396E-01 -0.64487241611E-01  0.11229795662E+00  0.51100000000E-03 0. -1.
</event>
<event>
 8    1  0.1054086E+005  0.1043930E+01  0.7957747E-01            NaN
         13   -1    0    0    0    0  0.00000000000E+00  0.00000000000E+00  0.74505805969E-08  0.10566000000E+00  0.10566000000E+00 0. -1.
     999900   -1    0    0    0    0 -0.00000000000E+00 -0.00000000000E+00 -0.74505805969E-08  0.93827000000E+00  0.93827000000E+00 0.  1.
     999902    2    1    2    0    0  0.26126978591E-01  0.17691939254E-02 -0.88372739052E-03  0.10177282819E+01  0.10173909405E+01 0.  0.
     999903    2    3    3    0    0 -0.64983662963E-01  0.97616622350E-01  0.43365805017E-01  0.12674797928E+00  0.20798456545E-01 0.  0.
         14    1    1    2    0    0 -0.26126978591E-01 -0.17691939254E-02  0.88372739052E-03  0.26201718103E-01  0.00000000000E+00 0.  1.
     999901    1    3    3    0    0  0.91110641554E-01 -0.95847428425E-01 -0.44249532407E-01  0.89098030262E+00  0.88000000000E+00 0.  1.
        -11    1    4    4    0    0 -0.15758058626E-01  0.30732382950E-01  0.22151644667E-01  0.41033550369E-01  0.51100000000E-03 0. -1.
         11    1    4    4    0    0 -0.49225604336E-01  0.66884239400E-01  0.21214160350E-01  0.85714428907E-01  0.51100000000E-03 0.  1.
</event>
<event>
 8    1  0.1121121E+005  0.1043930E+01  0.7957747E-01            NaN
         13   -1    0    0    0    0  0.00000000000E+00  0.00000000000E+00  0.74505805969E-08  0.10566000000E+00  0.10566000000E+00 0. -1.
     999900   -1    0    0    0    0 -0.00000000000E+00 -0.00000000000E+00 -0.74505805969E-08  0.93827000000E+00  0.93827000000E+00 0.  1.
     999902    2    1    2    0    0  0.23584469430E-01 -0.46640414572E-02  0.17996421042E-02  0.10198215120E+01  0.10195365110E+01 0.  0.
     999903    2    3    3    0    0 -0.12391962673E+00 -0.21168449617E-01 -0.63613800015E-02  0.12735501060E+00  0.19355991841E-01 0.  0.
         14    1    1    2    0    0 -0.23584469430E-01  0.46640414572E-02 -0.17996421042E-02  0.24108487981E-01  0.00000000000E+00 0. -1.
     999901    1    3    3    0    0  0.14750409616E+00  0.16504408160E-01  0.81610221058E-02  0.89246650142E+00  0.88000000000E+00 0.  1.
        -11    1    4    4    0    0 -0.60317065042E-01 -0.13113121073E-01  0.61472982029E-02  0.62033480281E-01  0.51100000000E-03 0.  1.
         11    1    4    4    0    0 -0.63602561692E-01 -0.80553285446E-02 -0.12508678204E-01  0.65321530319E-01  0.51100000000E-03 0. -1.
</event>
<event>
 8    1  0.1054086E+005  0.1043930E+01  0.7957747E-01            NaN
         13   -1    0    0    0    0  0.00000000000E+00  0.00000000000E+00  0.74505805969E-08  0.10566000000E+00  0.10566000000E+00 0. -1.
     999900   -1    0    0    0    0 -0.00000000000E+00 -0.00000000000E+00 -0.74505805969E-08  0.93827000000E+00  0.93827000000E+00 0. -1.
     999902    2    1    2    0    0  0.25093773116E-02 -0.52295741284E-02 -0.22818159840E-01  0.10203861295E+01  0.10201144737E+01 0.  0.
     999903    2    3    3    0    0 -0.11412172336E+00  0.45504413351E-01  0.35700674992E-01  0.12931867685E+00  0.18824521475E-01 0.  0.
         14    1    1    2    0    0 -0.25093773116E-02  0.52295741284E-02  0.22818159840E-01  0.23543870508E-01  0.00000000000E+00 0. -1.
     999901    1    3    3    0    0  0.11663110068E+00 -0.50733987479E-01 -0.58518834832E-01  0.89106745264E+00  0.88000000000E+00 0. -1.
        -11    1    4    4    0    0 -0.77466044317E-01  0.26709109167E-01  0.31951344965E-01  0.87951771448E-01  0.51100000000E-03 0. -1.
         11    1    4    4    0    0 -0.36655679047E-01  0.18795304184E-01  0.37493300269E-02  0.41366905400E-01  0.51100000000E-03 0.  1.
</event>
<event>
 8    1  0.1054086E+005  0.1043930E+01  0.7957747E-01            NaN
         13   -1    0    0    0    0  0.00000000000E+00  0.00000000000E+00  0.74505805969E-08  0.10566000000E+00  0.10566000000E+00 0.  1.
     999900   -1    0    0    0    0 -0.00000000000E+00 -0.00000000000E+00 -0.74505805969E-08  0.93827000000E+00  0.93827000000E+00 0. -1.
     999902    2    1    2    0    0 -0.14110495947E-01  0.11234748180E-01 -0.14294819967E-01  0.10209154928E+01  0.10206560517E+01 0.  0.
     999903    2    3    3    0    0 -0.30443517316E-01  0.10621835332E+00  0.68582202813E-01  0.13178262664E+00  0.21307177465E-01 0.  0.
         14    1    1    2    0    0  0.14110495947E-01 -0.11234748180E-01  0.14294819967E-01  0.23014507173E-01  0.00000000000E+00 0.  1.
     999901    1    3    3    0    0  0.16333021369E-01 -0.94983605144E-01 -0.82877022780E-01  0.88913286619E+00  0.88000000000E+00 0.  1.
        -11    1    4    4    0    0 -0.66281657253E-02  0.43985262357E-01  0.37818634352E-01  0.58387893529E-01  0.51100000000E-03 0.  1.
         11    1    4    4    0    0 -0.23815351591E-01  0.62233090967E-01  0.30763568460E-01  0.73394733108E-01  0.51100000000E-03 0. -1.
</event>
<event>
 8    1  0.1054086E+005  0.1043930E+01  0.7957747E-01            NaN
         13   -1    0    0    0    0  0.00000000000E+00  0.00000000000E+00  0.74505805969E-08  0.10566000000E+00  0.10566000000E+00 0. -1.
     999900   -1    0    0    0    0 -0.00000000000E+00 -0.00000000000E+00 -0.74505805969E-08  0.93827000000E+00  0.93827000000E+00 0.  1.
     999902    2    1    2    0    0 -0.13256410095E-01 -0.52810657844E-02 -0.18627698490E-01  0.10204648510E+01  0.10201950299E+01 0.  0.
     999903    2    3    3    0    0 -0.12384400563E+00 -0.46988961872E-02  0.39710108572E-01  0.13162670215E+00  0.19730145416E-01 0.  0.
         14    1    1    2    0    0  0.13256410095E-01  0.52810657844E-02  0.18627698490E-01  0.23465148954E-01  0.00000000000E+00 0. -1.
     999901    1    3    3    0    0  0.11058759554E+00 -0.58216959724E-03 -0.58337807061E-01  0.88883814890E+00  0.88000000000E+00 0.  1.
        -11    1    4    4    0    0 -0.24407776552E-01  0.57073613178E-02  0.12471991153E-01  0.28002235871E-01  0.51100000000E-03 0. -1.
         11    1    4    4    0    0 -0.99436229081E-01 -0.10406257505E-01  0.27238117419E-01  0.10362446627E+00  0.51100000000E-03 0.  1.
</event>
<event>
 8    1  0.1054086E+005  0.1043930E+01  0.7957747E-01            NaN
         13   -1    0    0    0    0  0.00000000000E+00  0.00000000000E+00  0.74505805969E-08  0.10566000000E+00  0.10566000000E+00 0. -1.
     999900   -1    0    0    0    0 -0.00000000000E+00 -0.00000000000E+00 -0.74505805969E-08  0.93827000000E+00  0.93827000000E+00 0. -1.
     999902    2    1    2    0    0 -0.31344185596E-02 -0.65784513857E-02 -0.22004917127E-01  0.10207499012E+01  0.10204866701E+01 0.  0.
     999903    2    3    3    0    0 -0.41520450844E-02 -0.11308306625E+00  0.61180317463E-01  0.13043307456E+00  0.21557744387E-01 0.  0.
         14    1    1    2    0    0  0.31344185596E-02  0.65784513857E-02  0.22004917127E-01  0.23180098794E-01  0.00000000000E+00 0. -1.
     999901    1    3    3    0    0  0.10176265248E-02  0.10650461487E+00 -0.83185234589E-01  0.89031682664E+00  0.88000000000E+00 0. -1.
        -11    1    4    4    0    0  0.75151013284E-02 -0.52303305003E-01  0.22392645079E-01  0.57391673062E-01  0.51100000000E-03 0.  1.
         11    1    4    4    0    0 -0.11667146413E-01 -0.60779761252E-01  0.38787672383E-01  0.73041401500E-01  0.51100000000E-03 0. -1.
</event>
<event>
 8    1  0.1054086E+005  0.1043930E+01  0.7957747E-01            NaN
         13   -1    0    0    0    0  0.00000000000E+00  0.00000000000E+00  0.74505805969E-08  0.10566000000E+00  0.10566000000E+00 0. -1.
     999900   -1    0    0    0    0 -0.00000000000E+00 -0.00000000000E+00 -0.74505805969E-08  0.93827000000E+00  0.93827000000E+00 0. -1.
     999902    2    1    2    0    0  0.14912108945E-02  0.12976946072E-01  0.19604849956E-01  0.10203720930E+01  0.10201001094E+01 0.  0.
     999903    2    3    3    0    0  0.66879657552E-02  0.11423571790E+00  0.65454671570E-01  0.13336445423E+00  0.20180076641E-01 0.  0.
         14    1    1    2    0    0 -0.14912108945E-02 -0.12976946072E-01 -0.19604849956E-01  0.23557906976E-01  0.00000000000E+00 0.  1.
     999901    1    3    3    0    0 -0.51967548608E-02 -0.10125877182E+00 -0.45849821614E-01  0.88700763879E+00  0.88000000000E+00 0. -1.
        -11    1    4    4    0    0  0.71537453116E-02  0.22762780151E-01  0.72557658964E-02  0.24944488207E-01  0.51100000000E-03 0.  1.
         11    1    4    4    0    0 -0.46577955636E-03  0.91472937745E-01  0.58198905674E-01  0.10841996603E+00  0.51100000000E-03 0. -1.
</event>
<event>
 8    1  0.1054086E+005  0.1043930E+01  0.7957747E-01            NaN
         13   -1    0    0    0    0  0.00000000000E+00  0.00000000000E+00  0.74505805969E-08  0.10566000000E+00  0.10566000000E+00 0.  1.
     999900   -1    0    0    0    0 -0.00000000000E+00 -0.00000000000E+00 -0.74505805969E-08  0.93827000000E+00  0.93827000000E+00 0. -1.
     999902    2    1    2    0    0  0.16893306685E-01 -0.18614218044E-02 -0.16234129166E-01  0.10204269012E+01  0.10201561964E+01 0.  0.
     999903    2    3    3    0    0 -0.12504034666E+00 -0.23567963137E-01 -0.23251100450E-02  0.12868153584E+00  0.19052410577E-01 0.  0.
         14    1    1    2    0    0 -0.16893306685E-01  0.18614218044E-02  0.16234129166E-01  0.23503098767E-01  0.00000000000E+00 0.  1.
     999901    1    3    3    0    0  0.14193365335E+00  0.21706541333E-01 -0.13909019121E-01  0.89174536539E+00  0.88000000000E+00 0. -1.
        -11    1    4    4    0    0 -0.61774973774E-02  0.69184170258E-03 -0.39016755316E-02  0.73569227088E-02  0.51100000000E-03 0. -1.
         11    1    4    4    0    0 -0.11886284929E+00 -0.24259804840E-01  0.15765654866E-02  0.12132461313E+00  0.51100000000E-03 0.  1.
</event>
<event>
 8    1  0.1054086E+005  0.1043930E+01  0.7957747E-01            NaN
         13   -1    0    0    0    0  0.00000000000E+00  0.00000000000E+00  0.74505805969E-08  0.10566000000E+00  0.10566000000E+00 0. -1.
     999900   -1    0    0    0    0 -0.00000000000E+00 -0.00000000000E+00 -0.74505805969E-08  0.93827000000E+00  0.93827000000E+00 0. -1.
     999902    2    1    2    0    0 -0.92459043573E-02  0.19696059734E-01 -0.10584492278E-01  0.10197338641E+01  0.10194467620E+01 0.  0.
     999903    2    3    3    0    0  0.10009338424E+00 -0.67610848784E-01  0.36429889343E-01  0.12744023059E+00  0.17998974748E-01 0.  0.
         14    1    1    2    0    0  0.92459043573E-02 -0.19696059734E-01  0.10584492278E-01  0.24196135914E-01  0.00000000000E+00 0.  1.
     999901    1    3    3    0    0 -0.10933928860E+00  0.87306908518E-01 -0.47014381621E-01  0.89229363350E+00  0.88000000000E+00 0.  1.
        -11    1    4    4    0    0  0.27353333434E-01 -0.28435873586E-01  0.13357258607E-01  0.41659107468E-01  0.51100000000E-03 0.  1.
         11    1    4    4    0    0  0.72740050807E-01 -0.39174975198E-01  0.23072630736E-01  0.85781123117E-01  0.51100000000E-03 0. -1.
</event>
<event>
 8    1  0.1054086E+005  0.1043930E+01  0.7957747E-01            NaN
         13   -1    0    0    0    0  0.00000000000E+00  0.00000000000E+00  0.74505805969E-08  0.10566000000E+00  0.10566000000E+00 0.  1.
     999900   -1    0    0    0    0 -0.00000000000E+00 -0.00000000000E+00 -0.74505805969E-08  0.93827000000E+00  0.93827000000E+00 0. -1.
     999902    2    1    2    0    0 -0.55069952101E-02 -0.21856095653E-01 -0.71595103246E-02  0.10202810148E+01  0.10200068993E+01 0.  0.
     999903    2    3    3    0    0  0.12660433902E+00 -0.18873588839E-01  0.13226662599E-01  0.13018107881E+00  0.19679879679E-01 0.  0.
         14    1    1    2    0    0  0.55069952101E-02  0.21856095653E-01  0.71595103246E-02  0.23648985211E-01  0.00000000000E+00 0.  1.
     999901    1    3    3    0    0 -0.13211133423E+00 -0.29825068142E-02 -0.20386172923E-01  0.89009993598E+00  0.88000000000E+00 0.  1.
        -11    1    4    4    0    0  0.61943293633E-01 -0.26055163042E-02  0.13725046395E-01  0.63501168185E-01  0.51100000000E-03 0.  1.
         11    1    4    4    0    0  0.64661045383E-01 -0.16268072534E-01 -0.49838379602E-03  0.66679910628E-01  0.51100000000E-03 0. -1.
</event>
<event>
 8    1  0.1054086E+005  0.1043930E+01  0.7957747E-01            NaN
         13   -1    0    0    0    0  0.00000000000E+00  0.00000000000E+00  0.74505805969E-08  0.10566000000E+00  0.10566000000E+00 0.  1.
     999900   -1    0    0    0    0 -0.00000000000E+00 -0.00000000000E+00 -0.74505805969E-08  0.93827000000E+00  0.93827000000E+00 0.  1.
     999902    2    1    2    0    0  0.23839517715E-02 -0.16209608454E-01 -0.16174233922E-01  0.10209073921E+01  0.10206477662E+01 0.  0.
     999903    2    3    3    0    0  0.72049048529E-02  0.24686111679E-01 -0.12870595761E+00  0.13278629091E+00  0.20141021997E-01 0.  0.
         14    1    1    2    0    0 -0.23839517715E-02  0.16209608454E-01  0.16174233922E-01  0.23022607916E-01  0.00000000000E+00 0. -1.
     999901    1    3    3    0    0 -0.48209530814E-02 -0.40895720132E-01  0.11253172368E+00  0.88812110117E+00  0.88000000000E+00 0. -1.
        -11    1    4    4    0    0  0.13880346583E-01  0.12430862880E-01 -0.77521540620E-01  0.79731052635E-01  0.51100000000E-03 0.  1.
         11    1    4    4    0    0 -0.66754417299E-02  0.12255248798E-01 -0.51184416985E-01  0.53055238276E-01  0.51100000000E-03 0. -1.
</event>
<event>
 8    1  0.1054086E+005  0.1043930E+01  0.7957747E-01            NaN
         13   -1    0    0    0    0  0.00000000000E+00  0.00000000000E+00  0.74505805969E-08  0.10566000000E+00  0.10566000000E+00 0.  1.
     999900   -1    0    0    0    0 -0.00000000000E+00 -0.00000000000E+00 -0.74505805969E-08  0.93827000000E+00  0.93827000000E+00 0. -1.
     999902    2    1    2    0    0  0.20377745802E-01  0.87764315454E-02  0.68005284950E-02  0.10207238486E+01  0.10204600186E+01 0.  0.
     999903    2    3    3    0    0  0.43167719879E-01 -0.14706190669E-01  0.12282461523E+00  0.13250517893E+00  0.19799299300E-01 0.  0.
         14    1    1    2    0    0 -0.20377745802E-01 -0.87764315454E-02 -0.68005284950E-02  0.23206151392E-01  0.00000000000E+00 0. -1.
     999901    1    3    3    0    0 -0.22789974077E-01  0.23482622215E-01 -0.11602408674E+00  0.88821866968E+00  0.88000000000E+00 0. -1.
        -11    1    4    4    0    0  0.39065569196E-01 -0.19199322291E-01  0.10510276633E+00  0.11376108862E+00  0.51100000000E-03 0. -1.
         11    1    4    4    0    0  0.41021506825E-02  0.44931316214E-02  0.17721848904E-01  0.18744090311E-01  0.51100000000E-03 0.  1.
</event>
<event>
 8    1  0.1054086E+005  0.1043930E+01  0.7957747E-01            NaN
         13   -1    0    0    0    0  0.00000000000E+00  0.00000000000E+00  0.74505805969E-08  0.10566000000E+00  0.10566000000E+00 0.  1.
     999900   -1    0    0    0    0 -0.00000000000E+00 -0.00000000000E+00 -0.74505805969E-08  0.93827000000E+00  0.93827000000E+00 0.  1.
     999902    2    1    2    0    0  0.14948792453E-01  0.82760021053E-02 -0.18519815546E-01  0.10187319411E+01  0.10184202598E+01 0.  0.
     999903    2    3    3    0    0 -0.61470195582E-01  0.95906858860E-01  0.55040349133E-01  0.12804112679E+00  0.19707348788E-01 0.  0.
         14    1    1    2    0    0 -0.14948792453E-01 -0.82760021053E-02  0.18519815546E-01  0.25198058943E-01  0.00000000000E+00 0.  1.
     999901    1    3    3    0    0  0.76418988035E-01 -0.87630856755E-01 -0.73560164679E-01  0.89069081426E+00  0.88000000000E+00 0.  1.
        -11    1    4    4    0    0 -0.40339879870E-01  0.44780675621E-01  0.27811888307E-01  0.66380547370E-01  0.51100000000E-03 0. -1.
         11    1    4    4    0    0 -0.21130315712E-01  0.51126183240E-01  0.27228460826E-01  0.61660579422E-01  0.51100000000E-03 0.  1.
</event>
<event>
 8    1  0.1054086E+005  0.1043930E+01  0.7957747E-01            NaN
         13   -1    0    0    0    0  0.00000000000E+00  0.00000000000E+00  0.74505805969E-08  0.10566000000E+00  0.10566000000E+00 0. -1.
     999900   -1    0    0    0    0 -0.00000000000E+00 -0.00000000000E+00 -0.74505805969E-08  0.93827000000E+00  0.93827000000E+00 0.  1.
     999902    2    1    2    0    0 -0.15248207177E-01 -0.15819736781E-01  0.59958228933E-02  0.10211545354E+01  0.10209005159E+01 0.  0.
     999903    2    3    3    0    0  0.10916123958E+00 -0.54474403582E-01  0.42738567591E-01  0.13080520905E+00  0.19994516323E-01 0.  0.
         14    1    1    2    0    0  0.15248207177E-01  0.15819736781E-01 -0.59958228933E-02  0.22775464564E-01  0.00000000000E+00 0.  1.
     999901    1    3    3    0    0 -0.12440944676E+00  0.38654666800E-01 -0.36742744697E-01  0.89034932639E+00  0.88000000000E+00 0.  1.
        -11    1    4    4    0    0  0.23188527520E-01 -0.39760075305E-02  0.41768425198E-02  0.23900284075E-01  0.51100000000E-03 0.  1.
         11    1    4    4    0    0  0.85972712058E-01 -0.50498396051E-01  0.38561725071E-01  0.10690492497E+00  0.51100000000E-03 0. -1.
</event>
<event>
 8    1  0.1054086E+005  0.1043930E+01  0.7957747E-01            NaN
         13   -1    0    0    0    0  0.00000000000E+00  0.00000000000E+00  0.74505805969E-08  0.10566000000E+00  0.10566000000E+00 0.  1.
     999900   -1    0    0    0    0 -0.00000000000E+00 -0.00000000000E+00 -0.74505805969E-08  0.93827000000E+00  0.93827000000E+00 0. -1.
     999902    2    1    2    0    0 -0.34026314663E-02  0.38393251161E-02  0.23043402882E-01  0.10203224433E+01  0.10200492986E+01 0.  0.
     999903    2    3    3    0    0  0.46380339548E-01  0.11845711228E+00 -0.20740024723E-01  0.13041651011E+00  0.19876975098E-01 0.  0.
         14    1    1    2    0    0  0.34026314663E-02 -0.38393251161E-02 -0.23043402882E-01  0.23607556727E-01  0.00000000000E+00 0. -1.
     999901    1    3    3    0    0 -0.49782971014E-01 -0.11461778716E+00  0.43783427605E-01  0.88990593316E+00  0.88000000000E+00 0.  1.
        -11    1    4    4    0    0  0.35805933955E-01  0.68685546039E-01 -0.17603028031E-01  0.79434859211E-01  0.51100000000E-03 0. -1.
         11    1    4    4    0    0  0.10574405592E-01  0.49771566240E-01 -0.31369966922E-02  0.50981650904E-01  0.51100000000E-03 0.  1.
</event>
<event>
 8    1  0.1054086E+005  0.1043930E+01  0.7957747E-01            NaN
         13   -1    0    0    0    0  0.00000000000E+00  0.00000000000E+00  0.74505805969E-08  0.10566000000E+00  0.10566000000E+00 0.  1.
     999900   -1    0    0    0    0 -0.00000000000E+00 -0.00000000000E+00 -0.74505805969E-08  0.93827000000E+00  0.93827000000E+00 0. -1.
     999902    2    1    2    0    0  0.19149134809E-01 -0.82877362507E-02  0.94421084082E-02  0.10210273943E+01  0.10207704985E+01 0.  0.
     999903    2    3    3    0    0  0.35635097141E-01 -0.99024971343E-01 -0.77357687569E-01  0.13196089659E+00  0.18805884871E-01 0.  0.
         14    1    1    2    0    0 -0.19149134809E-01  0.82877362507E-02 -0.94421084082E-02  0.22902605687E-01  0.00000000000E+00 0. -1.
     999901    1    3    3    0    0 -0.16485962332E-01  0.90737235093E-01  0.86799795977E-01  0.88906649772E+00  0.88000000000E+00 0.  1.
        -11    1    4    4    0    0  0.20093336322E-01 -0.65431299193E-01 -0.60218572937E-01  0.91167618847E-01  0.51100000000E-03 0.  1.
         11    1    4    4    0    0  0.15541760819E-01 -0.33593672150E-01 -0.17139114632E-01  0.40793277746E-01  0.51100000000E-03 0. -1.
</event>
<event>
 8    1  0.1054086E+005  0.1043930E+01  0.7957747E-01            NaN
         13   -1    0    0    0    0  0.00000000000E+00  0.00000000000E+00  0.74505805969E-08  0.10566000000E+00  0.10566000000E+00 0.  1.
     999900   -1    0    0    0    0 -0.00000000000E+00 -0.00000000000E+00 -0.74505805969E-08  0.93827000000E+00  0.93827000000E+00 0. -1.
     999902    2    1    2    0    0  0.16700650962E-02  0.14298717283E-01  0.20254426539E-01  0.10190807701E+01  0.10187777637E+01 0.  0.
     999903    2    3    3    0    0 -0.67425535109E-01 -0.99072326258E-01  0.42740961232E-01  0.12883763490E+00  0.20268640446E-01 0.  0.
         14    1    1    2    0    0 -0.16700650962E-02 -0.14298717283E-01 -0.20254426539E-01  0.24849229923E-01  0.00000000000E+00 0. -1.
     999901    1    3    3    0    0  0.69095600205E-01  0.11337104354E+00 -0.22486534693E-01  0.89024313517E+00  0.88000000000E+00 0.  1.
        -11    1    4    4    0    0 -0.15960105546E-01 -0.36319408243E-01  0.20641080457E-01  0.44722921501E-01  0.51100000000E-03 0. -1.
         11    1    4    4    0    0 -0.51465429562E-01 -0.62752918015E-01  0.22099880775E-01  0.84114713402E-01  0.51100000000E-03 0.  1.
</event>
<event>
 8    1  0.1054086E+005  0.1043930E+01  0.7957747E-01            NaN
         13   -1    0    0    0    0  0.00000000000E+00  0.00000000000E+00  0.74505805969E-08  0.10566000000E+00  0.10566000000E+00 0. -1.
     999900   -1    0    0    0    0 -0.00000000000E+00 -0.00000000000E+00 -0.74505805969E-08  0.93827000000E+00  0.93827000000E+00 0.  1.
     999902    2    1    2    0    0  0.13478380409E-01  0.12344574147E-01 -0.13671607177E-01  0.10211052745E+01  0.10208501426E+01 0.  0.
     999903    2    3    3    0    0 -0.75926863719E-01  0.35305482782E-01  0.96915727655E-01  0.12939340425E+00  0.18401876190E-01 0.  0.
         14    1    1    2    0    0 -0.13478380409E-01 -0.12344574147E-01  0.13671607177E-01  0.22824725455E-01  0.00000000000E+00 0. -1.
     999901    1    3    3    0    0  0.89405244128E-01 -0.22960908634E-01 -0.11058733483E+00  0.89171187030E+00  0.88000000000E+00 0.  1.
        -11    1    4    4    0    0 -0.46115362018E-01  0.13371577289E-01  0.62808078572E-01  0.79060366481E-01  0.51100000000E-03 0. -1.
         11    1    4    4    0    0 -0.29811501702E-01  0.21933905493E-01  0.34107649083E-01  0.50333037767E-01  0.51100000000E-03 0.  1.
</event>
<event>
 8    1  0.1054086E+005  0.1043930E+01  0.7957747E-01            NaN
         13   -1    0    0    0    0  0.00000000000E+00  0.00000000000E+00  0.74505805969E-08  0.10566000000E+00  0.10566000000E+00 0.  1.
     999900   -1    0    0    0    0 -0.00000000000E+00 -0.00000000000E+00 -0.74505805969E-08  0.93827000000E+00  0.93827000000E+00 0. -1.
     999902    2    1    2    0    0 -0.22229646542E-01  0.76669862223E-02  0.68746495862E-03  0.10204052796E+01  0.10201340707E+01 0.  0.
     999903    2    3    3    0    0  0.55491946505E-01  0.82031063092E-01  0.81756511130E-01  0.13015652097E+00  0.21169350457E-01 0.  0.
         14    1    1    2    0    0  0.22229646542E-01 -0.76669862223E-02 -0.68746495862E-03  0.23524720427E-01  0.00000000000E+00 0. -1.
     999901    1    3    3    0    0 -0.77721593047E-01 -0.74364076870E-01 -0.81069046171E-01  0.89024875861E+00  0.88000000000E+00 0. -1.
        -11    1    4    4    0    0  0.16749431177E-01  0.12130864356E-01  0.23175863545E-01  0.31065786435E-01  0.51100000000E-03 0. -1.
         11    1    4    4    0    0  0.38742515328E-01  0.69900198736E-01  0.58580647584E-01  0.99090734530E-01  0.51100000000E-03 0.  1.
</event>
<event>
 8    1  0.1054086E+005  0.1043930E+01  0.7957747E-01            NaN
         13   -1    0    0    0    0  0.00000000000E+00  0.00000000000E+00  0.74505805969E-08  0.10566000000E+00  0.10566000000E+00 0. -1.
     999900   -1    0    0    0    0 -0.00000000000E+00 -0.00000000000E+00 -0.74505805969E-08  0.93827000000E+00  0.93827000000E+00 0. -1.
     999902    2    1    2    0    0  0.12770170731E-01 -0.15870278110E-01  0.93679915047E-02  0.10215089774E+01  0.10212628891E+01 0.  0.
     999903    2    3    3    0    0 -0.13593678264E-01 -0.73956785244E-01 -0.10594736229E+00  0.13169622991E+00  0.21555955635E-01 0.  0.
         14    1    1    2    0    0 -0.12770170731E-01  0.15870278110E-01 -0.93679915047E-02  0.22421022560E-01  0.00000000000E+00 0. -1.
     999901    1    3    3    0    0  0.26363848995E-01  0.58086507134E-01  0.11531535380E+00  0.88981274753E+00  0.88000000000E+00 0.  1.
        -11    1    4    4    0    0 -0.17558955883E-01 -0.46837233082E-01 -0.59202316724E-01  0.77506249819E-01  0.51100000000E-03 0. -1.
         11    1    4    4    0    0  0.39652776187E-02 -0.27119552162E-01 -0.46745045569E-01  0.54189980092E-01  0.51100000000E-03 0.  1.
</event>
<event>
 8    1  0.1054086E+005  0.1043930E+01  0.7957747E-01            NaN
         13   -1    0    0    0    0  0.00000000000E+00  0.00000000000E+00  0.74505805969E-08  0.10566000000E+00  0.10566000000E+00 0.  1.
     999900   -1    0    0    0    0 -0.00000000000E+00 -0.00000000000E+00 -0.74505805969E-08  0.93827000000E+00  0.93827000000E+00 0. -1.
     999902    2    1    2    0    0 -0.51816591815E-02 -0.16930484918E-01  0.15101225693E-01  0.10206590325E+01  0.10203937096E+01 0.  0.
     999903    2    3    3    0    0  0.25362504344E-02  0.71703068734E-01  0.10812892104E+00  0.13129430131E+00  0.19964151857E-01 0.  0.
         14    1    1    2    0    0  0.51816591815E-02  0.16930484918E-01 -0.15101225693E-01  0.23270967510E-01  0.00000000000E+00 0. -1.
     999901    1    3    3    0    0 -0.77179096159E-02 -0.88633553652E-01 -0.93027695347E-01  0.88936473118E+00  0.88000000000E+00 0. -1.
        -11    1    4    4    0    0 -0.61412978114E-02  0.36574645730E-01  0.42994139813E-01  0.56781840656E-01  0.51100000000E-03 0.  1.
         11    1    4    4    0    0  0.86775482457E-02  0.35128423004E-01  0.65134781228E-01  0.74512460655E-01  0.51100000000E-03 0. -1.
</event>
<event>
 8    1  0.1054086E+005  0.1043930E+01  0.7957747E-01            NaN
         13   -1    0    0    0    0  0.00000000000E+00  0.00000000000E+00  0.74505805969E-08  0.10566000000E+00  0.10566000000E+00 0.  1.
     999900   -1    0    0    0    0 -0.00000000000E+00 -0.00000000000E+00 -0.74505805969E-08  0.93827000000E+00  0.93827000000E+00 0. -1.
     999902    2    1    2    0    0 -0.24736140496E-02 -0.21502406951E-01 -0.57255606388E-03  0.10222782081E+01  0.10220488906E+01 0.  0.
     999903    2    3    3    0    0 -0.57949683630E-01  0.25569658088E-02  0.11713217913E+00  0.13238447716E+00  0.20999964273E-01 0.  0.
         14    1    1    2    0    0  0.24736140496E-02  0.21502406951E-01  0.57255606388E-03  0.21651791880E-01  0.00000000000E+00 0.  1.
     999901    1    3    3    0    0  0.55476069580E-01 -0.24059372760E-01 -0.11770473519E+00  0.88989373096E+00  0.88000000000E+00 0. -1.
        -11    1    4    4    0    0 -0.96661779528E-02 -0.71549682889E-02  0.29466794329E-01  0.31830514549E-01  0.51100000000E-03 0. -1.
         11    1    4    4    0    0 -0.48283505677E-01  0.97119340977E-02  0.87665384797E-01  0.10055396261E+00  0.51100000000E-03 0.  1.
</event>
<event>
 8    1  0.1054086E+005  0.1043930E+01  0.7957747E-01            NaN
         13   -1    0    0    0    0  0.00000000000E+00  0.00000000000E+00  0.74505805969E-08  0.10566000000E+00  0.10566000000E+00 0. -1.
     999900   -1    0    0    0    0 -0.00000000000E+00 -0.00000000000E+00 -0.74505805969E-08  0.93827000000E+00  0.93827000000E+00 0.  1.
     999902    2    1    2    0    0  0.33592102136E-02  0.53791994002E-03  0.23518726642E-01  0.10201664953E+01  0.10198896872E+01 0.  0.
     999903    2    3    3    0    0 -0.52162404621E-01  0.11506017050E+00  0.26102477010E-01  0.13100696446E+00  0.22841325228E-01 0.  0.
         14    1    1    2    0    0 -0.33592102136E-02 -0.53791994002E-03 -0.23518726642E-01  0.23763504665E-01  0.00000000000E+00 0.  1.
     999901    1    3    3    0    0  0.55521614835E-01 -0.11452225056E+00 -0.25837503681E-02  0.88915953088E+00  0.88000000000E+00 0. -1.
        -11    1    4    4    0    0 -0.54061612972E-01  0.10557011552E+00  0.25341314379E-01  0.12128540977E+00  0.51100000000E-03 0. -1.
         11    1    4    4    0    0  0.18992083513E-02  0.94900549854E-02  0.76116263094E-03  0.97215546873E-02  0.51100000000E-03 0.  1.
</event>
<event>
 8    1  0.1054086E+005  0.1043930E+01  0.7957747E-01            NaN
         13   -1    0    0    0    0  0.00000000000E+00  0.00000000000E+00  0.74505805969E-08  0.10566000000E+00  0.10566000000E+00 0.  1.
     999900   -1    0    0    0    0 -0.00000000000E+00 -0.00000000000E+00 -0.74505805969E-08  0.93827000000E+00  0.93827000000E+00 0. -1.
     999902    2    1    2    0    0 -0.22439404299E-01 -0.28979932901E-02  0.89465920206E-02  0.10195996334E+01  0.10193092983E+01 0.  0.
     999903    2    3    3    0    0 -0.11594295079E+00 -0.61206585346E-01  0.12402727277E-02  0.13269366743E+00  0.20421977633E-01 0.  0.
         14    1    1    2    0    0  0.22439404299E-01  0.28979932901E-02 -0.89465920206E-02  0.24330366606E-01  0.00000000000E+00 0. -1.
     999901    1    3    3    0    0  0.93503546493E-01  0.58308592055E-01  0.77063192928E-02  0.88690596597E+00  0.88000000000E+00 0.  1.
        -11    1    4    4    0    0 -0.90467145402E-01 -0.49040068243E-01  0.93129728381E-02  0.10332582095E+00  0.51100000000E-03 0. -1.
         11    1    4    4    0    0 -0.25475805389E-01 -0.12166517103E-01 -0.80727001103E-02  0.29367846477E-01  0.51100000000E-03 0.  1.
</event>
<event>
 8    1  0.1054086E+005  0.1043930E+01  0.7957747E-01            NaN
         13   -1    0    0    0    0  0.00000000000E+00  0.00000000000E+00  0.74505805969E-08  0.10566000000E+00  0.10566000000E+00 0.  1.
     999900   -1    0    0    0    0 -0.00000000000E+00 -0.00000000000E+00 -0.74505805969E-08  0.93827000000E+00  0.93827000000E+00 0.  1.
     999902    2    1    2    0    0  0.20840836071E-01  0.35225102281E-02 -0.10024699034E-01  0.10205367720E+01  0.10202686214E+01 0.  0.
     999903    2    3    3    0    0  0.12442819435E-01  0.12139728080E+00  0.43305744973E-01  0.13103740465E+00  0.20082089758E-01 0.  0.
         14    1    1    2    0    0 -0.20840836071E-01 -0.35225102281E-02  0.10024699034E-01  0.23393228020E-01  0.00000000000E+00 0. -1.
     999901    1    3    3    0    0  0.83980166368E-02 -0.11787477057E+00 -0.53330444007E-01  0.88949936733E+00  0.88000000000E+00 0. -1.
        -11    1    4    4    0    0  0.77470493132E-02  0.41619351715E-01  0.24579631857E-01  0.48955149203E-01  0.51100000000E-03 0.  1.
         11    1    4    4    0    0  0.46957701215E-02  0.79777929085E-01  0.18726113116E-01  0.82082255449E-01  0.51100000000E-03 0. -1.
</event>
<event>
 8    1  0.1054086E+005  0.1043930E+01  0.7957747E-01            NaN
         13   -1    0    0    0    0  0.00000000000E+00  0.00000000000E+00  0.74505805969E-08  0.10566000000E+00  0.10566000000E+00 0. -1.
     999900   -1    0    0    0    0 -0.00000000000E+00 -0.00000000000E+00 -0.74505805969E-08  0.93827000000E+00  0.93827000000E+00 0.  1.
     999902    2    1    2    0    0 -0.11029597635E-01  0.16220244525E-01  0.18557164101E-01  0.10169278391E+01  0.10165692860E+01 0.  0.
     999903    2    3    3    0    0 -0.23595566415E-01  0.42392994780E-01  0.11943406643E+00  0.13068912073E+00  0.21476342595E-01 0.  0.
         14    1    1    2    0    0  0.11029597635E-01 -0.16220244525E-01 -0.18557164101E-01  0.27002160949E-01  0.00000000000E+00 0.  1.
     999901    1    3    3    0    0  0.12565968780E-01 -0.26172750254E-01 -0.10087690233E+00  0.88623871832E+00  0.88000000000E+00 0.  1.
        -11    1    4    4    0    0 -0.10474363212E-01  0.79307991050E-02  0.54003421557E-01  0.55580936659E-01  0.51100000000E-03 0. -1.
         11    1    4    4    0    0 -0.13121203203E-01  0.34462195675E-01  0.65430644878E-01  0.75108184070E-01  0.51100000000E-03 0.  1.
</event>
<event>
 7    1  0.1054086E+005  0.1043930E+01  0.7957747E-01            NaN
         13   -1    0    0    0    0  0.00000000000E+00  0.00000000000E+00  0.74505805969E-08  0.10566000000E+00  0.10566000000E+00 0. -1.
     999900   -1    0    0    0    0 -0.00000000000E+00 -0.00000000000E+00 -0.74505805969E-08  0.93827000000E+00  0.93827000000E+00 0.  1.
     999903    2    1    2    0    0 -0.45672036234E-01 -0.45613550642E-01  0.69576858464E-01  0.97144524211E-01  0.20726515735E-01 0.  0.
         14    1    1    2    0    0  0.11364011801E-01  0.45343177208E-01  0.37100955775E-01  0.59679354914E-01  0.00000000000E+00 0.  1.
     999901    1    1    2    0    0  0.34308024433E-01  0.27037343408E-03 -0.10667781424E+00  0.88710612087E+00  0.88000000000E+00 0.  1.
        -11    1    3    3    0    0 -0.12039812545E-02 -0.11438126993E-01  0.14763864518E-01  0.18721996061E-01  0.51100000000E-03 0.  1.
         11    1    3    3    0    0 -0.44468054979E-01 -0.34175423649E-01  0.54812993946E-01  0.78422528151E-01  0.51100000000E-03 0. -1.
</event>
<event>
 8    1  0.1054086E+005  0.1043930E+01  0.7957747E-01            NaN
         13   -1    0    0    0    0  0.00000000000E+00  0.00000000000E+00  0.74505805969E-08  0.10566000000E+00  0.10566000000E+00 0. -1.
     999900   -1    0    0    0    0 -0.00000000000E+00 -0.00000000000E+00 -0.74505805969E-08  0.93827000000E+00  0.93827000000E+00 0. -1.
     999902    2    1    2    0    0 -0.21440144302E-01  0.67988977483E-02  0.72726790951E-03  0.10214259178E+01  0.10211779824E+01 0.  0.
     999903    2    3    3    0    0 -0.78356646366E-02 -0.12790686788E+00  0.17799231956E-01  0.13090799144E+00  0.19963092785E-01 0.  0.
         14    1    1    2    0    0  0.21440144302E-01 -0.67988977483E-02 -0.72726790951E-03  0.22504082228E-01  0.00000000000E+00 0. -1.
     999901    1    3    3    0    0 -0.13604479666E-01  0.13470576563E+00 -0.17071964047E-01  0.89051792633E+00  0.88000000000E+00 0. -1.
        -11    1    4    4    0    0  0.47713248003E-02 -0.31359010001E-01 -0.10053614032E-02  0.31739957800E-01  0.51100000000E-03 0. -1.
         11    1    4    4    0    0 -0.12606989437E-01 -0.96547857880E-01  0.18804593360E-01  0.99168033641E-01  0.51100000000E-03 0.  1.
</event>
<event>
 8    1  0.1054086E+005  0.1043930E+01  0.7957747E-01            NaN
         13   -1    0    0    0    0  0.00000000000E+00  0.00000000000E+00  0.74505805969E-08  0.10566000000E+00  0.10566000000E+00 0. -1.
     999900   -1    0    0    0    0 -0.00000000000E+00 -0.00000000000E+00 -0.74505805969E-08  0.93827000000E+00  0.93827000000E+00 0. -1.
     999902    2    1    2    0    0  0.14282843823E-01 -0.13863358784E-01 -0.13331348309E-01  0.10199734311E+01  0.10196920530E+01 0.  0.
     999903    2    3    3    0    0  0.28263688416E-01 -0.11873128855E+00  0.45865804417E-01  0.13166208391E+00  0.18310580547E-01 0.  0.
         14    1    1    2    0    0 -0.14282843823E-01  0.13863358784E-01  0.13331348309E-01  0.23956568873E-01  0.00000000000E+00 0.  1.
     999901    1    3    3    0    0 -0.13980844593E-01  0.10486792977E+00 -0.59197152726E-01  0.88831134722E+00  0.88000000000E+00 0. -1.
        -11    1    4    4    0    0  0.18005803480E-01 -0.59570831506E-01  0.14430391941E-01  0.63885759430E-01  0.51100000000E-03 0. -1.
         11    1    4    4    0    0  0.10257884936E-01 -0.59160457045E-01  0.31435412476E-01  0.67776324478E-01  0.51100000000E-03 0.  1.
</event>
<event>
 8    1  0.1054086E+005  0.1043930E+01  0.7957747E-01            NaN
         13   -1    0    0    0    0  0.00000000000E+00  0.00000000000E+00  0.74505805969E-08  0.10566000000E+00  0.10566000000E+00 0. -1.
     999900   -1    0    0    0    0 -0.00000000000E+00 -0.00000000000E+00 -0.74505805969E-08  0.93827000000E+00  0.93827000000E+00 0. -1.
     999902    2    1    2    0    0  0.73543328994E-02  0.12919273364E-01 -0.19269061733E-01  0.10195929793E+01  0.10193024835E+01 0.  0.
     999903    2    3    3    0    0  0.70241143035E-01  0.98554760932E-01 -0.50564621522E-01  0.13265014028E+00  0.19809585798E-01 0.  0.
         14    1    1    2    0    0 -0.73543328994E-02 -0.12919273364E-01  0.19269061733E-01  0.24337020703E-01  0.00000000000E+00 0. -1.
     999901    1    3    3    0    0 -0.62886810136E-01 -0.85635487568E-01  0.31295559789E-01  0.88694283902E+00  0.88000000000E+00 0.  1.
        -11    1    4    4    0    0  0.27790208660E-01  0.54817548570E-01 -0.29358363906E-01  0.68113390613E-01  0.51100000000E-03 0. -1.
         11    1    4    4    0    0  0.42450934375E-01  0.43737212362E-01 -0.21206257617E-01  0.64536749667E-01  0.51100000000E-03 0.  1.
</event>
<event>
 8    1  0.1140544E+005  0.1043930E+01  0.7957747E-01            NaN
         13   -1    0    0    0    0  0.00000000000E+00  0.00000000000E+00  0.74505805969E-08  0.10566000000E+00  0.10566000000E+00 0.  1.
     999900   -1    0    0    0    0 -0.00000000000E+00 -0.00000000000E+00 -0.74505805969E-08  0.93827000000E+00  0.93827000000E+00 0. -1.
     999902    2    1    2    0    0  0.31345802274E-01  0.41847212361E-02 -0.15410106589E-02  0.10122685735E+01  0.10117733042E+01 0.  0.
     999903    2    3    3    0    0  0.10240700839E-01 -0.10613213528E+00 -0.58185202818E-01  0.12332324414E+00  0.21312030101E-01 0.  0.
         14    1    1    2    0    0 -0.31345802274E-01 -0.41847212361E-02  0.15410106589E-02  0.31661426466E-01  0.00000000000E+00 0. -1.
     999901    1    3    3    0    0  0.21105101435E-01  0.11031685651E+00  0.56644192159E-01  0.88894532939E+00  0.88000000000E+00 0. -1.
        -11    1    4    4    0    0  0.11263307775E-01 -0.23507829700E-01 -0.15201440506E-01  0.30179878623E-01  0.51100000000E-03 0. -1.
         11    1    4    4    0    0 -0.10226069363E-02 -0.82624305578E-01 -0.42983762312E-01  0.93143365522E-01  0.51100000000E-03 0.  1.
</event>
<event>
 8    1  0.1054086E+005  0.1043930E+01  0.7957747E-01            NaN
         13   -1    0    0    0    0  0.00000000000E+00  0.00000000000E+00  0.74505805969E-08  0.10566000000E+00  0.10566000000E+00 0. -1.
     999900   -1    0    0    0    0 -0.00000000000E+00 -0.00000000000E+00 -0.74505805969E-08  0.93827000000E+00  0.93827000000E+00 0.  1.
     999902    2    1    2    0    0  0.60071028539E-02  0.28615512776E-01  0.55117335173E-02  0.10141758060E+01  0.10137392433E+01 0.  0.
     999903    2    3    3    0    0  0.11585596741E+00 -0.41082367914E-01 -0.40260874590E-02  0.12456041848E+00  0.19716042571E-01 0.  0.
         14    1    1    2    0    0 -0.60071028539E-02 -0.28615512776E-01 -0.55117335173E-02  0.29754194032E-01  0.00000000000E+00 0. -1.
     999901    1    3    3    0    0 -0.10984886456E+00  0.69697880691E-01  0.95378209763E-02  0.88961538748E+00  0.88000000000E+00 0.  1.
        -11    1    4    4    0    0  0.13190452423E-01 -0.10901476198E-01 -0.38582293038E-02  0.17549281261E-01  0.51100000000E-03 0. -1.
         11    1    4    4    0    0  0.10266551499E+00 -0.30180891717E-01 -0.16785815525E-03  0.10701113722E+00  0.51100000000E-03 0.  1.
</event>
<event>
 8    1  0.1054086E+005  0.1043930E+01  0.7957747E-01            NaN
         13   -1    0    0    0    0  0.00000000000E+00  0.00000000000E+00  0.74505805969E-08  0.10566000000E+00  0.10566000000E+00 0.  1.
     999900   -1    0    0    0    0 -0.00000000000E+00 -0.00000000000E+00 -0.74505805969E-08  0.93827000000E+00  0.93827000000E+00 0. -1.
     999902    2    1    2    0    0  0.20713470116E-01  0.25180508489E-01 -0.34893903246E-02  0.10111385118E+01  0.10106066536E+01 0.  0.
     999903    2    3    3    0    0 -0.35807383166E-01 -0.10162479424E+00  0.44259942488E-01  0.11897586385E+00  0.24218715431E-01 0.  0.
         14    1    1    2    0    0 -0.20713470116E-01 -0.25180508489E-01  0.34893903246E-02  0.32791488177E-01  0.00000000000E+00 0. -1.
     999901    1    3    3    0    0  0.56520853283E-01  0.12680530272E+00 -0.47749332813E-01  0.89216264797E+00  0.88000000000E+00 0. -1.
        -11    1    4    4    0    0 -0.11129209011E-03 -0.28231222481E-02  0.69058282743E-02  0.74789030152E-02  0.51100000000E-03 0.  1.
         11    1    4    4    0    0 -0.35696091076E-01 -0.98801671987E-01  0.37354114214E-01  0.11149696083E+00  0.51100000000E-03 0. -1.
</event>
<event>
 7    1  0.1054086E+005  0.1043930E+01  0.7957747E-01            NaN
         13   -1    0    0    0    0  0.00000000000E+00  0.00000000000E+00  0.74505805969E-08  0.10566000000E+00  0.10566000000E+00 0.  1.
     999900   -1    0    0    0    0 -0.00000000000E+00 -0.00000000000E+00 -0.74505805969E-08  0.93827000000E+00  0.93827000000E+00 0.  1.
     999903    2    1    2    0    0 -0.46400588650E-01 -0.75189926476E-01  0.42675916936E-01  0.10031483203E+00  0.20863651826E-01 0.  0.
         14    1    1    2    0    0 -0.50895877830E-01 -0.52424080421E-02 -0.18083058056E-01  0.54266658371E-01  0.00000000000E+00 0.  1.
     999901    1    1    2    0    0  0.97296466479E-01  0.80432334519E-01 -0.24592858880E-01  0.88934850960E+00  0.88000000000E+00 0. -1.
        -11    1    3    3    0    0 -0.41905005375E-01 -0.69430584262E-01  0.31601531557E-01  0.87037655209E-01  0.51100000000E-03 0.  1.
         11    1    3    3    0    0 -0.44955832742E-02 -0.57593422142E-02  0.11074385379E-01  0.13277176817E-01  0.51100000000E-03 0. -1.
</event>
<event>
 8    1  0.1054086E+005  0.1043930E+01  0.7957747E-01            NaN
         13   -1    0    0    0    0  0.00000000000E+00  0.00000000000E+00  0.74505805969E-08  0.10566000000E+00  0.10566000000E+00 0. -1.
     999900   -1    0    0    0    0 -0.00000000000E+00 -0.00000000000E+00 -0.74505805969E-08  0.93827000000E+00  0.93827000000E+00 0.  1.
     999902    2    1    2    0    0  0.23344265023E-01 -0.14077589477E-03 -0.18912434988E-03  0.10205845444E+01  0.10203175006E+01 0.  0.
     999903    2    3    3    0    0  0.63055512062E-01  0.10844208352E+00  0.36967082988E-01  0.13224462963E+00  0.19656901120E-01 0.  0.
         14    1    1    2    0    0 -0.23344265023E-01  0.14077589477E-03  0.18912434988E-03  0.23345455561E-01  0.00000000000E+00 0.  1.
     999901    1    3    3    0    0 -0.39711247039E-01 -0.10858285942E+00 -0.37156207338E-01  0.88833991481E+00  0.88000000000E+00 0.  1.
        -11    1    4    4    0    0  0.38755530995E-01  0.58450961084E-01  0.11377600939E-01  0.71050805474E-01  0.51100000000E-03 0.  1.
         11    1    4    4    0    0  0.24299981067E-01  0.49991122436E-01  0.25589482049E-01  0.61193824156E-01  0.51100000000E-03 0. -1.
</event>
<event>
 8    1  0.1054086E+005  0.1043930E+01  0.7957747E-01            NaN
         13   -1    0    0    0    0  0.00000000000E+00  0.00000000000E+00  0.74505805969E-08  0.10566000000E+00  0.10566000000E+00 0. -1.
     999900   -1    0    0    0    0 -0.00000000000E+00 -0.00000000000E+00 -0.74505805969E-08  0.93827000000E+00  0.93827000000E+00 0. -1.
     999902    2    1    2    0    0 -0.72052946343E-02  0.22422100445E-01 -0.30133706290E-02  0.10201866375E+01  0.10199103040E+01 0.  0.
     999903    2    3    3    0    0  0.81987684921E-01 -0.43628971673E-01 -0.87666954279E-01  0.12918475147E+00  0.19435469934E-01 0.  0.
         14    1    1    2    0    0  0.72052946343E-02 -0.22422100445E-01  0.30133706290E-02  0.23743362476E-01  0.00000000000E+00 0. -1.
     999901    1    3    3    0    0 -0.89192979555E-01  0.66051072117E-01  0.84653583650E-01  0.89100188606E+00  0.88000000000E+00 0.  1.
        -11    1    4    4    0    0  0.10460809125E-01 -0.13572616090E-01 -0.18797228032E-01  0.25440938225E-01  0.51100000000E-03 0. -1.
         11    1    4    4    0    0  0.71526875795E-01 -0.30056355583E-01 -0.68869726246E-01  0.10374381324E+00  0.51100000000E-03 0.  1.
</event>
<event>
 8    1  0.1054086E+005  0.1043930E+01  0.7957747E-01            NaN
         13   -1    0    0    0    0  0.00000000000E+00  0.00000000000E+00  0.74505805969E-08  0.10566000000E+00  0.10566000000E+00 0. -1.
     999900   -1    0    0    0    0 -0.00000000000E+00 -0.00000000000E+00 -0.74505805969E-08  0.93827000000E+00  0.93827000000E+00 0.  1.
     999902    2    1    2    0    0 -0.10717852274E-01 -0.15795853202E-01 -0.10949902787E-01  0.10219235985E+01  0.10216866249E+01 0.  0.
     999903    2    3    3    0    0 -0.16146284997E-02 -0.80700658971E-01  0.10279189731E+00  0.13218616556E+00  0.19794060417E-01 0.  0.
         14    1    1    2    0    0  0.10717852274E-01  0.15795853202E-01  0.10949902787E-01  0.22006401496E-01  0.00000000000E+00 0. -1.
     999901    1    3    3    0    0 -0.91032237744E-02  0.64904805768E-01 -0.11374180010E+00  0.88973743295E+00  0.88000000000E+00 0.  1.
        -11    1    4    4    0    0  0.11373216978E-03 -0.41555479887E-01  0.37179185586E-01  0.55762207682E-01  0.51100000000E-03 0.  1.
         11    1    4    4    0    0 -0.17283606695E-02 -0.39145179083E-01  0.65612711729E-01  0.76423957876E-01  0.51100000000E-03 0. -1.
</event>
<event>
 8    1  0.1054086E+005  0.1043930E+01  0.7957747E-01            NaN
         13   -1    0    0    0    0  0.00000000000E+00  0.00000000000E+00  0.74505805969E-08  0.10566000000E+00  0.10566000000E+00 0.  1.
     999900   -1    0    0    0    0 -0.00000000000E+00 -0.00000000000E+00 -0.74505805969E-08  0.93827000000E+00  0.93827000000E+00 0.  1.
     999902    2    1    2    0    0 -0.16459653381E-01  0.17222698908E-01  0.52956937819E-02  0.10195253709E+01  0.10192332393E+01 0.  0.
     999903    2    3    3    0    0 -0.96777894707E-01 -0.23042296498E-01 -0.82332664718E-01  0.13062097846E+00  0.19653600263E-01 0.  0.
         14    1    1    2    0    0  0.16459653381E-01 -0.17222698908E-01 -0.52956937819E-02  0.24404629064E-01  0.00000000000E+00 0.  1.
     999901    1    3    3    0    0  0.80318241326E-01  0.40264995406E-01  0.87628358500E-01  0.88890439247E+00  0.88000000000E+00 0. -1.
        -11    1    4    4    0    0 -0.45248220764E-01 -0.25695492797E-02 -0.44325017434E-01  0.63395365425E-01  0.51100000000E-03 0.  1.
         11    1    4    4    0    0 -0.51529673943E-01 -0.20472747218E-01 -0.38007647284E-01  0.67225613038E-01  0.51100000000E-03 0. -1.
</event>
<event>
 8    1  0.1054086E+005  0.1043930E+01  0.7957747E-01            NaN
         13   -1    0    0    0    0  0.00000000000E+00  0.00000000000E+00  0.74505805969E-08  0.10566000000E+00  0.10566000000E+00 0.  1.
     999900   -1    0    0    0    0 -0.00000000000E+00 -0.00000000000E+00 -0.74505805969E-08  0.93827000000E+00  0.93827000000E+00 0. -1.
     999902    2    1    2    0    0 -0.18762564817E-02  0.22190542125E-01  0.84732418131E-02  0.10201027818E+01  0.10198244698E+01 0.  0.
     999903    2    3    3    0    0  0.29652197648E-01  0.10785106269E+00  0.69725787527E-01  0.13326365181E+00  0.19657337045E-01 0.  0.
         14    1    1    2    0    0  0.18762564817E-02 -0.22190542125E-01 -0.84732418131E-02  0.23827218155E-01  0.00000000000E+00 0. -1.
     999901    1    3    3    0    0 -0.31528454130E-01 -0.85660520563E-01 -0.61252545714E-01  0.88683913003E+00  0.88000000000E+00 0. -1.
        -11    1    4    4    0    0  0.15892094777E-01  0.28398297275E-01  0.25106344973E-01  0.41104885883E-01  0.51100000000E-03 0. -1.
         11    1    4    4    0    0  0.13760102871E-01  0.79452765412E-01  0.44619442554E-01  0.92158765928E-01  0.51100000000E-03 0.  1.
</event>
<event>
 8    1  0.1054086E+005  0.1043930E+01  0.7957747E-01            NaN
         13   -1    0    0    0    0  0.00000000000E+00  0.00000000000E+00  0.74505805969E-08  0.10566000000E+00  0.10566000000E+00 0. -1.
     999900   -1    0    0    0    0 -0.00000000000E+00 -0.00000000000E+00 -0.74505805969E-08  0.93827000000E+00  0.93827000000E+00 0.  1.
     999902    2    1    2    0    0 -0.20489356207E-01 -0.95224251149E-02 -0.10980106642E-01  0.10188092309E+01  0.10184994825E+01 0.  0.
     999903    2    3    3    0    0 -0.42298022112E-02  0.93745035474E-01  0.84608135877E-01  0.12748120284E+00  0.16938049425E-01 0.  0.
         14    1    1    2    0    0  0.20489356207E-01  0.95224251149E-02  0.10980106642E-01  0.25120769090E-01  0.00000000000E+00 0. -1.
     999901    1    3    3    0    0 -0.16259553995E-01 -0.10326746059E+00 -0.95588242519E-01  0.89132802807E+00  0.88000000000E+00 0.  1.
        -11    1    4    4    0    0  0.49927631292E-02  0.58777259006E-01  0.56399973029E-01  0.81614410116E-01  0.51100000000E-03 0. -1.
         11    1    4    4    0    0 -0.92225653403E-02  0.34967776468E-01  0.28208162848E-01  0.45866792725E-01  0.51100000000E-03 0.  1.
</event>
<event>
 8    1  0.1054086E+005  0.1043930E+01  0.7957747E-01            NaN
         13   -1    0    0    0    0  0.00000000000E+00  0.00000000000E+00  0.74505805969E-08  0.10566000000E+00  0.10566000000E+00 0. -1.
     999900   -1    0    0    0    0 -0.00000000000E+00 -0.00000000000E+00 -0.74505805969E-08  0.93827000000E+00  0.93827000000E+00 0.  1.
     999902    2    1    2    0    0 -0.18525733726E-01 -0.13837952016E-01 -0.54763419442E-02  0.10201669605E+01  0.10198901633E+01 0.  0.
     999903    2    3    3    0    0 -0.10408871760E+00 -0.35344848046E-01  0.70379117953E-01  0.13250845543E+00  0.22837493372E-01 0.  0.
         14    1    1    2    0    0  0.18525733726E-01  0.13837952016E-01  0.54763419442E-02  0.23763039518E-01  0.00000000000E+00 0. -1.
     999901    1    3    3    0    0  0.85562983871E-01  0.21506896030E-01 -0.75855459897E-01  0.88765850505E+00  0.88000000000E+00 0.  1.
        -11    1    4    4    0    0 -0.36180130958E-01 -0.21146871541E-01  0.35143492916E-01  0.54694773676E-01  0.51100000000E-03 0. -1.
         11    1    4    4    0    0 -0.67908586639E-01 -0.14197976505E-01  0.35235625036E-01  0.77813681759E-01  0.51100000000E-03 0.  1.
</event>
<event>
 8    1  0.1054086E+005  0.1043930E+01  0.7957747E-01            NaN
         13   -1    0    0    0    0  0.00000000000E+00  0.00000000000E+00  0.74505805969E-08  0.10566000000E+00  0.10566000000E+00 0. -1.
     999900   -1    0    0    0    0 -0.00000000000E+00 -0.00000000000E+00 -0.74505805969E-08  0.93827000000E+00  0.93827000000E+00 0.  1.
     999902    2    1    2    0    0  0.23163248342E-01 -0.88772892224E-02  0.50916496566E-02  0.10186067452E+01  0.10182919199E+01 0.  0.
     999903    2    3    3    0    0  0.10720925656E+00 -0.17087126128E-01 -0.69093266087E-01  0.13145707651E+00  0.26856823628E-01 0.  0.
         14    1    1    2    0    0 -0.23163248342E-01  0.88772892224E-02 -0.50916496566E-02  0.25323254805E-01  0.00000000000E+00 0.  1.
     999901    1    3    3    0    0 -0.84046008217E-01  0.82098369054E-02  0.74184915744E-01  0.88714966868E+00  0.88000000000E+00 0. -1.
        -11    1    4    4    0    0  0.67871591658E-01  0.11121669520E-02 -0.35418974189E-01  0.76567321509E-01  0.51100000000E-03 0.  1.
         11    1    4    4    0    0  0.39337664901E-01 -0.18199293080E-01 -0.33674291899E-01  0.54889755004E-01  0.51100000000E-03 0. -1.
</event>
<event>
 8    1  0.1054086E+005  0.1043930E+01  0.7957747E-01            NaN
         13   -1    0    0    0    0  0.00000000000E+00  0.00000000000E+00  0.74505805969E-08  0.10566000000E+00  0.10566000000E+00 0.  1.
     999900   -1    0    0    0    0 -0.00000000000E+00 -0.00000000000E+00 -0.74505805969E-08  0.93827000000E+00  0.93827000000E+00 0.  1.
     999902    2    1    2    0    0 -0.21196562311E-01 -0.36574511163E-02 -0.10061762994E-01  0.10201832049E+01  0.10199067905E+01 0.  0.
     999903    2    3    3    0    0  0.26889336548E-01  0.63538004901E-01 -0.10932730754E+00  0.13075578723E+00  0.19608703022E-01 0.  0.
         14    1    1    2    0    0  0.21196562311E-01  0.36574511163E-02  0.10061762994E-01  0.23746795090E-01  0.00000000000E+00 0. -1.
     999901    1    3    3    0    0 -0.48085898859E-01 -0.67195456017E-01  0.99265544548E-01  0.88942741768E+00  0.88000000000E+00 0. -1.
        -11    1    4    4    0    0  0.28409353461E-01  0.46481281434E-01 -0.79907344488E-01  0.96711145748E-01  0.51100000000E-03 0. -1.
         11    1    4    4    0    0 -0.15200169132E-02  0.17056723466E-01 -0.29419963054E-01  0.34044641486E-01  0.51100000000E-03 0.  1.
</event>
<event>
 8    1  0.1054086E+005  0.1043930E+01  0.7957747E-01            NaN
         13   -1    0    0    0    0  0.00000000000E+00  0.00000000000E+00  0.74505805969E-08  0.10566000000E+00  0.10566000000E+00 0.  1.
     999900   -1    0    0    0    0 -0.00000000000E+00 -0.00000000000E+00 -0.74505805969E-08  0.93827000000E+00  0.93827000000E+00 0.  1.
     999902    2    1    2    0    0 -0.22528334066E-01  0.92539049856E-02  0.83676827086E-02  0.10181777436E+01  0.10178520221E+01 0.  0.
     999903    2    3    3    0    0  0.12385269026E+00 -0.10199735606E-01 -0.60132680773E-02  0.12575818976E+00  0.18315004997E-01 0.  0.
         14    1    1    2    0    0  0.22528334066E-01 -0.92539049856E-02 -0.83676827086E-02  0.25752256351E-01  0.00000000000E+00 0. -1.
     999901    1    3    3    0    0 -0.14638102433E+00  0.19453640591E-01  0.14380950786E-01  0.89241955389E+00  0.88000000000E+00 0.  1.
        -11    1    4    4    0    0  0.26433122371E-01 -0.46506834426E-02 -0.84697021843E-02  0.28148459831E-01  0.51100000000E-03 0. -1.
         11    1    4    4    0    0  0.97419567889E-01 -0.55490521630E-02  0.24564341070E-02  0.97609729930E-01  0.51100000000E-03 0.  1.
</event>
<event>
 8    1  0.1054086E+005  0.1043930E+01  0.7957747E-01            NaN
         13   -1    0    0    0    0  0.00000000000E+00  0.00000000000E+00  0.74505805969E-08  0.10566000000E+00  0.10566000000E+00 0. -1.
     999900   -1    0    0    0    0 -0.00000000000E+00 -0.00000000000E+00 -0.74505805969E-08  0.93827000000E+00  0.93827000000E+00 0. -1.
     999902    2    1    2    0    0 -0.94014450546E-02  0.17143608535E-01  0.70644681661E-02  0.10231406471E+01  0.10229294143E+01 0.  0.
     999903    2    3    3    0    0  0.31231247535E-01 -0.73147607675E-01 -0.10202039663E+00  0.13089458960E+00  0.19981714810E-01 0.  0.
         14    1    1    2    0    0  0.94014450546E-02 -0.17143608535E-01 -0.70644681661E-02  0.20789352881E-01  0.00000000000E+00 0.  1.
     999901    1    3    3    0    0 -0.40632692590E-01  0.90291216210E-01  0.10908486480E+00  0.89224605752E+00  0.88000000000E+00 0.  1.
        -11    1    4    4    0    0  0.23164038578E-01 -0.54423339674E-01 -0.60363828196E-01  0.84513463188E-01  0.51100000000E-03 0. -1.
         11    1    4    4    0    0  0.80672089574E-02 -0.18724268000E-01 -0.41656568434E-01  0.46381126412E-01  0.51100000000E-03 0.  1.
</event>
<event>
 8    1  0.1054086E+005  0.1043930E+01  0.7957747E-01            NaN
         13   -1    0    0    0    0  0.00000000000E+00  0.00000000000E+00  0.74505805969E-08  0.10566000000E+00  0.10566000000E+00 0.  1.
     999900   -1    0    0    0    0 -0.00000000000E+00 -0.00000000000E+00 -0.74505805969E-08  0.93827000000E+00  0.93827000000E+00 0.  1.
     999902    2    1    2    0    0  0.37245621410E-02 -0.21776182365E-02 -0.22698138764E-01  0.10208254574E+01  0.10205639591E+01 0.  0.
     999903    2    3    3    0    0  0.76285195314E-01  0.73687783863E-01  0.71566245983E-01  0.12958678066E+00  0.20534985847E-01 0.  0.
         14    1    1    2    0    0 -0.37245621410E-02  0.21776182365E-02  0.22698138764E-01  0.23104542576E-01  0.00000000000E+00 0.  1.
     999901    1    3    3    0    0 -0.72560633173E-01 -0.75865402099E-01 -0.94264384747E-01  0.89123867676E+00  0.88000000000E+00 0.  1.
        -11    1    4    4    0    0  0.26913039745E-01  0.14166038418E-01  0.24478565807E-01  0.39044201333E-01  0.51100000000E-03 0.  1.
         11    1    4    4    0    0  0.49372155569E-01  0.59521745444E-01  0.47087680177E-01  0.90542579330E-01  0.51100000000E-03 0. -1.
</event>
<event>
 8    1  0.1054086E+005  0.1043930E+01  0.7957747E-01            NaN
         13   -1    0    0    0    0  0.00000000000E+00  0.00000000000E+00  0.74505805969E-08  0.10566000000E+00  0.10566000000E+00 0. -1.
     999900   -1    0    0    0    0 -0.00000000000E+00 -0.00000000000E+00 -0.74505805969E-08  0.93827000000E+00  0.93827000000E+00 0. -1.
     999902    2    1    2    0    0 -0.10238938845E-01 -0.10907316660E-01 -0.19066828443E-01  0.10196947081E+01  0.10194066649E+01 0.  0.
     999903    2    3    3    0    0 -0.12270315325E+00  0.27586789009E-02  0.39795145036E-01  0.13048174664E+00  0.19446298089E-01 0.  0.
         14    1    1    2    0    0  0.10238938845E-01  0.10907316660E-01  0.19066828443E-01  0.24235291875E-01  0.00000000000E+00 0. -1.
     999901    1    3    3    0    0  0.11246421441E+00 -0.13665995561E-01 -0.58861973479E-01  0.88921296149E+00  0.88000000000E+00 0. -1.
        -11    1    4    4    0    0 -0.64556897187E-01  0.17474165433E-02  0.31090806992E-01  0.71676675700E-01  0.51100000000E-03 0. -1.
         11    1    4    4    0    0 -0.58146256066E-01  0.10112623575E-02  0.87043380437E-02  0.58805070937E-01  0.51100000000E-03 0.  1.
</event>
<event>
 8    1  0.1054086E+005  0.1043930E+01  0.7957747E-01            NaN
         13   -1    0    0    0    0  0.00000000000E+00  0.00000000000E+00  0.74505805969E-08  0.10566000000E+00  0.10566000000E+00 0.  1.
     999900   -1    0    0    0    0 -0.00000000000E+00 -0.00000000000E+00 -0.74505805969E-08  0.93827000000E+00  0.93827000000E+00 0. -1.
     999902    2    1    2    0    0  0.84208590584E-02  0.15913711024E-01 -0.14519288746E-01  0.10208006504E+01  0.10205385838E+01 0.  0.
     999903    2    3    3    0    0 -0.16486731558E-03 -0.52644731550E-01  0.11555798243E+00  0.12855961168E+00  0.20060695710E-01 0.  0.
         14    1    1    2    0    0 -0.84208590584E-02 -0.15913711024E-01  0.14519288746E-01  0.23129349570E-01  0.00000000000E+00 0. -1.
     999901    1    3    3    0    0  0.85857263740E-02  0.68558442574E-01 -0.13007727117E+00  0.89224103875E+00  0.88000000000E+00 0. -1.
        -11    1    4    4    0    0 -0.20435810031E-02 -0.16612089738E-01  0.18209728805E-01  0.24738494153E-01  0.51100000000E-03 0.  1.
         11    1    4    4    0    0  0.18787136876E-02 -0.36032641811E-01  0.97348253624E-01  0.10382111753E+00  0.51100000000E-03 0. -1.
</event>
<event>
 8    1  0.1054086E+005  0.1043930E+01  0.7957747E-01            NaN
         13   -1    0    0    0    0  0.00000000000E+00  0.00000000000E+00  0.74505805969E-08  0.10566000000E+00  0.10566000000E+00 0. -1.
     999900   -1    0    0    0    0 -0.00000000000E+00 -0.00000000000E+00 -0.74505805969E-08  0.93827000000E+00  0.93827000000E+00 0. -1.
     999902    2    1    2    0    0  0.82199459870E-02 -0.23802101498E-01  0.20281879132E-02  0.10186669619E+01  0.10183536508E+01 0.  0.
     999903    2    3    3    0    0 -0.14141415713E-01 -0.55397558168E-01  0.11548987727E+00  0.13053867256E+00  0.20822204310E-01 0.  0.
         14    1    1    2    0    0 -0.82199459870E-02  0.23802101498E-01 -0.20281879132E-02  0.25263038099E-01  0.00000000000E+00 0. -1.
     999901    1    3    3    0    0  0.22361361700E-01  0.31595456670E-01 -0.11346168936E+00  0.88812828934E+00  0.88000000000E+00 0. -1.
        -11    1    4    4    0    0  0.53556832524E-02 -0.15647757038E-01  0.29810658172E-01  0.34095045169E-01  0.51100000000E-03 0.  1.
         11    1    4    4    0    0 -0.19497098966E-01 -0.39749801131E-01  0.85679219097E-01  0.96443627390E-01  0.51100000000E-03 0. -1.
</event>
<event>
 8    1  0.1054086E+005  0.1043930E+01  0.7957747E-01            NaN
         13   -1    0    0    0    0  0.00000000000E+00  0.00000000000E+00  0.74505805969E-08  0.10566000000E+00  0.10566000000E+00 0. -1.
     999900   -1    0    0    0    0 -0.00000000000E+00 -0.00000000000E+00 -0.74505805969E-08  0.93827000000E+00  0.93827000000E+00 0. -1.
     999902    2    1    2    0    0 -0.12725533274E-01  0.15535324721E-01  0.69872454654E-02  0.10226671895E+01  0.10224461225E+01 0.  0.
     999903    2    3    3    0    0 -0.24291254041E-01  0.70264084154E-01 -0.10881943716E+00  0.13331900642E+00  0.20129108857E-01 0.  0.
         14    1    1    2    0    0  0.12725533274E-01 -0.15535324721E-01 -0.69872454654E-02  0.21262810503E-01  0.00000000000E+00 0. -1.
     999901    1    3    3    0    0  0.11565720767E-01 -0.54728759433E-01  0.11580668263E+00  0.88934818308E+00  0.88000000000E+00 0.  1.
        -11    1    4    4    0    0 -0.65228706894E-02  0.45810961549E-01 -0.58147231016E-01  0.74313885889E-01  0.51100000000E-03 0. -1.
         11    1    4    4    0    0 -0.17768383352E-01  0.24453122605E-01 -0.50672206144E-01  0.59005120529E-01  0.51100000000E-03 0.  1.
</event>
<event>
 8    1  0.1054086E+005  0.1043930E+01  0.7957747E-01            NaN
         13   -1    0    0    0    0  0.00000000000E+00  0.00000000000E+00  0.74505805969E-08  0.10566000000E+00  0.10566000000E+00 0.  1.
     999900   -1    0    0    0    0 -0.00000000000E+00 -0.00000000000E+00 -0.74505805969E-08  0.93827000000E+00  0.93827000000E+00 0. -1.
     999902    2    1    2    0    0 -0.22005898306E-01  0.62176108305E-02  0.16071916329E-01  0.10159796022E+01  0.10155950607E+01 0.  0.
     999903    2    3    3    0    0 -0.35146520678E-01 -0.49837699624E-01  0.11169528503E+00  0.12892903854E+00  0.20682989655E-01 0.  0.
         14    1    1    2    0    0  0.22005898306E-01 -0.62176108305E-02 -0.16071916329E-01  0.27950397835E-01  0.00000000000E+00 0. -1.
     999901    1    3    3    0    0  0.13140622373E-01  0.56055310455E-01 -0.95623368701E-01  0.88705056363E+00  0.88000000000E+00 0. -1.
        -11    1    4    4    0    0 -0.26157094151E-01 -0.24700090385E-01  0.78303254294E-01  0.86173944980E-01  0.51100000000E-03 0.  1.
         11    1    4    4    0    0 -0.89894265275E-02 -0.25137609239E-01  0.33392030736E-01  0.42755093559E-01  0.51100000000E-03 0. -1.
</event>
<event>
 8    1  0.1054086E+005  0.1043930E+01  0.7957747E-01            NaN
         13   -1    0    0    0    0  0.00000000000E+00  0.00000000000E+00  0.74505805969E-08  0.10566000000E+00  0.10566000000E+00 0. -1.
     999900   -1    0    0    0    0 -0.00000000000E+00 -0.00000000000E+00 -0.74505805969E-08  0.93827000000E+00  0.93827000000E+00 0.  1.
     999902    2    1    2    0    0  0.11832846346E-01 -0.19334985384E-01  0.43788001091E-02  0.10208425185E+01  0.10205814106E+01 0.  0.
     999903    2    3    3    0    0  0.41098505944E-01 -0.12583623792E+00  0.17265634889E-02  0.13393438909E+00  0.20287769550E-01 0.  0.
         14    1    1    2    0    0 -0.11832846346E-01  0.19334985384E-01 -0.43788001091E-02  0.23087481518E-01  0.00000000000E+00 0.  1.
     999901    1    3    3    0    0 -0.29265659598E-01  0.10650125254E+00  0.26522366201E-02  0.88690812939E+00  0.88000000000E+00 0. -1.
        -11    1    4    4    0    0  0.35901804337E-02 -0.39076040547E-01 -0.24452884790E-02  0.39320057186E-01  0.51100000000E-03 0. -1.
         11    1    4    4    0    0  0.37508325510E-01 -0.86760197377E-01  0.41718519679E-02  0.94614331902E-01  0.51100000000E-03 0.  1.
</event>
<event>
 8    1  0.1054086E+005  0.1043930E+01  0.7957747E-01            NaN
         13   -1    0    0    0    0  0.00000000000E+00  0.00000000000E+00  0.74505805969E-08  0.10566000000E+00  0.10566000000E+00 0. -1.
     999900   -1    0    0    0    0 -0.00000000000E+00 -0.00000000000E+00 -0.74505805969E-08  0.93827000000E+00  0.93827000000E+00 0.  1.
     999902    2    1    2    0    0  0.17088007835E-01  0.18209569800E-01 -0.11133564377E-01  0.10165887363E+01  0.10162209967E+01 0.  0.
     999903    2    3    3    0    0  0.10383809595E+00  0.40752589486E-01 -0.64495259257E-01  0.13042778254E+00  0.20214951642E-01 0.  0.
         14    1    1    2    0    0 -0.17088007835E-01 -0.18209569800E-01  0.11133564377E-01  0.27341263684E-01  0.00000000000E+00 0. -1.
     999901    1    3    3    0    0 -0.86750088116E-01 -0.22543019686E-01  0.53361694880E-01  0.88616095378E+00  0.88000000000E+00 0. -1.
        -11    1    4    4    0    0  0.16324670243E-01  0.14162225794E-01 -0.16053174702E-01  0.26926363234E-01  0.51100000000E-03 0.  1.
         11    1    4    4    0    0  0.87513425708E-01  0.26590363692E-01 -0.48442084556E-01  0.10350141930E+00  0.51100000000E-03 0. -1.
</event>
<event>
 8    1  0.1054086E+005  0.1043930E+01  0.7957747E-01            NaN
         13   -1    0    0    0    0  0.00000000000E+00  0.00000000000E+00  0.74505805969E-08  0.10566000000E+00  0.10566000000E+00 0. -1.
     999900   -1    0    0    0    0 -0.00000000000E+00 -0.00000000000E+00 -0.74505805969E-08  0.93827000000E+00  0.93827000000E+00 0. -1.
     999902    2    1    2    0    0 -0.23765688172E-01 -0.15541377381E-02 -0.93256607733E-02  0.10183528378E+01  0.10180315864E+01 0.  0.
     999903    2    3    3    0    0  0.11462409147E+00 -0.18522171209E-01  0.44076004188E-01  0.12577713618E+00  0.19885690023E-01 0.  0.
         14    1    1    2    0    0  0.23765688172E-01  0.15541377381E-02  0.93256607733E-02  0.25577162220E-01  0.00000000000E+00 0. -1.
     999901    1    3    3    0    0 -0.13838977964E+00  0.16968033471E-01 -0.53401664962E-01  0.89257570160E+00  0.88000000000E+00 0.  1.
        -11    1    4    4    0    0  0.37197562242E-01 -0.21675508204E-02  0.23335587378E-01  0.43967802682E-01  0.51100000000E-03 0.  1.
         11    1    4    4    0    0  0.77426529230E-01 -0.16354620389E-01  0.20740416810E-01  0.81809333496E-01  0.51100000000E-03 0. -1.
</event>
<event>
 8    1  0.1054086E+005  0.1043930E+01  0.7957747E-01            NaN
         13   -1    0    0    0    0  0.00000000000E+00  0.00000000000E+00  0.74505805969E-08  0.10566000000E+00  0.10566000000E+00 0. -1.
     999900   -1    0    0    0    0 -0.00000000000E+00 -0.00000000000E+00 -0.74505805969E-08  0.93827000000E+00  0.93827000000E+00 0.  1.
     999902    2    1    2    0    0 -0.52971021570E-02 -0.29016996805E-02  0.30479892151E-01  0.10128574562E+01  0.10123807207E+01 0.  0.
     999903    2    3    3    0    0  0.81067434172E-01  0.52730337252E-01  0.77727733950E-01  0.12562236040E+00  0.19671285125E-01 0.  0.
         14    1    1    2    0    0  0.52971021570E-02  0.29016996805E-02 -0.30479892151E-01  0.31072543794E-01  0.00000000000E+00 0.  1.
     999901    1    3    3    0    0 -0.86364536329E-01 -0.55632036933E-01 -0.47247841799E-01  0.88723509580E+00  0.88000000000E+00 0.  1.
        -11    1    4    4    0    0  0.64913710564E-01  0.50571179082E-01  0.62787972288E-01  0.10350760628E+00  0.51100000000E-03 0. -1.
         11    1    4    4    0    0  0.16153723608E-01  0.21591581703E-02  0.14939761662E-01  0.22114754123E-01  0.51100000000E-03 0.  1.
</event>
<event>
 8    1  0.1054086E+005  0.1043930E+01  0.7957747E-01            NaN
         13   -1    0    0    0    0  0.00000000000E+00  0.00000000000E+00  0.74505805969E-08  0.10566000000E+00  0.10566000000E+00 0. -1.
     999900   -1    0    0    0    0 -0.00000000000E+00 -0.00000000000E+00 -0.74505805969E-08  0.93827000000E+00  0.93827000000E+00 0. -1.
     999902    2    1    2    0    0  0.11412904417E-01  0.92385220512E-02  0.13110682768E-01  0.10242451155E+01  0.10240559369E+01 0.  0.
     999903    2    3    3    0    0 -0.73135295142E-01  0.11469589363E-01 -0.10731174526E+00  0.13202600734E+00  0.20850253430E-01 0.  0.
         14    1    1    2    0    0 -0.11412904417E-01 -0.92385220512E-02 -0.13110682768E-01  0.19684884546E-01  0.00000000000E+00 0.  1.
     999901    1    3    3    0    0  0.84548199559E-01 -0.22310673121E-02  0.12042242803E+00  0.89221910811E+00  0.88000000000E+00 0.  1.
        -11    1    4    4    0    0 -0.51149589077E-01  0.82789777095E-02 -0.57044425625E-01  0.77065877992E-01  0.51100000000E-03 0.  1.
         11    1    4    4    0    0 -0.21985706064E-01  0.31906116538E-02 -0.50267319635E-01  0.54960129350E-01  0.51100000000E-03 0. -1.
</event>
<event>
 8    1  0.1054086E+005  0.1043930E+01  0.7957747E-01            NaN
         13   -1    0    0    0    0  0.00000000000E+00  0.00000000000E+00  0.74505805969E-08  0.10566000000E+00  0.10566000000E+00 0.  1.
     999900   -1    0    0    0    0 -0.00000000000E+00 -0.00000000000E+00 -0.74505805969E-08  0.93827000000E+00  0.93827000000E+00 0.  1.
     999902    2    1    2    0    0 -0.71009808659E-02  0.90973373153E-02 -0.22759651004E-01  0.10184116304E+01  0.10180918729E+01 0.  0.
     999903    2    3    3    0    0 -0.93184439251E-01 -0.10846656438E-01 -0.89550701386E-01  0.13146790660E+00  0.21528879980E-01 0.  0.
         14    1    1    2    0    0  0.71009808659E-02 -0.90973373153E-02  0.22759651004E-01  0.25518369644E-01  0.00000000000E+00 0. -1.
     999901    1    3    3    0    0  0.86083458385E-01  0.19943993753E-01  0.66791050382E-01  0.88694372375E+00  0.88000000000E+00 0. -1.
        -11    1    4    4    0    0 -0.48063051844E-01  0.10974479008E-02 -0.33874855780E-01  0.58813504568E-01  0.51100000000E-03 0.  1.
         11    1    4    4    0    0 -0.45121387407E-01 -0.11944104339E-01 -0.55675845606E-01  0.72654402034E-01  0.51100000000E-03 0. -1.
</event>
<event>
 8    1  0.1054086E+005  0.1043930E+01  0.7957747E-01            NaN
         13   -1    0    0    0    0  0.00000000000E+00  0.00000000000E+00  0.74505805969E-08  0.10566000000E+00  0.10566000000E+00 0.  1.
     999900   -1    0    0    0    0 -0.00000000000E+00 -0.00000000000E+00 -0.74505805969E-08  0.93827000000E+00  0.93827000000E+00 0. -1.
     999902    2    1    2    0    0 -0.16162379099E-01  0.80531926268E-02  0.15481536014E-01  0.10201444084E+01  0.10198670794E+01 0.  0.
     999903    2    3    3    0    0 -0.52404088924E-02 -0.94997347545E-01  0.83979108641E-01  0.13142025508E+00  0.34158964151E-01 0.  0.
         14    1    1    2    0    0  0.16162379099E-01 -0.80531926268E-02 -0.15481536014E-01  0.23785591584E-01  0.00000000000E+00 0. -1.
     999901    1    3    3    0    0 -0.10921970206E-01  0.10305054017E+00 -0.68497572627E-01  0.88872415333E+00  0.88000000000E+00 0.  1.
        -11    1    4    4    0    0  0.65190144604E-03 -0.44000852845E-01  0.60889680082E-01  0.75128651579E-01  0.51100000000E-03 0. -1.
         11    1    4    4    0    0 -0.58923103385E-02 -0.50996494700E-01  0.23089428559E-01  0.56291603504E-01  0.51100000000E-03 0.  1.
</event>
<event>
 8    1  0.1054086E+005  0.1043930E+01  0.7957747E-01            NaN
         13   -1    0    0    0    0  0.00000000000E+00  0.00000000000E+00  0.74505805969E-08  0.10566000000E+00  0.10566000000E+00 0. -1.
     999900   -1    0    0    0    0 -0.00000000000E+00 -0.00000000000E+00 -0.74505805969E-08  0.93827000000E+00  0.93827000000E+00 0. -1.
     999902    2    1    2    0    0  0.27424589306E-02 -0.18797921893E-01 -0.14838880380E-01  0.10198244961E+01  0.10195395664E+01 0.  0.
     999903    2    3    3    0    0 -0.10050676522E+00 -0.66965977922E-01 -0.48930770123E-01  0.13182516001E+00  0.19939922095E-01 0.  0.
         14    1    1    2    0    0 -0.27424589306E-02  0.18797921893E-01  0.14838880380E-01  0.24105503923E-01  0.00000000000E+00 0. -1.
     999901    1    3    3    0    0  0.10324922415E+00  0.48168056029E-01  0.34091889743E-01  0.88799933607E+00  0.88000000000E+00 0.  1.
        -11    1    4    4    0    0 -0.60416892520E-01 -0.46049573135E-01 -0.39531821469E-01  0.85637550860E-01  0.51100000000E-03 0.  1.
         11    1    4    4    0    0 -0.40089872698E-01 -0.20916404787E-01 -0.93989486538E-02  0.46187609149E-01  0.51100000000E-03 0. -1.
</event>
<event>
 8    1  0.1054086E+005  0.1043930E+01  0.7957747E-01            NaN
         13   -1    0    0    0    0  0.00000000000E+00  0.00000000000E+00  0.74505805969E-08  0.10566000000E+00  0.10566000000E+00 0.  1.
     999900   -1    0    0    0    0 -0.00000000000E+00 -0.00000000000E+00 -0.74505805969E-08  0.93827000000E+00  0.93827000000E+00 0.  1.
     999902    2    1    2    0    0 -0.14777438793E-02 -0.21012108437E-01  0.11955505302E-01  0.10197096256E+01  0.10194219411E+01 0.  0.
     999903    2    3    3    0    0 -0.78963247027E-01 -0.57740610043E-01  0.86989601150E-01  0.13236352541E+00  0.19589275657E-01 0.  0.
         14    1    1    2    0    0  0.14777438793E-02  0.21012108437E-01 -0.11955505302E-01  0.24220374377E-01  0.00000000000E+00 0. -1.
     999901    1    3    3    0    0  0.77485503148E-01  0.36728501605E-01 -0.75034095848E-01  0.88734610022E+00  0.88000000000E+00 0.  1.
        -11    1    4    4    0    0 -0.15195160735E-01 -0.53884475486E-02  0.22288889147E-01  0.27513341803E-01  0.51100000000E-03 0.  1.
         11    1    4    4    0    0 -0.63768086293E-01 -0.52352162494E-01  0.64700712003E-01  0.10485018360E+00  0.51100000000E-03 0. -1.
</event>
<event>
 8    1  0.1054086E+005  0.1043930E+01  0.7957747E-01            NaN
         13   -1    0    0    0    0  0.00000000000E+00  0.00000000000E+00  0.74505805969E-08  0.10566000000E+00  0.10566000000E+00 0. -1.
     999900   -1    0    0    0    0 -0.00000000000E+00 -0.00000000000E+00 -0.74505805969E-08  0.93827000000E+00  0.93827000000E+00 0.  1.
     999902    2    1    2    0    0  0.20432893398E-01  0.24889261739E-03  0.12238470676E-01  0.10201109898E+01  0.10198328718E+01 0.  0.
     999903    2    3    3    0    0 -0.96761619373E-01  0.66627223171E-01  0.49698487481E-01  0.12907569905E+00  0.19712903783E-01 0.  0.
         14    1    1    2    0    0 -0.20432893398E-01 -0.24889261739E-03 -0.12238470676E-01  0.23819010153E-01  0.00000000000E+00 0.  1.
     999901    1    3    3    0    0  0.11719451277E+00 -0.66378330554E-01 -0.37460016805E-01  0.89103529080E+00  0.88000000000E+00 0. -1.
        -11    1    4    4    0    0 -0.49928982092E-01  0.23013958344E-01  0.26164150217E-01  0.60888171339E-01  0.51100000000E-03 0.  1.
         11    1    4    4    0    0 -0.46832637281E-01  0.43613264827E-01  0.23534337264E-01  0.68187527709E-01  0.51100000000E-03 0. -1.
</event>
<event>
 8    1  0.1054086E+005  0.1043930E+01  0.7957747E-01            NaN
         13   -1    0    0    0    0  0.00000000000E+00  0.00000000000E+00  0.74505805969E-08  0.10566000000E+00  0.10566000000E+00 0. -1.
     999900   -1    0    0    0    0 -0.00000000000E+00 -0.00000000000E+00 -0.74505805969E-08  0.93827000000E+00  0.93827000000E+00 0. -1.
     999902    2    1    2    0    0 -0.13373863263E-01  0.14283392264E-01 -0.13211800165E-01  0.10203201043E+01  0.10200469048E+01 0.  0.
     999903    2    3    3    0    0  0.11120348528E+00  0.38322479664E-01 -0.54919213664E-01  0.13024319644E+00  0.10599179447E-01 0.  0.
         14    1    1    2    0    0  0.13373863263E-01 -0.14283392264E-01  0.13211800165E-01  0.23609895737E-01  0.00000000000E+00 0. -1.
     999901    1    3    3    0    0 -0.12457734854E+00 -0.24039087400E-01  0.41707413499E-01  0.89007690782E+00  0.88000000000E+00 0.  1.
        -11    1    4    4    0    0  0.82209954427E-01  0.31916301514E-01 -0.44419177080E-01  0.98744373625E-01  0.51100000000E-03 0.  1.
         11    1    4    4    0    0  0.28993530850E-01  0.64061781495E-02 -0.10500036584E-01  0.31498822818E-01  0.51100000000E-03 0. -1.
</event>
<event>
 8    1  0.1054086E+005  0.1043930E+01  0.7957747E-01            NaN
         13   -1    0    0    0    0  0.00000000000E+00  0.00000000000E+00  0.74505805969E-08  0.10566000000E+00  0.10566000000E+00 0. -1.
     999900   -1    0    0    0    0 -0.00000000000E+00 -0.00000000000E+00 -0.74505805969E-08  0.93827000000E+00  0.93827000000E+00 0.  1.
     999902    2    1    2    0    0 -0.96950994730E-02  0.18489527651E-01  0.13800772777E-01  0.10189036356E+01  0.10185962398E+01 0.  0.
     999903    2    3    3    0    0 -0.12399998709E+00 -0.16757236188E-01 -0.27842405870E-01  0.12983553020E+00  0.20621919742E-01 0.  0.
         14    1    1    2    0    0  0.96950994730E-02 -0.18489527651E-01 -0.13800772777E-01  0.25026364414E-01  0.00000000000E+00 0.  1.
     999901    1    3    3    0    0  0.11430488762E+00  0.35246763839E-01  0.41643178647E-01  0.88906810539E+00  0.88000000000E+00 0. -1.
        -11    1    4    4    0    0 -0.84167400706E-01 -0.20890390353E-01 -0.17476584752E-01  0.88466105862E-01  0.51100000000E-03 0. -1.
         11    1    4    4    0    0 -0.39832586383E-01  0.41331541644E-02 -0.10365821118E-01  0.41369424334E-01  0.51100000000E-03 0.  1.
</event>
<event>
 8    1  0.1179924E+005  0.1043930E+01  0.7957747E-01            NaN
         13   -1    0    0    0    0  0.00000000000E+00  0.00000000000E+00  0.74505805969E-08  0.10566000000E+00  0.10566000000E+00 0.  1.
     999900   -1    0    0    0    0 -0.00000000000E+00 -0.00000000000E+00 -0.74505805969E-08  0.93827000000E+00  0.93827000000E+00 0.  1.
     999902    2    1    2    0    0  0.28332736178E-01 -0.86771107571E-02 -0.18722091588E-02  0.10142392378E+01  0.10138045621E+01 0.  0.
     999903    2    3    3    0    0  0.12766628312E-01  0.24393782051E-01  0.12050129843E+00  0.12501976942E+00  0.18743970278E-01 0.  0.
         14    1    1    2    0    0 -0.28332736178E-01  0.86771107571E-02  0.18722091588E-02  0.29690762158E-01  0.00000000000E+00 0. -1.
     999901    1    3    3    0    0  0.15566107866E-01 -0.33070892808E-01 -0.12237350758E+00  0.88921946842E+00  0.88000000000E+00 0.  1.
        -11    1    4    4    0    0  0.13168550763E-01  0.26012261389E-01  0.93027044290E-01  0.97490207519E-01  0.51100000000E-03 0. -1.
         11    1    4    4    0    0 -0.40192245105E-03 -0.16184793380E-02  0.27474254136E-01  0.27529561899E-01  0.51100000000E-03 0.  1.
</event>
<event>
 8    1  0.1054086E+005  0.1043930E+01  0.7957747E-01            NaN
         13   -1    0    0    0    0  0.00000000000E+00  0.00000000000E+00  0.74505805969E-08  0.10566000000E+00  0.10566000000E+00 0.  1.
     999900   -1    0    0    0    0 -0.00000000000E+00 -0.00000000000E+00 -0.74505805969E-08  0.93827000000E+00  0.93827000000E+00 0.  1.
     999902    2    1    2    0    0 -0.28789667588E-03 -0.20518923287E-01 -0.12464133925E-01  0.10199203409E+01  0.10196376994E+01 0.  0.
     999903    2    3    3    0    0  0.40483380299E-01  0.92105269274E-01 -0.78150858050E-01  0.12938047567E+00  0.22571357108E-01 0.  0.
         14    1    1    2    0    0  0.28789667588E-03  0.20518923287E-01  0.12464133925E-01  0.24009659136E-01  0.00000000000E+00 0.  1.
     999901    1    3    3    0    0 -0.40771276975E-01 -0.11262419256E+00  0.65686724125E-01  0.89053986520E+00  0.88000000000E+00 0. -1.
        -11    1    4    4    0    0  0.18309361734E-01  0.65872671525E-01 -0.57198744903E-01  0.89142577483E-01  0.51100000000E-03 0. -1.
         11    1    4    4    0    0  0.22174018565E-01  0.26232597749E-01 -0.20952113147E-01  0.40237898185E-01  0.51100000000E-03 0.  1.
</event>
<event>
 8    1  0.1054086E+005  0.1043930E+01  0.7957747E-01            NaN
         13   -1    0    0    0    0  0.00000000000E+00  0.00000000000E+00  0.74505805969E-08  0.10566000000E+00  0.10566000000E+00 0.  1.
     999900   -1    0    0    0    0 -0.00000000000E+00 -0.00000000000E+00 -0.74505805969E-08  0.93827000000E+00  0.93827000000E+00 0.  1.
     999902    2    1    2    0    0  0.21551516871E-01 -0.48033046068E-02 -0.61010963540E-02  0.10210222941E+01  0.10207652825E+01 0.  0.
     999903    2    3    3    0    0  0.59971060872E-02 -0.10973479611E+00  0.69272585954E-01  0.13145287598E+00  0.20086728940E-01 0.  0.
         14    1    1    2    0    0 -0.21551516871E-01  0.48033046068E-02  0.61010963540E-02  0.22907705937E-01  0.00000000000E+00 0. -1.
     999901    1    3    3    0    0  0.15554410784E-01  0.10493149150E+00 -0.75373682308E-01  0.88956941808E+00  0.88000000000E+00 0.  1.
        -11    1    4    4    0    0 -0.21410060580E-02 -0.88126931439E-01  0.49828443483E-01  0.10126240592E+00  0.51100000000E-03 0.  1.
         11    1    4    4    0    0  0.81381121452E-02 -0.21607864673E-01  0.19444142470E-01  0.30190470060E-01  0.51100000000E-03 0. -1.
</event>
<event>
 8    1  0.1054086E+005  0.1043930E+01  0.7957747E-01            NaN
         13   -1    0    0    0    0  0.00000000000E+00  0.00000000000E+00  0.74505805969E-08  0.10566000000E+00  0.10566000000E+00 0. -1.
     999900   -1    0    0    0    0 -0.00000000000E+00 -0.00000000000E+00 -0.74505805969E-08  0.93827000000E+00  0.93827000000E+00 0.  1.
     999902    2    1    2    0    0 -0.16206426069E-01  0.76460702735E-02 -0.13612189733E-01  0.10214266148E+01  0.10211786950E+01 0.  0.
     999903    2    3    3    0    0  0.22820436162E-01 -0.44221979051E-02  0.12608872359E+00  0.12947085117E+00  0.18000192886E-01 0.  0.
         14    1    1    2    0    0  0.16206426069E-01 -0.76460702735E-02  0.13612189733E-01  0.22503385209E-01  0.00000000000E+00 0. -1.
     999901    1    3    3    0    0 -0.39026862231E-01  0.12068268179E-01 -0.13970091333E+00  0.89195576362E+00  0.88000000000E+00 0.  1.
        -11    1    4    4    0    0  0.29768164208E-02 -0.67964753713E-02  0.58997023012E-01  0.59463966894E-01  0.51100000000E-03 0. -1.
         11    1    4    4    0    0  0.19843619742E-01  0.23742774662E-02  0.67091700583E-01  0.70006884276E-01  0.51100000000E-03 0.  1.
</event>
<event>
 8    1  0.1054086E+005  0.1043930E+01  0.7957747E-01            NaN
         13   -1    0    0    0    0  0.00000000000E+00  0.00000000000E+00  0.74505805969E-08  0.10566000000E+00  0.10566000000E+00 0.  1.
     999900   -1    0    0    0    0 -0.00000000000E+00 -0.00000000000E+00 -0.74505805969E-08  0.93827000000E+00  0.93827000000E+00 0. -1.
     999902    2    1    2    0    0  0.20971667377E-02  0.21591429994E-02  0.23446476651E-01  0.10202911067E+01  0.10200172279E+01 0.  0.
     999903    2    3    3    0    0 -0.15083487687E-01  0.91849441129E-01 -0.87181965062E-01  0.12867561979E+00  0.17113990188E-01 0.  0.
         14    1    1    2    0    0 -0.20971667377E-02 -0.21591429994E-02 -0.23446476651E-01  0.23638893252E-01  0.00000000000E+00 0. -1.
     999901    1    3    3    0    0  0.17180654425E-01 -0.89690298129E-01  0.11062844171E+00  0.89161548696E+00  0.88000000000E+00 0.  1.
        -11    1    4    4    0    0 -0.10552419701E-02  0.29221254415E-01 -0.37248044169E-01  0.47356870258E-01  0.51100000000E-03 0.  1.
         11    1    4    4    0    0 -0.14028245717E-01  0.62628186714E-01 -0.49933920892E-01  0.81318749533E-01  0.51100000000E-03 0. -1.
</event>
<event>
 8    1  0.1054086E+005  0.1043930E+01  0.7957747E-01            NaN
         13   -1    0    0    0    0  0.00000000000E+00  0.00000000000E+00  0.74505805969E-08  0.10566000000E+00  0.10566000000E+00 0. -1.
     999900   -1    0    0    0    0 -0.00000000000E+00 -0.00000000000E+00 -0.74505805969E-08  0.93827000000E+00  0.93827000000E+00 0.  1.
     999902    2    1    2    0    0  0.22531023705E-01  0.48239733005E-02 -0.70265265705E-02  0.10198407945E+01  0.10195562546E+01 0.  0.
     999903    2    3    3    0    0 -0.63857299371E-01 -0.88610723127E-01 -0.65441176244E-01  0.12877106871E+00  0.19230851591E-01 0.  0.
         14    1    1    2    0    0 -0.22531023705E-01 -0.48239733005E-02  0.70265265705E-02  0.24089205533E-01  0.00000000000E+00 0.  1.
     999901    1    3    3    0    0  0.86388323075E-01  0.93434696428E-01  0.58414649674E-01  0.89106972575E+00  0.88000000000E+00 0. -1.
        -11    1    4    4    0    0 -0.52302238260E-01 -0.71660538200E-01 -0.61301161965E-01  0.10783714778E+00  0.51100000000E-03 0.  1.
         11    1    4    4    0    0 -0.11555061111E-01 -0.16950184927E-01 -0.41400142792E-02  0.20933920931E-01  0.51100000000E-03 0. -1.
</event>
<event>
 8    1  0.1054086E+005  0.1043930E+01  0.7957747E-01            NaN
         13   -1    0    0    0    0  0.00000000000E+00  0.00000000000E+00  0.74505805969E-08  0.10566000000E+00  0.10566000000E+00 0. -1.
     999900   -1    0    0    0    0 -0.00000000000E+00 -0.00000000000E+00 -0.74505805969E-08  0.93827000000E+00  0.93827000000E+00 0.  1.
     999902    2    1    2    0    0  0.25504979412E-01  0.26344320722E-02 -0.36586210917E-02  0.10180296194E+01  0.10177000915E+01 0.  0.
     999903    2    3    3    0    0 -0.86504844457E-01  0.36161872353E-01  0.81776131171E-01  0.12619477662E+00  0.21142773950E-01 0.  0.
         14    1    1    2    0    0 -0.25504979412E-01 -0.26344320722E-02  0.36586210917E-02  0.25900380604E-01  0.00000000000E+00 0. -1.
     999901    1    3    3    0    0  0.11200982387E+00 -0.33527440281E-01 -0.85434752263E-01  0.89183484278E+00  0.88000000000E+00 0.  1.
        -11    1    4    4    0    0 -0.74674909176E-02 -0.46657585048E-03  0.13264939355E-02  0.76158926456E-02  0.51100000000E-03 0.  1.
         11    1    4    4    0    0 -0.79037353539E-01  0.36628448203E-01  0.80449637235E-01  0.11857888397E+00  0.51100000000E-03 0. -1.
</event>
<event>
 8    1  0.1054086E+005  0.1043930E+01  0.7957747E-01            NaN
         13   -1    0    0    0    0  0.00000000000E+00  0.00000000000E+00  0.74505805969E-08  0.10566000000E+00  0.10566000000E+00 0.  1.
     999900   -1    0    0    0    0 -0.00000000000E+00 -0.00000000000E+00 -0.74505805969E-08  0.93827000000E+00  0.93827000000E+00 0.  1.
     999902    2    1    2    0    0  0.20933837493E-01  0.11064445300E-01 -0.23508539103E-02  0.10201355886E+01  0.10198580514E+01 0.  0.
     999903    2    3    3    0    0 -0.83175837683E-01  0.96818791232E-01 -0.12359476793E-01  0.12980261441E+00  0.20096361154E-01 0.  0.
         14    1    1    2    0    0 -0.20933837493E-01 -0.11064445300E-01  0.23508539103E-02  0.23794411447E-01  0.00000000000E+00 0. -1.
     999901    1    3    3    0    0  0.10410967518E+00 -0.85754345932E-01  0.10008622883E-01  0.89033297414E+00  0.88000000000E+00 0.  1.
        -11    1    4    4    0    0 -0.65192712294E-01  0.73635768600E-01 -0.17830048670E-01  0.99952428235E-01  0.51100000000E-03 0.  1.
         11    1    4    4    0    0 -0.17983125390E-01  0.23183022632E-01  0.54705718769E-02  0.29850186177E-01  0.51100000000E-03 0. -1.
</event>
<event>
 8    1  0.1054086E+005  0.1043930E+01  0.7957747E-01            NaN
         13   -1    0    0    0    0  0.00000000000E+00  0.00000000000E+00  0.74505805969E-08  0.10566000000E+00  0.10566000000E+00 0. -1.
     999900   -1    0    0    0    0 -0.00000000000E+00 -0.00000000000E+00 -0.74505805969E-08  0.93827000000E+00  0.93827000000E+00 0. -1.
     999902    2    1    2    0    0  0.15798322435E-01  0.43885422713E-02  0.10671760355E-01  0.10243664430E+01  0.10241796115E+01 0.  0.
     999903    2    3    3    0    0  0.10396758260E+00  0.85440199540E-01 -0.27361250550E-02  0.13615308966E+00  0.20515640732E-01 0.  0.
         14    1    1    2    0    0 -0.15798322435E-01 -0.43885422713E-02 -0.10671760355E-01  0.19563557041E-01  0.00000000000E+00 0. -1.
     999901    1    3    3    0    0 -0.88169260166E-01 -0.81051657269E-01  0.13407885410E-01  0.88821335330E+00  0.88000000000E+00 0.  1.
        -11    1    4    4    0    0  0.61916182300E-01  0.38473655972E-01  0.20678813684E-02  0.72927176613E-01  0.51100000000E-03 0. -1.
         11    1    4    4    0    0  0.42051400301E-01  0.46966543569E-01 -0.48040064234E-02  0.63225913048E-01  0.51100000000E-03 0.  1.
</event>
<event>
 8    1  0.1054086E+005  0.1043930E+01  0.7957747E-01            NaN
         13   -1    0    0    0    0  0.00000000000E+00  0.00000000000E+00  0.74505805969E-08  0.10566000000E+00  0.10566000000E+00 0. -1.
     999900   -1    0    0    0    0 -0.00000000000E+00 -0.00000000000E+00 -0.74505805969E-08  0.93827000000E+00  0.93827000000E+00 0.  1.
     999902    2    1    2    0    0 -0.98605680257E-02 -0.79944801251E-02 -0.19750186892E-01  0.10204520870E+01  0.10201819688E+01 0.  0.
     999903    2    3    3    0    0  0.21447396929E-01  0.12315757041E+00 -0.29221600952E-01  0.13013149495E+00  0.21272659258E-01 0.  0.
         14    1    1    2    0    0  0.98605680257E-02  0.79944801251E-02  0.19750186892E-01  0.23477912951E-01  0.00000000000E+00 0. -1.
     999901    1    3    3    0    0 -0.31307964955E-01 -0.13115205053E+00  0.94714140591E-02  0.89032059210E+00  0.88000000000E+00 0.  1.
        -11    1    4    4    0    0  0.18999067602E-01  0.68284517908E-01 -0.83520077190E-02  0.71370561926E-01  0.51100000000E-03 0.  1.
         11    1    4    4    0    0  0.24483293269E-02  0.54873052501E-01 -0.20869593233E-01  0.58760933025E-01  0.51100000000E-03 0. -1.
</event>
<event>
 8    1  0.1054086E+005  0.1043930E+01  0.7957747E-01            NaN
         13   -1    0    0    0    0  0.00000000000E+00  0.00000000000E+00  0.74505805969E-08  0.10566000000E+00  0.10566000000E+00 0. -1.
     999900   -1    0    0    0    0 -0.00000000000E+00 -0.00000000000E+00 -0.74505805969E-08  0.93827000000E+00  0.93827000000E+00 0.  1.
     999902    2    1    2    0    0 -0.13799699688E-02  0.18456585074E-01  0.15627388919E-01  0.10197067646E+01  0.10194190113E+01 0.  0.
     999903    2    3    3    0    0 -0.50866590285E-01  0.10276452060E+00  0.64306295745E-01  0.13295629824E+00  0.19852477661E-01 0.  0.
         14    1    1    2    0    0  0.13799699688E-02 -0.18456585074E-01 -0.15627388919E-01  0.24223235418E-01  0.00000000000E+00 0.  1.
     999901    1    3    3    0    0  0.49486620316E-01 -0.84307935522E-01 -0.48678906827E-01  0.88675046634E+00  0.88000000000E+00 0.  1.
        -11    1    4    4    0    0 -0.29541723583E-01  0.55968492267E-01  0.46491969875E-01  0.78529930235E-01  0.51100000000E-03 0.  1.
         11    1    4    4    0    0 -0.21324866702E-01  0.46796028330E-01  0.17814325871E-01  0.54426368008E-01  0.51100000000E-03 0. -1.
</event>
<event>
 8    1  0.1054086E+005  0.1043930E+01  0.7957747E-01            NaN
         13   -1    0    0    0    0  0.00000000000E+00  0.00000000000E+00  0.74505805969E-08  0.10566000000E+00  0.10566000000E+00 0. -1.
     999900   -1    0    0    0    0 -0.00000000000E+00 -0.00000000000E+00 -0.74505805969E-08  0.93827000000E+00  0.93827000000E+00 0.  1.
     999902    2    1    2    0    0  0.63009367251E-02  0.21851644151E-01  0.58001342329E-02  0.10204600679E+01  0.10201901354E+01 0.  0.
     999903    2    3    3    0    0  0.15314003518E-01  0.34784995533E-01  0.12511256360E+00  0.13226866806E+00  0.19933197439E-01 0.  0.
         14    1    1    2    0    0 -0.63009367251E-02 -0.21851644151E-01 -0.58001342329E-02  0.23469932101E-01  0.00000000000E+00 0.  1.
     999901    1    3    3    0    0 -0.90130667925E-02 -0.12933351382E-01 -0.11931242937E+00  0.88819139984E+00  0.88000000000E+00 0.  1.
        -11    1    4    4    0    0  0.85583623302E-02  0.34877692410E-01  0.99842294181E-01  0.10610581427E+00  0.51100000000E-03 0. -1.
         11    1    4    4    0    0  0.67556411874E-02 -0.92696877754E-04  0.25270269423E-01  0.26162853787E-01  0.51100000000E-03 0.  1.
</event>
<event>
 8    1  0.1054086E+005  0.1043930E+01  0.7957747E-01            NaN
         13   -1    0    0    0    0  0.00000000000E+00  0.00000000000E+00  0.74505805969E-08  0.10566000000E+00  0.10566000000E+00 0. -1.
     999900   -1    0    0    0    0 -0.00000000000E+00 -0.00000000000E+00 -0.74505805969E-08  0.93827000000E+00  0.93827000000E+00 0.  1.
     999902    2    1    2    0    0 -0.15496532996E-01 -0.66505949466E-02  0.16195203253E-01  0.10205492909E+01  0.10202814306E+01 0.  0.
     999903    2    3    3    0    0  0.11688286786E+00  0.34969230111E-01 -0.33127564762E-01  0.12831095335E+00  0.21950247121E-01 0.  0.
         14    1    1    2    0    0  0.15496532996E-01  0.66505949466E-02 -0.16195203253E-01  0.23380709066E-01  0.00000000000E+00 0.  1.
     999901    1    3    3    0    0 -0.13237940086E+00 -0.41619825058E-01  0.49322768015E-01  0.89223833758E+00  0.88000000000E+00 0.  1.
        -11    1    4    4    0    0  0.90552602940E-01  0.26725384817E-01 -0.15805225548E-01  0.95729234659E-01  0.51100000000E-03 0.  1.
         11    1    4    4    0    0  0.26330264921E-01  0.82438452934E-02 -0.17322339213E-01  0.32581718691E-01  0.51100000000E-03 0. -1.
</event>
<event>
 8    1  0.1054086E+005  0.1043930E+01  0.7957747E-01            NaN
         13   -1    0    0    0    0  0.00000000000E+00  0.00000000000E+00  0.74505805969E-08  0.10566000000E+00  0.10566000000E+00 0.  1.
     999900   -1    0    0    0    0 -0.00000000000E+00 -0.00000000000E+00 -0.74505805969E-08  0.93827000000E+00  0.93827000000E+00 0.  1.
     999902    2    1    2    0    0  0.11516136718E-01 -0.20558282661E-01  0.31215770413E-02  0.10201600897E+01  0.10198831306E+01 0.  0.
     999903    2    3    3    0    0  0.22070573266E-01 -0.26277169848E-01  0.12526531740E+00  0.13164267566E+00  0.21466123377E-01 0.  0.
         14    1    1    2    0    0 -0.11516136718E-01  0.20558282661E-01 -0.31215770413E-02  0.23769910267E-01  0.00000000000E+00 0. -1.
     999901    1    3    3    0    0 -0.10554436548E-01  0.57188871866E-02 -0.12214374036E+00  0.88851741407E+00  0.88000000000E+00 0.  1.
        -11    1    4    4    0    0  0.15250415752E-01 -0.28581322944E-01  0.11134037299E+00  0.11595864341E+00  0.51100000000E-03 0.  1.
         11    1    4    4    0    0  0.68201575147E-02  0.23041530964E-02  0.13924944403E-01  0.15684032251E-01  0.51100000000E-03 0. -1.
</event>
<event>
 8    1  0.1054086E+005  0.1043930E+01  0.7957747E-01            NaN
         13   -1    0    0    0    0  0.00000000000E+00  0.00000000000E+00  0.74505805969E-08  0.10566000000E+00  0.10566000000E+00 0.  1.
     999900   -1    0    0    0    0 -0.00000000000E+00 -0.00000000000E+00 -0.74505805969E-08  0.93827000000E+00  0.93827000000E+00 0. -1.
     999902    2    1    2    0    0  0.13978126162E-01 -0.77781250437E-02  0.17808698495E-01  0.10199918091E+01  0.10197108677E+01 0.  0.
     999903    2    3    3    0    0 -0.11717732287E+00  0.12851105920E-02 -0.47270340427E-01  0.12784878508E+00  0.19458937737E-01 0.  0.
         14    1    1    2    0    0 -0.13978126162E-01  0.77781250437E-02 -0.17808698495E-01  0.23938190873E-01  0.00000000000E+00 0. -1.
     999901    1    3    3    0    0  0.13115544903E+00 -0.90632356357E-02  0.65079038922E-01  0.89214302405E+00  0.88000000000E+00 0.  1.
        -11    1    4    4    0    0 -0.70538994184E-01 -0.20080074190E-02 -0.38111210464E-01  0.80202913153E-01  0.51100000000E-03 0.  1.
         11    1    4    4    0    0 -0.46638328686E-01  0.32931180110E-02 -0.91591299632E-02  0.47645871925E-01  0.51100000000E-03 0. -1.
</event>
<event>
 8    1  0.1054086E+005  0.1043930E+01  0.7957747E-01            NaN
         13   -1    0    0    0    0  0.00000000000E+00  0.00000000000E+00  0.74505805969E-08  0.10566000000E+00  0.10566000000E+00 0. -1.
     999900   -1    0    0    0    0 -0.00000000000E+00 -0.00000000000E+00 -0.74505805969E-08  0.93827000000E+00  0.93827000000E+00 0. -1.
     999902    2    1    2    0    0 -0.15220850596E-01  0.18623387136E-01  0.16457366864E-02  0.10198216344E+01  0.10195366363E+01 0.  0.
     999903    2    3    3    0    0  0.40350280962E-01 -0.90408408210E-02  0.12103148849E+00  0.12959333904E+00  0.20878944934E-01 0.  0.
         14    1    1    2    0    0  0.15220850596E-01 -0.18623387136E-01 -0.16457366864E-02  0.24108365571E-01  0.00000000000E+00 0. -1.
     999901    1    3    3    0    0 -0.55571131559E-01  0.27664227957E-01 -0.11938575180E+00  0.89022829539E+00  0.88000000000E+00 0. -1.
        -11    1    4    4    0    0  0.87181423321E-03  0.37473151144E-02  0.47871675903E-02  0.61628341825E-02  0.51100000000E-03 0.  1.
         11    1    4    4    0    0  0.39478466729E-01 -0.12788155935E-01  0.11624432090E+00  0.12343050486E+00  0.51100000000E-03 0. -1.
</event>
<event>
 8    1  0.1054086E+005  0.1043930E+01  0.7957747E-01            NaN
         13   -1    0    0    0    0  0.00000000000E+00  0.00000000000E+00  0.74505805969E-08  0.10566000000E+00  0.10566000000E+00 0.  1.
     999900   -1    0    0    0    0 -0.00000000000E+00 -0.00000000000E+00 -0.74505805969E-08  0.93827000000E+00  0.93827000000E+00 0.  1.
     999902    2    1    2    0    0 -0.11666752417E-01  0.20698406193E-01 -0.10284839777E-02  0.10201477606E+01  0.10198705107E+01 0.  0.
     999903    2    3    3    0    0  0.94447732642E-02 -0.70802909661E-02  0.12797682424E+00  0.13005803363E+00  0.19942174100E-01 0.  0.
         14    1    1    2    0    0  0.11666752417E-01 -0.20698406193E-01  0.10284839777E-02  0.23782239386E-01  0.00000000000E+00 0.  1.
     999901    1    3    3    0    0 -0.21111525681E-01  0.27778697160E-01 -0.12900530822E+00  0.89008972698E+00  0.88000000000E+00 0.  1.
        -11    1    4    4    0    0  0.34268721555E-02 -0.13224433287E-01  0.60017611134E-01  0.61554884906E-01  0.51100000000E-03 0. -1.
         11    1    4    4    0    0  0.60179011087E-02  0.61441423206E-02  0.67959213104E-01  0.68503148726E-01  0.51100000000E-03 0.  1.
</event>
<event>
 8    1  0.1054086E+005  0.1043930E+01  0.7957747E-01            NaN
         13   -1    0    0    0    0  0.00000000000E+00  0.00000000000E+00  0.74505805969E-08  0.10566000000E+00  0.10566000000E+00 0.  1.
     999900   -1    0    0    0    0 -0.00000000000E+00 -0.00000000000E+00 -0.74505805969E-08  0.93827000000E+00  0.93827000000E+00 0. -1.
     999902    2    1    2    0    0  0.18632469661E-01 -0.13422759214E-01  0.80026702482E-02  0.10196116505E+01  0.10193216056E+01 0.  0.
     999903    2    3    3    0    0  0.98826833426E-01  0.75337500621E-01  0.38099840818E-01  0.13100861238E+00  0.16406603633E-01 0.  0.
         14    1    1    2    0    0 -0.18632469661E-01  0.13422759214E-01 -0.80026702482E-02  0.24318349485E-01  0.00000000000E+00 0. -1.
     999901    1    3    3    0    0 -0.80194363765E-01 -0.88760259835E-01 -0.30097170570E-01  0.88860303813E+00  0.88000000000E+00 0.  1.
        -11    1    4    4    0    0  0.68719419456E-01  0.47334851555E-01  0.32310963845E-01  0.89482994405E-01  0.51100000000E-03 0. -1.
         11    1    4    4    0    0  0.30107413969E-01  0.28002649065E-01  0.57888769734E-02  0.41525617975E-01  0.51100000000E-03 0.  1.
</event>
<event>
 8    1  0.1054086E+005  0.1043930E+01  0.7957747E-01            NaN
         13   -1    0    0    0    0  0.00000000000E+00  0.00000000000E+00  0.74505805969E-08  0.10566000000E+00  0.10566000000E+00 0.  1.
     999900   -1    0    0    0    0 -0.00000000000E+00 -0.00000000000E+00 -0.74505805969E-08  0.93827000000E+00  0.93827000000E+00 0.  1.
     999902    2    1    2    0    0 -0.13685345782E-01 -0.16108251374E-01  0.84294372423E-02  0.10211743444E+01  0.10209207715E+01 0.  0.
     999903    2    3    3    0    0 -0.40214936769E-01  0.11654630083E+00 -0.35374594956E-01  0.12975982650E+00  0.19646099537E-01 0.  0.
         14    1    1    2    0    0  0.13685345782E-01  0.16108251374E-01 -0.84294372423E-02  0.22755655643E-01  0.00000000000E+00 0. -1.
     999901    1    3    3    0    0  0.26529590986E-01 -0.13265455221E+00  0.43804032199E-01  0.89141451786E+00  0.88000000000E+00 0.  1.
        -11    1    4    4    0    0 -0.34552123949E-01  0.75928032528E-01 -0.18740639609E-01  0.85500807522E-01  0.51100000000E-03 0.  1.
         11    1    4    4    0    0 -0.56628128198E-02  0.40618268303E-01 -0.16633955347E-01  0.44259018973E-01  0.51100000000E-03 0. -1.
</event>
<event>
 8    1  0.1054086E+005  0.1043930E+01  0.7957747E-01            NaN
         13   -1    0    0    0    0  0.00000000000E+00  0.00000000000E+00  0.74505805969E-08  0.10566000000E+00  0.10566000000E+00 0.  1.
     999900   -1    0    0    0    0 -0.00000000000E+00 -0.00000000000E+00 -0.74505805969E-08  0.93827000000E+00  0.93827000000E+00 0. -1.
     999902    2    1    2    0    0 -0.28479864177E-02 -0.48512070279E-02 -0.22581900930E-01  0.10206579677E+01  0.10203926203E+01 0.  0.
     999903    2    3    3    0    0  0.80202363473E-01 -0.33086998029E-01  0.92669751152E-01  0.12881854058E+00  0.21894407375E-01 0.  0.
         14    1    1    2    0    0  0.28479864177E-02  0.48512070279E-02  0.22581900930E-01  0.23272032268E-01  0.00000000000E+00 0.  1.
     999901    1    3    3    0    0 -0.83050349890E-01  0.28235791001E-01 -0.11525165208E+00  0.89183942715E+00  0.88000000000E+00 0. -1.
        -11    1    4    4    0    0  0.11471093869E-01  0.10222966092E-02  0.20290309670E-01  0.23336428013E-01  0.51100000000E-03 0.  1.
         11    1    4    4    0    0  0.68731269604E-01 -0.34109294638E-01  0.72379441482E-01  0.10548211257E+00  0.51100000000E-03 0. -1.
</event>
<event>
 8    1  0.1054086E+005  0.1043930E+01  0.7957747E-01            NaN
         13   -1    0    0    0    0  0.00000000000E+00  0.00000000000E+00  0.74505805969E-08  0.10566000000E+00  0.10566000000E+00 0.  1.
     999900   -1    0    0    0    0 -0.00000000000E+00 -0.00000000000E+00 -0.74505805969E-08  0.93827000000E+00  0.93827000000E+00 0.  1.
     999902    2    1    2    0    0 -0.18262988529E-01  0.12995212245E-02  0.17224686569E-01  0.10187920738E+01  0.10184818969E+01 0.  0.
     999903    2    3    3    0    0 -0.99442318954E-01  0.49414302664E-01  0.69089947994E-01  0.13222841495E+00  0.19503453525E-01 0.  0.
         14    1    1    2    0    0  0.18262988529E-01 -0.12995212245E-02 -0.17224686569E-01  0.25137926184E-01  0.00000000000E+00 0. -1.
     999901    1    3    3    0    0  0.81179330424E-01 -0.48114781439E-01 -0.51865261425E-01  0.88656365887E+00  0.88000000000E+00 0.  1.
        -11    1    4    4    0    0 -0.53582693554E-01  0.16125059721E-01  0.37293650611E-01  0.67247305495E-01  0.51100000000E-03 0.  1.
         11    1    4    4    0    0 -0.45859625400E-01  0.33289242943E-01  0.31796297384E-01  0.64981109454E-01  0.51100000000E-03 0. -1.
</event>
<event>
 8    1  0.1054086E+005  0.1043930E+01  0.7957747E-01            NaN
         13   -1    0    0    0    0  0.00000000000E+00  0.00000000000E+00  0.74505805969E-08  0.10566000000E+00  0.10566000000E+00 0.  1.
     999900   -1    0    0    0    0 -0.00000000000E+00 -0.00000000000E+00 -0.74505805969E-08  0.93827000000E+00  0.93827000000E+00 0. -1.
     999902    2    1    2    0    0  0.15231432955E-01  0.15213489962E-01  0.99448787757E-02  0.10202161340E+01  0.10199404947E+01 0.  0.
     999903    2    3    3    0    0  0.53048898142E-01  0.11467216751E+00  0.37575182674E-01  0.13337588745E+00  0.20330799389E-01 0.  0.
         14    1    1    2    0    0 -0.15231432955E-01 -0.15213489962E-01 -0.99448787757E-02  0.23713865997E-01  0.00000000000E+00 0. -1.
     999901    1    3    3    0    0 -0.37817465188E-01 -0.99458677551E-01 -0.27630303898E-01  0.88684024655E+00  0.88000000000E+00 0. -1.
        -11    1    4    4    0    0  0.18143922627E-01  0.62503820639E-01  0.16278061877E-01  0.67090729183E-01  0.51100000000E-03 0. -1.
         11    1    4    4    0    0  0.34904975515E-01  0.52168346873E-01  0.21297120796E-01  0.66285158266E-01  0.51100000000E-03 0.  1.
</event>
<event>
 8    1  0.1054086E+005  0.1043930E+01  0.7957747E-01            NaN
         13   -1    0    0    0    0  0.00000000000E+00  0.00000000000E+00  0.74505805969E-08  0.10566000000E+00  0.10566000000E+00 0. -1.
     999900   -1    0    0    0    0 -0.00000000000E+00 -0.00000000000E+00 -0.74505805969E-08  0.93827000000E+00  0.93827000000E+00 0.  1.
     999902    2    1    2    0    0 -0.21406461460E-02  0.22499192584E-01 -0.90702713152E-02  0.10195770566E+01  0.10192861759E+01 0.  0.
     999903    2    3    3    0    0 -0.49958217523E-01 -0.10532715622E+00  0.47058114851E-01  0.12728983188E+00  0.19965014157E-01 0.  0.
         14    1    1    2    0    0  0.21406461460E-02 -0.22499192584E-01  0.90702713152E-02  0.24352943448E-01  0.00000000000E+00 0. -1.
     999901    1    3    3    0    0  0.47817571377E-01  0.12782634881E+00 -0.56128386167E-01  0.89228722467E+00  0.88000000000E+00 0.  1.
        -11    1    4    4    0    0 -0.43442438941E-01 -0.10003013148E+00  0.47301002669E-01  0.11887354070E+00  0.51100000000E-03 0.  1.
         11    1    4    4    0    0 -0.65157785817E-02 -0.52970247457E-02 -0.24288781742E-03  0.84162911769E-02  0.51100000000E-03 0. -1.
</event>
<event>
 8    1  0.1054086E+005  0.1043930E+01  0.7957747E-01            NaN
         13   -1    0    0    0    0  0.00000000000E+00  0.00000000000E+00  0.74505805969E-08  0.10566000000E+00  0.10566000000E+00 0.  1.
     999900   -1    0    0    0    0 -0.00000000000E+00 -0.00000000000E+00 -0.74505805969E-08  0.93827000000E+00  0.93827000000E+00 0.  1.
     999902    2    1    2    0    0 -0.15070410687E-01  0.18485106714E-01  0.70010808856E-03  0.10200698533E+01  0.10197907624E+01 0.  0.
     999903    2    3    3    0    0 -0.76295003823E-03 -0.73412075600E-01 -0.10418905175E+00  0.12897416182E+00  0.19724628646E-01 0.  0.
         14    1    1    2    0    0  0.15070410687E-01 -0.18485106714E-01 -0.70010808856E-03  0.23860146685E-01  0.00000000000E+00 0. -1.
     999901    1    3    3    0    0 -0.14307460649E-01  0.91897182313E-01  0.10488915984E+00  0.89109569149E+00  0.88000000000E+00 0. -1.
        -11    1    4    4    0    0  0.44527873750E-03 -0.70350579432E-01 -0.89128908811E-01  0.11355010263E+00  0.51100000000E-03 0. -1.
         11    1    4    4    0    0 -0.12082287757E-02 -0.30614961679E-02 -0.15060142943E-01  0.15424059195E-01  0.51100000000E-03 0.  1.
</event>
<event>
 8    1  0.1054086E+005  0.1043930E+01  0.7957747E-01            NaN
         13   -1    0    0    0    0  0.00000000000E+00  0.00000000000E+00  0.74505805969E-08  0.10566000000E+00  0.10566000000E+00 0. -1.
     999900   -1    0    0    0    0 -0.00000000000E+00 -0.00000000000E+00 -0.74505805969E-08  0.93827000000E+00  0.93827000000E+00 0. -1.
     999902    2    1    2    0    0 -0.14553915894E-01  0.19369006258E-01 -0.65684759723E-05  0.10197024348E+01  0.10194145774E+01 0.  0.
     999903    2    3    3    0    0 -0.75579186467E-01  0.80738008817E-01 -0.70364154064E-01  0.13266217194E+00  0.20427877821E-01 0.  0.
         14    1    1    2    0    0  0.14553915894E-01 -0.19369006258E-01  0.65684759723E-05  0.24227565177E-01  0.00000000000E+00 0.  1.
     999901    1    3    3    0    0  0.61025270573E-01 -0.61369002558E-01  0.70357585588E-01  0.88704026288E+00  0.88000000000E+00 0.  1.
        -11    1    4    4    0    0 -0.47422822739E-01  0.53179449951E-01 -0.33627958795E-01  0.78791362136E-01  0.51100000000E-03 0. -1.
         11    1    4    4    0    0 -0.28156363728E-01  0.27558558865E-01 -0.36736195269E-01  0.53870809804E-01  0.51100000000E-03 0.  1.
</event>
<event>
 8    1  0.1054086E+005  0.1043930E+01  0.7957747E-01            NaN
         13   -1    0    0    0    0  0.00000000000E+00  0.00000000000E+00  0.74505805969E-08  0.10566000000E+00  0.10566000000E+00 0.  1.
     999900   -1    0    0    0    0 -0.00000000000E+00 -0.00000000000E+00 -0.74505805969E-08  0.93827000000E+00  0.93827000000E+00 0.  1.
     999902    2    1    2    0    0  0.36942844979E-02  0.23008364799E-01  0.24590057788E-02  0.10204975589E+01  0.10202284981E+01 0.  0.
     999903    2    3    3    0    0 -0.76342021406E-01  0.50157579766E-01  0.93246978824E-01  0.13179887753E+00  0.18222459165E-01 0.  0.
         14    1    1    2    0    0 -0.36942844979E-02 -0.23008364799E-01 -0.24590057788E-02  0.23432441147E-01  0.00000000000E+00 0. -1.
     999901    1    3    3    0    0  0.80036305904E-01 -0.27149214967E-01 -0.90787973045E-01  0.88869868132E+00  0.88000000000E+00 0.  1.
        -11    1    4    4    0    0 -0.46020246613E-01  0.24276518996E-01  0.41994002402E-01  0.66865311123E-01  0.51100000000E-03 0. -1.
         11    1    4    4    0    0 -0.30321774793E-01  0.25881060770E-01  0.51252976422E-01  0.64933566407E-01  0.51100000000E-03 0.  1.
</event>
<event>
 7    1  0.1054086E+005  0.1043930E+01  0.7957747E-01            NaN
         13   -1    0    0    0    0  0.00000000000E+00  0.00000000000E+00  0.74505805969E-08  0.10566000000E+00  0.10566000000E+00 0.  1.
     999900   -1    0    0    0    0 -0.00000000000E+00 -0.00000000000E+00 -0.74505805969E-08  0.93827000000E+00  0.93827000000E+00 0.  1.
     999902    2    1    2    0    0  0.20519620210E-01 -0.94546654191E-02 -0.78245448667E-02  0.10200203991E+01  0.10197401363E+01 0.  0.
         14    1    1    2    0    0 -0.20519620210E-01  0.94546654191E-02  0.78245448667E-02  0.23909600878E-01  0.00000000000E+00 0.  1.
     999901    1    3    3    0    0  0.11288789895E+00 -0.88755916365E-01  0.87992332370E-02  0.89168308099E+00  0.88000000000E+00 0. -1.
        -11    1    3    3    0    0 -0.30543626538E-01  0.84245934779E-02 -0.12890434720E-01  0.34209813294E-01  0.51100000000E-03 0.  1.
         11    1    3    3    0    0 -0.61824652198E-01  0.70876657468E-01 -0.37333433832E-02  0.94127504838E-01  0.51100000000E-03 0. -1.
</event>
<event>
 8    1  0.1054086E+005  0.1043930E+01  0.7957747E-01            NaN
         13   -1    0    0    0    0  0.00000000000E+00  0.00000000000E+00  0.74505805969E-08  0.10566000000E+00  0.10566000000E+00 0. -1.
     999900   -1    0    0    0    0 -0.00000000000E+00 -0.00000000000E+00 -0.74505805969E-08  0.93827000000E+00  0.93827000000E+00 0. -1.
     999902    2    1    2    0    0 -0.74996644763E-02  0.21743169253E-01  0.67734639357E-02  0.10199531322E+01  0.10196712714E+01 0.  0.
     999903    2    3    3    0    0 -0.82216662953E-01  0.70622136534E-01  0.74081971914E-01  0.13287804035E+00  0.20527279658E-01 0.  0.
         14    1    1    2    0    0  0.74996644763E-02 -0.21743169253E-01 -0.67734639357E-02  0.23976867812E-01  0.00000000000E+00 0.  1.
     999901    1    3    3    0    0  0.74716998477E-01 -0.48878967281E-01 -0.67308507978E-01  0.88707509183E+00  0.88000000000E+00 0. -1.
        -11    1    4    4    0    0 -0.57682421303E-01  0.59472983597E-01  0.50253999309E-01  0.96902131415E-01  0.51100000000E-03 0.  1.
         11    1    4    4    0    0 -0.24534241651E-01  0.11149152936E-01  0.23827972605E-01  0.35975908939E-01  0.51100000000E-03 0. -1.
</event>
<event>
 8    1  0.1054086E+005  0.1043930E+01  0.7957747E-01            NaN
         13   -1    0    0    0    0  0.00000000000E+00  0.00000000000E+00  0.74505805969E-08  0.10566000000E+00  0.10566000000E+00 0. -1.
     999900   -1    0    0    0    0 -0.00000000000E+00 -0.00000000000E+00 -0.74505805969E-08  0.93827000000E+00  0.93827000000E+00 0. -1.
     999902    2    1    2    0    0  0.12919895248E-01  0.10153921814E-01  0.17945208885E-01  0.10195977921E+01  0.10193074125E+01 0.  0.
     999903    2    3    3    0    0 -0.77967948132E-02  0.12127962045E+00 -0.42671271649E-01  0.13029893349E+00  0.19683452372E-01 0.  0.
         14    1    1    2    0    0 -0.12919895248E-01 -0.10153921814E-01 -0.17945208885E-01  0.24332207943E-01  0.00000000000E+00 0.  1.
     999901    1    3    3    0    0  0.20716690061E-01 -0.11112569864E+00  0.60616480534E-01  0.88929885857E+00  0.88000000000E+00 0.  1.
        -11    1    4    4    0    0 -0.89777900349E-02  0.66804833345E-01 -0.32637078427E-01  0.74892766549E-01  0.51100000000E-03 0.  1.
         11    1    4    4    0    0  0.11809952217E-02  0.54474787106E-01 -0.10034193222E-01  0.55406166936E-01  0.51100000000E-03 0. -1.
</event>
<event>
 8    1  0.1054086E+005  0.1043930E+01  0.7957747E-01            NaN
         13   -1    0    0    0    0  0.00000000000E+00  0.00000000000E+00  0.74505805969E-08  0.10566000000E+00  0.10566000000E+00 0. -1.
     999900   -1    0    0    0    0 -0.00000000000E+00 -0.00000000000E+00 -0.74505805969E-08  0.93827000000E+00  0.93827000000E+00 0.  1.
     999902    2    1    2    0    0 -0.18434528120E-02 -0.18761293807E-01 -0.10782443977E-01  0.10222125977E+01  0.10219818733E+01 0.  0.
     999903    2    3    3    0    0  0.44919857496E-02 -0.38196814123E-02  0.12930125602E+00  0.13098488688E+00  0.20086261023E-01 0.  0.
         14    1    1    2    0    0  0.18434528120E-02  0.18761293807E-01  0.10782443977E-01  0.21717402278E-01  0.00000000000E+00 0. -1.
     999901    1    3    3    0    0 -0.63354385616E-02 -0.14941612395E-01 -0.14008370000E+00  0.89122771084E+00  0.88000000000E+00 0.  1.
        -11    1    4    4    0    0  0.54708345052E-02 -0.11113878958E-01  0.58439258916E-01  0.59739906589E-01  0.51100000000E-03 0. -1.
         11    1    4    4    0    0 -0.97884875555E-03  0.72941975461E-02  0.70861997102E-01  0.71244980294E-01  0.51100000000E-03 0.  1.
</event>
<event>
 8    1  0.1054086E+005  0.1043930E+01  0.7957747E-01            NaN
         13   -1    0    0    0    0  0.00000000000E+00  0.00000000000E+00  0.74505805969E-08  0.10566000000E+00  0.10566000000E+00 0.  1.
     999900   -1    0    0    0    0 -0.00000000000E+00 -0.00000000000E+00 -0.74505805969E-08  0.93827000000E+00  0.93827000000E+00 0.  1.
     999902    2    1    2    0    0  0.22858372800E-01 -0.14498958721E-02 -0.85945728397E-02  0.10194662700E+01  0.10191727045E+01 0.  0.
     999903    2    3    3    0    0 -0.84966387907E-01 -0.54771965483E-01 -0.76788181413E-01  0.12866899202E+00  0.20976878391E-01 0.  0.
         14    1    1    2    0    0 -0.22858372800E-01  0.14498958721E-02  0.85945728397E-02  0.24463730039E-01  0.00000000000E+00 0.  1.
     999901    1    3    3    0    0  0.10782476071E+00  0.53322069611E-01  0.68193608574E-01  0.89079727794E+00  0.88000000000E+00 0.  1.
        -11    1    4    4    0    0 -0.30199543423E-01 -0.24840317476E-01 -0.18469251517E-01  0.43248446999E-01  0.51100000000E-03 0.  1.
         11    1    4    4    0    0 -0.54766844484E-01 -0.29931648007E-01 -0.58318929896E-01  0.85420545025E-01  0.51100000000E-03 0. -1.
</event>
<event>
 8    1  0.1054086E+005  0.1043930E+01  0.7957747E-01            NaN
         13   -1    0    0    0    0  0.00000000000E+00  0.00000000000E+00  0.74505805969E-08  0.10566000000E+00  0.10566000000E+00 0. -1.
     999900   -1    0    0    0    0 -0.00000000000E+00 -0.00000000000E+00 -0.74505805969E-08  0.93827000000E+00  0.93827000000E+00 0.  1.
     999902    2    1    2    0    0 -0.10035403499E-02 -0.84048407967E-02  0.22542758120E-01  0.10198504571E+01  0.10195661482E+01 0.  0.
     999903    2    3    3    0    0  0.11211192138E+00 -0.47456000807E-01 -0.39749701241E-01  0.12956934911E+00  0.19672888748E-01 0.  0.
         14    1    1    2    0    0  0.10035403499E-02  0.84048407967E-02 -0.22542758120E-01  0.24079542888E-01  0.00000000000E+00 0.  1.
     999901    1    3    3    0    0 -0.11311546173E+00  0.39051160010E-01  0.62292459362E-01  0.89028110801E+00  0.88000000000E+00 0. -1.
        -11    1    4    4    0    0  0.45947772965E-01 -0.10392893867E-01 -0.10377676334E-01  0.48240723154E-01  0.51100000000E-03 0.  1.
         11    1    4    4    0    0  0.66164148411E-01 -0.37063106939E-01 -0.29372024907E-01  0.81328625951E-01  0.51100000000E-03 0. -1.
</event>
<event>
 8    1  0.1054086E+005  0.1043930E+01  0.7957747E-01            NaN
         13   -1    0    0    0    0  0.00000000000E+00  0.00000000000E+00  0.74505805969E-08  0.10566000000E+00  0.10566000000E+00 0.  1.
     999900   -1    0    0    0    0 -0.00000000000E+00 -0.00000000000E+00 -0.74505805969E-08  0.93827000000E+00  0.93827000000E+00 0. -1.
     999902    2    1    2    0    0 -0.22802027110E-01 -0.71592919547E-03  0.52895503376E-02  0.10205115385E+01  0.10202428024E+01 0.  0.
     999903    2    3    3    0    0  0.41077608421E-01  0.38493681765E-03  0.12229025541E+00  0.13047166036E+00  0.19504601987E-01 0.  0.
         14    1    1    2    0    0  0.22802027110E-01  0.71592919547E-03 -0.52895503376E-02  0.23418461472E-01  0.00000000000E+00 0. -1.
     999901    1    3    3    0    0 -0.63879635532E-01 -0.11008660131E-02 -0.11700070507E+00  0.89003987817E+00  0.88000000000E+00 0. -1.
        -11    1    4    4    0    0  0.10993627745E-01 -0.84067689617E-02  0.44424977035E-01  0.46533571977E-01  0.51100000000E-03 0. -1.
         11    1    4    4    0    0  0.30083980677E-01  0.87917057793E-02  0.77865278375E-01  0.83938088383E-01  0.51100000000E-03 0.  1.
</event>
<event>
 8    1  0.1054086E+005  0.1043930E+01  0.7957747E-01            NaN
         13   -1    0    0    0    0  0.00000000000E+00  0.00000000000E+00  0.74505805969E-08  0.10566000000E+00  0.10566000000E+00 0. -1.
     999900   -1    0    0    0    0 -0.00000000000E+00 -0.00000000000E+00 -0.74505805969E-08  0.93827000000E+00  0.93827000000E+00 0. -1.
     999902    2    1    2    0    0  0.17639993223E-02  0.74221913774E-02  0.23068064206E-01  0.10196331647E+01  0.10193436390E+01 0.  0.
     999903    2    3    3    0    0  0.87655870067E-01  0.29653914192E-01 -0.86354617093E-01  0.12842893103E+00  0.21770719989E-01 0.  0.
         14    1    1    2    0    0 -0.17639993223E-02 -0.74221913774E-02 -0.23068064206E-01  0.24296835281E-01  0.00000000000E+00 0.  1.
     999901    1    3    3    0    0 -0.85891870744E-01 -0.22231722814E-01  0.10942268130E+00  0.89120423369E+00  0.88000000000E+00 0. -1.
        -11    1    4    4    0    0  0.35928870712E-01  0.12097114551E-01 -0.50247631110E-01  0.62946878272E-01  0.51100000000E-03 0. -1.
         11    1    4    4    0    0  0.51726999355E-01  0.17556799641E-01 -0.36106985983E-01  0.65482052760E-01  0.51100000000E-03 0.  1.
</event>
<event>
 8    1  0.1054086E+005  0.1043930E+01  0.7957747E-01            NaN
         13   -1    0    0    0    0  0.00000000000E+00  0.00000000000E+00  0.74505805969E-08  0.10566000000E+00  0.10566000000E+00 0.  1.
     999900   -1    0    0    0    0 -0.00000000000E+00 -0.00000000000E+00 -0.74505805969E-08  0.93827000000E+00  0.93827000000E+00 0.  1.
     999902    2    1    2    0    0 -0.17598701198E-01  0.14654654167E-01  0.45084945800E-02  0.10205890554E+01  0.10203221159E+01 0.  0.
     999903    2    3    3    0    0  0.27481954251E-01 -0.86784301327E-01 -0.88922560647E-01  0.12870818370E+00  0.19282167714E-01 0.  0.
         14    1    1    2    0    0  0.17598701198E-01 -0.14654654167E-01 -0.45084945800E-02  0.23340944625E-01  0.00000000000E+00 0.  1.
     999901    1    3    3    0    0 -0.45080655448E-01  0.10143895549E+00  0.93431055227E-01  0.89188087168E+00  0.88000000000E+00 0. -1.
        -11    1    4    4    0    0  0.13443932035E-01 -0.44017550207E-01 -0.31634904545E-01  0.55850804303E-01  0.51100000000E-03 0. -1.
         11    1    4    4    0    0  0.14038022216E-01 -0.42766751121E-01 -0.57287656103E-01  0.72857379392E-01  0.51100000000E-03 0.  1.
</event>
<event>
 8    1  0.1054086E+005  0.1043930E+01  0.7957747E-01            NaN
         13   -1    0    0    0    0  0.00000000000E+00  0.00000000000E+00  0.74505805969E-08  0.10566000000E+00  0.10566000000E+00 0. -1.
     999900   -1    0    0    0    0 -0.00000000000E+00 -0.00000000000E+00 -0.74505805969E-08  0.93827000000E+00  0.93827000000E+00 0.  1.
     999902    2    1    2    0    0 -0.10502133809E-01  0.10627136330E-01  0.19469735973E-01  0.10193881692E+01  0.10190927033E+01 0.  0.
     999903    2    3    3    0    0  0.37009312387E-01 -0.11271573235E+00  0.45837570130E-01  0.12912637428E+00  0.22316186451E-01 0.  0.
         14    1    1    2    0    0  0.10502133809E-01 -0.10627136330E-01 -0.19469735973E-01  0.24541830819E-01  0.00000000000E+00 0.  1.
     999901    1    3    3    0    0 -0.47511446196E-01  0.12334286868E+00 -0.26367834157E-01  0.89026179490E+00  0.88000000000E+00 0.  1.
        -11    1    4    4    0    0  0.60928988825E-02 -0.49542944023E-01  0.13484782336E-01  0.51708096029E-01  0.51100000000E-03 0. -1.
         11    1    4    4    0    0  0.30916413504E-01 -0.63172788328E-01  0.32352787793E-01  0.77418278256E-01  0.51100000000E-03 0.  1.
</event>
<event>
 8    1  0.1054086E+005  0.1043930E+01  0.7957747E-01            NaN
         13   -1    0    0    0    0  0.00000000000E+00  0.00000000000E+00  0.74505805969E-08  0.10566000000E+00  0.10566000000E+00 0. -1.
     999900   -1    0    0    0    0 -0.00000000000E+00 -0.00000000000E+00 -0.74505805969E-08  0.93827000000E+00  0.93827000000E+00 0.  1.
     999902    2    1    2    0    0 -0.11719680798E-02 -0.25127060074E-01  0.59161148873E-03  0.10187686673E+01  0.10184579053E+01 0.  0.
     999903    2    3    3    0    0 -0.45797236139E-02 -0.10701693775E+00  0.74351355792E-01  0.13188757906E+00  0.19814403086E-01 0.  0.
         14    1    1    2    0    0  0.11719680798E-02  0.25127060074E-01 -0.59161148873E-03  0.25161332661E-01  0.00000000000E+00 0.  1.
     999901    1    3    3    0    0  0.34077555341E-02  0.81889877672E-01 -0.73759744304E-01  0.88688108828E+00  0.88000000000E+00 0.  1.
        -11    1    4    4    0    0 -0.94848136661E-02 -0.81632280216E-01  0.63440340562E-01  0.10382065688E+00  0.51100000000E-03 0.  1.
         11    1    4    4    0    0  0.49050900522E-02 -0.25384657531E-01  0.10911015230E-01  0.28066922181E-01  0.51100000000E-03 0. -1.
</event>
<event>
 7    1  0.1054086E+005  0.1043930E+01  0.7957747E-01            NaN
         13   -1    0    0    0    0  0.00000000000E+00  0.00000000000E+00  0.74505805969E-08  0.10566000000E+00  0.10566000000E+00 0. -1.
     999900   -1    0    0    0    0 -0.00000000000E+00 -0.00000000000E+00 -0.74505805969E-08  0.93827000000E+00  0.93827000000E+00 0.  1.
     999903    2    1    2    0    0 -0.72108518888E-01  0.78193497456E-01 -0.31570003353E-01  0.11274459965E+00  0.20020441973E-01 0.  0.
         14    1    1    2    0    0  0.21877456321E-01  0.25883387233E-01  0.27461728474E-01  0.43620171487E-01  0.00000000000E+00 0. -1.
     999901    1    1    2    0    0  0.50231062566E-01 -0.10407688469E+00  0.41082748787E-02  0.88756522887E+00  0.88000000000E+00 0. -1.
        -11    1    3    3    0    0 -0.43716127368E-01  0.33003713465E-01 -0.18225981789E-01  0.57730342349E-01  0.51100000000E-03 0.  1.
         11    1    3    3    0    0 -0.28392391520E-01  0.45189783991E-01 -0.13344021564E-01  0.55014257296E-01  0.51100000000E-03 0. -1.
</event>
<event>
 8    1  0.1054086E+005  0.1043930E+01  0.7957747E-01            NaN
         13   -1    0    0    0    0  0.00000000000E+00  0.00000000000E+00  0.74505805969E-08  0.10566000000E+00  0.10566000000E+00 0. -1.
     999900   -1    0    0    0    0 -0.00000000000E+00 -0.00000000000E+00 -0.74505805969E-08  0.93827000000E+00  0.93827000000E+00 0. -1.
     999902    2    1    2    0    0 -0.54613187941E-02 -0.16239100121E-01  0.15589250907E-01  0.10207662542E+01  0.10205033986E+01 0.  0.
     999903    2    3    3    0    0 -0.32645372899E-02  0.79969774033E-01 -0.98140431876E-01  0.12824431382E+00  0.20229624198E-01 0.  0.
         14    1    1    2    0    0  0.54613187941E-02  0.16239100121E-01 -0.15589250907E-01  0.23163745801E-01  0.00000000000E+00 0.  1.
     999901    1    3    3    0    0 -0.21967815042E-02 -0.96208874154E-01  0.11372968278E+00  0.89252194038E+00  0.88000000000E+00 0.  1.
        -11    1    4    4    0    0 -0.40224266845E-02  0.45149918785E-01 -0.39937862956E-01  0.60415139669E-01  0.51100000000E-03 0.  1.
         11    1    4    4    0    0  0.75788939461E-03  0.34819855248E-01 -0.58202568920E-01  0.67829174149E-01  0.51100000000E-03 0. -1.
</event>
<event>
 8    1  0.1054086E+005  0.1043930E+01  0.7957747E-01            NaN
         13   -1    0    0    0    0  0.00000000000E+00  0.00000000000E+00  0.74505805969E-08  0.10566000000E+00  0.10566000000E+00 0.  1.
     999900   -1    0    0    0    0 -0.00000000000E+00 -0.00000000000E+00 -0.74505805969E-08  0.93827000000E+00  0.93827000000E+00 0. -1.
     999902    2    1    2    0    0 -0.22607675554E-01  0.58668404680E-02  0.23169706893E-02  0.10204588440E+01  0.10201888831E+01 0.  0.
     999903    2    3    3    0    0  0.26708770329E-01  0.12483768140E+00  0.20805155068E-01  0.13089266558E+00  0.20055680366E-01 0.  0.
         14    1    1    2    0    0  0.22607675554E-01 -0.58668404680E-02 -0.23169706893E-02  0.23471156005E-01  0.00000000000E+00 0.  1.
     999901    1    3    3    0    0 -0.49316445883E-01 -0.11897084093E+00 -0.18488184378E-01  0.88956617842E+00  0.88000000000E+00 0.  1.
        -11    1    4    4    0    0 -0.15293361261E-02  0.22060707934E-01 -0.81763108735E-03  0.22134663881E-01  0.51100000000E-03 0. -1.
         11    1    4    4    0    0  0.28238106455E-01  0.10277697346E+00  0.21622786155E-01  0.10875800169E+00  0.51100000000E-03 0.  1.
</event>
<event>
 8    1  0.1054086E+005  0.1043930E+01  0.7957747E-01            NaN
         13   -1    0    0    0    0  0.00000000000E+00  0.00000000000E+00  0.74505805969E-08  0.10566000000E+00  0.10566000000E+00 0. -1.
     999900   -1    0    0    0    0 -0.00000000000E+00 -0.00000000000E+00 -0.74505805969E-08  0.93827000000E+00  0.93827000000E+00 0. -1.
     999902    2    1    2    0    0  0.60896785032E-02 -0.12203466158E-01  0.19180295063E-01  0.10203950794E+01  0.10201236325E+01 0.  0.
     999903    2    3    3    0    0 -0.10453140888E+00 -0.19853062525E-01 -0.70532312161E-01  0.12891098349E+00  0.17952021381E-01 0.  0.
         14    1    1    2    0    0 -0.60896785032E-02  0.12203466158E-01 -0.19180295063E-01  0.23534920634E-01  0.00000000000E+00 0.  1.
     999901    1    3    3    0    0  0.11062108739E+00  0.76495963668E-02  0.89712607224E-01  0.89148409587E+00  0.88000000000E+00 0.  1.
        -11    1    4    4    0    0 -0.73082040108E-01 -0.10099784538E-01 -0.39616420888E-01  0.83741937875E-01  0.51100000000E-03 0. -1.
         11    1    4    4    0    0 -0.31449368775E-01 -0.97532779869E-02 -0.30915891273E-01  0.45169045618E-01  0.51100000000E-03 0.  1.
</event>
<event>
 8    1  0.1054086E+005  0.1043930E+01  0.7957747E-01            NaN
         13   -1    0    0    0    0  0.00000000000E+00  0.00000000000E+00  0.74505805969E-08  0.10566000000E+00  0.10566000000E+00 0. -1.
     999900   -1    0    0    0    0 -0.00000000000E+00 -0.00000000000E+00 -0.74505805969E-08  0.93827000000E+00  0.93827000000E+00 0. -1.
     999902    2    1    2    0    0  0.13511971706E-01 -0.18666508133E-01  0.15056828118E-02  0.10208371659E+01  0.10205759356E+01 0.  0.
     999903    2    3    3    0    0 -0.10946299513E+00  0.40290910335E-01  0.50751053557E-01  0.12897174658E+00  0.21272922235E-01 0.  0.
         14    1    1    2    0    0 -0.13511971706E-01  0.18666508133E-01 -0.15056828118E-02  0.23092834083E-01  0.00000000000E+00 0. -1.
     999901    1    3    3    0    0  0.12297496684E+00 -0.58957418468E-01 -0.49245370745E-01  0.89186541933E+00  0.88000000000E+00 0.  1.
        -11    1    4    4    0    0 -0.87508278466E-01  0.25933056207E-01  0.46354952408E-01  0.10236828092E+00  0.51100000000E-03 0.  1.
         11    1    4    4    0    0 -0.21954716668E-01  0.14357854128E-01  0.43961011492E-02  0.26603465667E-01  0.51100000000E-03 0. -1.
</event>
<event>
 8    1  0.1054086E+005  0.1043930E+01  0.7957747E-01            NaN
         13   -1    0    0    0    0  0.00000000000E+00  0.00000000000E+00  0.74505805969E-08  0.10566000000E+00  0.10566000000E+00 0. -1.
     999900   -1    0    0    0    0 -0.00000000000E+00 -0.00000000000E+00 -0.74505805969E-08  0.93827000000E+00  0.93827000000E+00 0.  1.
     999902    2    1    2    0    0  0.11601699364E-01  0.16207983518E-01 -0.11909134693E-01  0.10207109206E+01  0.10204467932E+01 0.  0.
     999903    2    3    3    0    0 -0.48759443566E-01  0.10971498721E+00 -0.53046815226E-01  0.13274733124E+00  0.19824923484E-01 0.  0.
         14    1    1    2    0    0 -0.11601699364E-01 -0.16207983518E-01  0.11909134693E-01  0.23219079374E-01  0.00000000000E+00 0. -1.
     999901    1    3    3    0    0  0.60361142930E-01 -0.93507003688E-01  0.41137680533E-01  0.88796358939E+00  0.88000000000E+00 0. -1.
        -11    1    4    4    0    0 -0.33640454045E-01  0.64968597808E-01 -0.41532863043E-01  0.84129891734E-01  0.51100000000E-03 0.  1.
         11    1    4    4    0    0 -0.15118989521E-01  0.44746389398E-01 -0.11513952183E-01  0.48617439507E-01  0.51100000000E-03 0. -1.
</event>
<event>
 8    1  0.1054086E+005  0.1043930E+01  0.7957747E-01            NaN
         13   -1    0    0    0    0  0.00000000000E+00  0.00000000000E+00  0.74505805969E-08  0.10566000000E+00  0.10566000000E+00 0. -1.
     999900   -1    0    0    0    0 -0.00000000000E+00 -0.00000000000E+00 -0.74505805969E-08  0.93827000000E+00  0.93827000000E+00 0.  1.
     999902    2    1    2    0    0  0.20329344834E-01  0.40101979773E-02 -0.10181490873E-01  0.10208426289E+01  0.10205815236E+01 0.  0.
     999903    2    3    3    0    0 -0.80646996375E-02 -0.11329811200E+00 -0.62285465471E-01  0.13107733087E+00  0.20007146147E-01 0.  0.
         14    1    1    2    0    0 -0.20329344834E-01 -0.40101979773E-02  0.10181490873E-01  0.23087371128E-01  0.00000000000E+00 0. -1.
     999901    1    3    3    0    0  0.28394044471E-01  0.11730830998E+00  0.52103974597E-01  0.88976529800E+00  0.88000000000E+00 0. -1.
        -11    1    4    4    0    0  0.49320410822E-02 -0.53576831389E-01 -0.23688835877E-01  0.58789658590E-01  0.51100000000E-03 0. -1.
         11    1    4    4    0    0 -0.12996740720E-01 -0.59721280612E-01 -0.38596629593E-01  0.72287672284E-01  0.51100000000E-03 0.  1.
</event>
<event>
 8    1  0.1054086E+005  0.1043930E+01  0.7957747E-01            NaN
         13   -1    0    0    0    0  0.00000000000E+00  0.00000000000E+00  0.74505805969E-08  0.10566000000E+00  0.10566000000E+00 0.  1.
     999900   -1    0    0    0    0 -0.00000000000E+00 -0.00000000000E+00 -0.74505805969E-08  0.93827000000E+00  0.93827000000E+00 0.  1.
     999902    2    1    2    0    0 -0.15581961183E-02 -0.10452837229E-01  0.18119417760E-01  0.10229537496E+01  0.10227386620E+01 0.  0.
     999903    2    3    3    0    0 -0.13094389040E+00  0.12316789458E-02 -0.11983035842E-01  0.13290692862E+00  0.19309040907E-01 0.  0.
         14    1    1    2    0    0  0.15581961183E-02  0.10452837229E-01 -0.18119417760E-01  0.20976250410E-01  0.00000000000E+00 0. -1.
     999901    1    3    3    0    0  0.12938569428E+00 -0.11684516175E-01  0.30102453602E-01  0.89004682097E+00  0.88000000000E+00 0.  1.
        -11    1    4    4    0    0 -0.65135435226E-01 -0.64683808254E-02 -0.12524973603E-01  0.66645337102E-01  0.51100000000E-03 0.  1.
         11    1    4    4    0    0 -0.65808455177E-01  0.77000597712E-02  0.54193776178E-03  0.66261591520E-01  0.51100000000E-03 0. -1.
</event>
<event>
 8    1  0.1054086E+005  0.1043930E+01  0.7957747E-01            NaN
         13   -1    0    0    0    0  0.00000000000E+00  0.00000000000E+00  0.74505805969E-08  0.10566000000E+00  0.10566000000E+00 0.  1.
     999900   -1    0    0    0    0 -0.00000000000E+00 -0.00000000000E+00 -0.74505805969E-08  0.93827000000E+00  0.93827000000E+00 0. -1.
     999902    2    1    2    0    0  0.20422966071E-01  0.11364331963E-01  0.84869444872E-02  0.10190648877E+01  0.10187614890E+01 0.  0.
     999903    2    3    3    0    0  0.73291332172E-01 -0.16967576992E-01  0.10621372644E+00  0.13162571505E+00  0.19607527592E-01 0.  0.
         14    1    1    2    0    0 -0.20422966071E-01 -0.11364331963E-01 -0.84869444872E-02  0.24865112323E-01  0.00000000000E+00 0.  1.
     999901    1    3    3    0    0 -0.52868366100E-01  0.28331908955E-01 -0.97726781952E-01  0.88743917263E+00  0.88000000000E+00 0. -1.
        -11    1    4    4    0    0  0.44153177946E-01 -0.14941549755E-01  0.50555122228E-01  0.68766521915E-01  0.51100000000E-03 0.  1.
         11    1    4    4    0    0  0.29138154226E-01 -0.20260272367E-02  0.55658604211E-01  0.62859193136E-01  0.51100000000E-03 0. -1.
</event>
<event>
 8    1  0.1054086E+005  0.1043930E+01  0.7957747E-01            NaN
         13   -1    0    0    0    0  0.00000000000E+00  0.00000000000E+00  0.74505805969E-08  0.10566000000E+00  0.10566000000E+00 0.  1.
     999900   -1    0    0    0    0 -0.00000000000E+00 -0.00000000000E+00 -0.74505805969E-08  0.93827000000E+00  0.93827000000E+00 0.  1.
     999902    2    1    2    0    0  0.14005831051E-02 -0.46419381777E-02  0.23080308378E-01  0.10203458982E+01  0.10200733023E+01 0.  0.
     999903    2    3    3    0    0  0.12479341468E+00  0.22905597896E-01 -0.21370235560E-01  0.13019955715E+00  0.19929248590E-01 0.  0.
         14    1    1    2    0    0 -0.14005831051E-02  0.46419381777E-02 -0.23080308378E-01  0.23584101804E-01  0.00000000000E+00 0. -1.
     999901    1    3    3    0    0 -0.12339283158E+00 -0.27547536074E-01  0.44450543938E-01  0.89014634105E+00  0.88000000000E+00 0. -1.
        -11    1    4    4    0    0  0.83434917158E-01  0.14631137645E-01 -0.23673908504E-01  0.87955503835E-01  0.51100000000E-03 0.  1.
         11    1    4    4    0    0  0.41358497526E-01  0.82744602517E-02  0.23036729435E-02  0.42244053311E-01  0.51100000000E-03 0. -1.
</event>
<event>
 8    1  0.1054086E+005  0.1043930E+01  0.7957747E-01            NaN
         13   -1    0    0    0    0  0.00000000000E+00  0.00000000000E+00  0.74505805969E-08  0.10566000000E+00  0.10566000000E+00 0.  1.
     999900   -1    0    0    0    0 -0.00000000000E+00 -0.00000000000E+00 -0.74505805969E-08  0.93827000000E+00  0.93827000000E+00 0.  1.
     999902    2    1    2    0    0 -0.93452163273E-02  0.55000753724E-03  0.21579856381E-01  0.10204071222E+01  0.10201359563E+01 0.  0.
     999903    2    3    3    0    0  0.28385010564E-01  0.12129390320E+00  0.33354124264E-01  0.13128323226E+00  0.24594098620E-01 0.  0.
         14    1    1    2    0    0  0.93452163273E-02 -0.55000753724E-03 -0.21579856381E-01  0.23522877756E-01  0.00000000000E+00 0. -1.
     999901    1    3    3    0    0 -0.37730226891E-01 -0.12074389567E+00 -0.11774267882E-01  0.88912388999E+00  0.88000000000E+00 0.  1.
        -11    1    4    4    0    0  0.11614699916E-01  0.66898729844E-01  0.61106678587E-02  0.68175821899E-01  0.51100000000E-03 0. -1.
         11    1    4    4    0    0  0.16770310648E-01  0.54395173361E-01  0.27243456405E-01  0.63107410358E-01  0.51100000000E-03 0.  1.
</event>
<event>
 8    1  0.1054086E+005  0.1043930E+01  0.7957747E-01            NaN
         13   -1    0    0    0    0  0.00000000000E+00  0.00000000000E+00  0.74505805969E-08  0.10566000000E+00  0.10566000000E+00 0.  1.
     999900   -1    0    0    0    0 -0.00000000000E+00 -0.00000000000E+00 -0.74505805969E-08  0.93827000000E+00  0.93827000000E+00 0.  1.
     999902    2    1    2    0    0 -0.51764493302E-03 -0.20970254819E-01  0.78694948734E-02  0.10215257930E+01  0.10212800777E+01 0.  0.
     999903    2    3    3    0    0 -0.12406691032E+00  0.37058773855E-01 -0.52971707520E-02  0.13090513846E+00  0.18497143017E-01 0.  0.
         14    1    1    2    0    0  0.51764493302E-03  0.20970254819E-01 -0.78694948734E-02  0.22404207038E-01  0.00000000000E+00 0. -1.
     999901    1    3    3    0    0  0.12354926539E+00 -0.58029028674E-01  0.13166665625E-01  0.89062065450E+00  0.88000000000E+00 0.  1.
        -11    1    4    4    0    0 -0.10713189233E+00  0.38386282506E-01 -0.47588668587E-02  0.11390196211E+00  0.51100000000E-03 0.  1.
         11    1    4    4    0    0 -0.16935017993E-01 -0.13275086512E-02 -0.53830389329E-03  0.17003176342E-01  0.51100000000E-03 0. -1.
</event>
<event>
 8    1  0.1054086E+005  0.1043930E+01  0.7957747E-01            NaN
         13   -1    0    0    0    0  0.00000000000E+00  0.00000000000E+00  0.74505805969E-08  0.10566000000E+00  0.10566000000E+00 0.  1.
     999900   -1    0    0    0    0 -0.00000000000E+00 -0.00000000000E+00 -0.74505805969E-08  0.93827000000E+00  0.93827000000E+00 0. -1.
     999902    2    1    2    0    0 -0.12142218386E-01 -0.16787499627E-01 -0.98493788738E-02  0.10209895581E+01  0.10207318031E+01 0.  0.
     999903    2    3    3    0    0 -0.44395411511E-01  0.42584175362E-02 -0.12361734045E+00  0.13283059248E+00  0.19329582390E-01 0.  0.
         14    1    1    2    0    0  0.12142218386E-01  0.16787499627E-01  0.98493788738E-02  0.22940441915E-01  0.00000000000E+00 0.  1.
     999901    1    3    3    0    0  0.32253193125E-01 -0.21045917164E-01  0.11376796158E+00  0.88815896560E+00  0.88000000000E+00 0.  1.
        -11    1    4    4    0    0 -0.10706553036E-01 -0.54368260294E-02 -0.47984496213E-01  0.49466780298E-01  0.51100000000E-03 0.  1.
         11    1    4    4    0    0 -0.33688858475E-01  0.96952435656E-02 -0.75632844241E-01  0.83363812185E-01  0.51100000000E-03 0. -1.
</event>
<event>
 8    1  0.1054086E+005  0.1043930E+01  0.7957747E-01            NaN
         13   -1    0    0    0    0  0.00000000000E+00  0.00000000000E+00  0.74505805969E-08  0.10566000000E+00  0.10566000000E+00 0. -1.
     999900   -1    0    0    0    0 -0.00000000000E+00 -0.00000000000E+00 -0.74505805969E-08  0.93827000000E+00  0.93827000000E+00 0.  1.
     999902    2    1    2    0    0 -0.20416818786E-01 -0.59203220608E-02  0.12103874587E-01  0.10194677744E+01  0.10191742454E+01 0.  0.
     999903    2    3    3    0    0  0.45303085939E-01  0.10367576002E+00  0.58684518176E-01  0.12901835782E+00  0.20020768466E-01 0.  0.
         14    1    1    2    0    0  0.20416818786E-01  0.59203220608E-02 -0.12103874587E-01  0.24462225628E-01  0.00000000000E+00 0. -1.
     999901    1    3    3    0    0 -0.65719904726E-01 -0.10959608208E+00 -0.46580643590E-01  0.89044941655E+00  0.88000000000E+00 0.  1.
        -11    1    4    4    0    0  0.33487672840E-01  0.52776996203E-01  0.28809873014E-01  0.68826633396E-01  0.51100000000E-03 0.  1.
         11    1    4    4    0    0  0.11815413099E-01  0.50898763813E-01  0.29874645163E-01  0.60191724423E-01  0.51100000000E-03 0. -1.
</event>
<event>
 8    1  0.1054086E+005  0.1043930E+01  0.7957747E-01            NaN
         13   -1    0    0    0    0  0.00000000000E+00  0.00000000000E+00  0.74505805969E-08  0.10566000000E+00  0.10566000000E+00 0. -1.
     999900   -1    0    0    0    0 -0.00000000000E+00 -0.00000000000E+00 -0.74505805969E-08  0.93827000000E+00  0.93827000000E+00 0. -1.
     999902    2    1    2    0    0  0.12189627137E-01 -0.16742816467E-01 -0.11129172240E-01  0.10204189943E+01  0.10201481052E+01 0.  0.
     999903    2    3    3    0    0 -0.16926341021E-01 -0.12980885530E+00 -0.93783790781E-02  0.13270578951E+00  0.19647713357E-01 0.  0.
         14    1    1    2    0    0 -0.12189627137E-01  0.16742816467E-01  0.11129172240E-01  0.23511005672E-01  0.00000000000E+00 0. -1.
     999901    1    3    3    0    0  0.29115968158E-01  0.11306603883E+00 -0.17507931615E-02  0.88771320482E+00  0.88000000000E+00 0. -1.
        -11    1    4    4    0    0 -0.87119522587E-02 -0.19536145163E-01  0.22592182836E-02  0.21515674942E-01  0.51100000000E-03 0. -1.
         11    1    4    4    0    0 -0.82143887627E-02 -0.11027271014E+00 -0.11637597362E-01  0.11119011456E+00  0.51100000000E-03 0.  1.
</event>
<event>
 8    1  0.1054086E+005  0.1043930E+01  0.7957747E-01            NaN
         13   -1    0    0    0    0  0.00000000000E+00  0.00000000000E+00  0.74505805969E-08  0.10566000000E+00  0.10566000000E+00 0.  1.
     999900   -1    0    0    0    0 -0.00000000000E+00 -0.00000000000E+00 -0.74505805969E-08  0.93827000000E+00  0.93827000000E+00 0. -1.
     999902    2    1    2    0    0  0.20545111259E-02 -0.62483193733E-02  0.22570591078E-01  0.10204205531E+01  0.10201497004E+01 0.  0.
     999903    2    3    3    0    0 -0.10259123289E+00 -0.11020887370E-01  0.79904000422E-01  0.13235488608E+00  0.22062310876E-01 0.  0.
         14    1    1    2    0    0 -0.20545111259E-02  0.62483193733E-02 -0.22570591078E-01  0.23509446880E-01  0.00000000000E+00 0. -1.
     999901    1    3    3    0    0  0.10464574402E+00  0.47725679966E-02 -0.57333409344E-01  0.88806566704E+00  0.88000000000E+00 0. -1.
        -11    1    4    4    0    0 -0.16486445200E-01  0.12781552936E-02  0.23308612447E-01  0.28583021035E-01  0.51100000000E-03 0.  1.
         11    1    4    4    0    0 -0.86104787693E-01 -0.12299042663E-01  0.56595387976E-01  0.10377186505E+00  0.51100000000E-03 0. -1.
</event>
<event>
 8    1  0.1054086E+005  0.1043930E+01  0.7957747E-01            NaN
         13   -1    0    0    0    0  0.00000000000E+00  0.00000000000E+00  0.74505805969E-08  0.10566000000E+00  0.10566000000E+00 0.  1.
     999900   -1    0    0    0    0 -0.00000000000E+00 -0.00000000000E+00 -0.74505805969E-08  0.93827000000E+00  0.93827000000E+00 0.  1.
     999902    2    1    2    0    0  0.27840444359E-02  0.16846239416E-01  0.12974506761E-01  0.10224850819E+01  0.10222601715E+01 0.  0.
     999903    2    3    3    0    0  0.42026367270E-03 -0.11648925475E+00  0.57685390917E-01  0.13131562293E+00  0.18608208048E-01 0.  0.
         14    1    1    2    0    0 -0.27840444359E-02 -0.16846239416E-01 -0.12974506761E-01  0.21444918083E-01  0.00000000000E+00 0.  1.
     999901    1    3    3    0    0  0.23637807632E-02  0.13333549417E+00 -0.44710884156E-01  0.89116945898E+00  0.88000000000E+00 0.  1.
        -11    1    4    4    0    0 -0.62053528677E-02 -0.92766962928E-01  0.49654422916E-01  0.10540416809E+00  0.51100000000E-03 0. -1.
         11    1    4    4    0    0  0.66256165404E-02 -0.23722291824E-01  0.80309680010E-02  0.25911454841E-01  0.51100000000E-03 0.  1.
</event>
<event>
 8    1  0.1054086E+005  0.1043930E+01  0.7957747E-01            NaN
         13   -1    0    0    0    0  0.00000000000E+00  0.00000000000E+00  0.74505805969E-08  0.10566000000E+00  0.10566000000E+00 0.  1.
     999900   -1    0    0    0    0 -0.00000000000E+00 -0.00000000000E+00 -0.74505805969E-08  0.93827000000E+00  0.93827000000E+00 0. -1.
     999902    2    1    2    0    0  0.21547820067E-01  0.40906529559E-02 -0.87473974289E-02  0.10203173137E+01  0.10200440489E+01 0.  0.
     999903    2    3    3    0    0  0.11349648293E+00  0.89271365653E-02  0.64562941336E-01  0.13248154403E+00  0.20538761181E-01 0.  0.
         14    1    1    2    0    0 -0.21547820067E-01 -0.40906529559E-02  0.87473974289E-02  0.23612686273E-01  0.00000000000E+00 0.  1.
     999901    1    3    3    0    0 -0.91948662863E-01 -0.48364836093E-02 -0.73310338765E-01  0.88783576969E+00  0.88000000000E+00 0. -1.
        -11    1    4    4    0    0  0.53446333797E-01  0.11633741134E-01  0.38888223300E-01  0.67114898208E-01  0.51100000000E-03 0. -1.
         11    1    4    4    0    0  0.60050149134E-01 -0.27066045689E-02  0.25674718036E-01  0.65366645826E-01  0.51100000000E-03 0.  1.
</event>
<event>
 8    1  0.1054086E+005  0.1043930E+01  0.7957747E-01            NaN
         13   -1    0    0    0    0  0.00000000000E+00  0.00000000000E+00  0.74505805969E-08  0.10566000000E+00  0.10566000000E+00 0.  1.
     999900   -1    0    0    0    0 -0.00000000000E+00 -0.00000000000E+00 -0.74505805969E-08  0.93827000000E+00  0.93827000000E+00 0. -1.
     999902    2    1    2    0    0  0.92145000011E-02  0.46994027828E-02  0.22533083916E-01  0.10191362252E+01  0.10188345863E+01 0.  0.
     999903    2    3    3    0    0 -0.12002161683E+00 -0.70946184271E-02  0.42490656891E-01  0.12939503952E+00  0.21956734991E-01 0.  0.
         14    1    1    2    0    0 -0.92145000011E-02 -0.46994027828E-02 -0.22533083916E-01  0.24793774774E-01  0.00000000000E+00 0. -1.
     999901    1    3    3    0    0  0.12923611683E+00  0.11794021210E-01 -0.19957572975E-01  0.88974118571E+00  0.88000000000E+00 0. -1.
        -11    1    4    4    0    0 -0.69220050626E-01 -0.78981121959E-02  0.35218973008E-01  0.78066848058E-01  0.51100000000E-03 0.  1.
         11    1    4    4    0    0 -0.50801566203E-01  0.80349376877E-03  0.72716838832E-02  0.51328191458E-01  0.51100000000E-03 0. -1.
</event>
<event>
 8    1  0.1054086E+005  0.1043930E+01  0.7957747E-01            NaN
         13   -1    0    0    0    0  0.00000000000E+00  0.00000000000E+00  0.74505805969E-08  0.10566000000E+00  0.10566000000E+00 0. -1.
     999900   -1    0    0    0    0 -0.00000000000E+00 -0.00000000000E+00 -0.74505805969E-08  0.93827000000E+00  0.93827000000E+00 0.  1.
     999902    2    1    2    0    0 -0.20894739084E-01  0.53167366052E-02 -0.81114468715E-02  0.10208940850E+01  0.10206341555E+01 0.  0.
     999903    2    3    3    0    0  0.46914435843E-01 -0.89008590709E-01  0.78236895852E-01  0.12906933323E+00  0.20356507501E-01 0.  0.
         14    1    1    2    0    0  0.20894739084E-01 -0.53167366052E-02  0.81114468715E-02  0.23035914999E-01  0.00000000000E+00 0.  1.
     999901    1    3    3    0    0 -0.67809174927E-01  0.94325327314E-01 -0.86348342724E-01  0.89182475177E+00  0.88000000000E+00 0. -1.
        -11    1    4    4    0    0  0.15216058724E-01 -0.30764724760E-01  0.39260380430E-01  0.52150122964E-01  0.51100000000E-03 0.  1.
         11    1    4    4    0    0  0.31698377119E-01 -0.58243865950E-01  0.38976515423E-01  0.76919210268E-01  0.51100000000E-03 0. -1.
</event>
<event>
 8    1  0.1054086E+005  0.1043930E+01  0.7957747E-01            NaN
         13   -1    0    0    0    0  0.00000000000E+00  0.00000000000E+00  0.74505805969E-08  0.10566000000E+00  0.10566000000E+00 0.  1.
     999900   -1    0    0    0    0 -0.00000000000E+00 -0.00000000000E+00 -0.74505805969E-08  0.93827000000E+00  0.93827000000E+00 0. -1.
     999902    2    1    2    0    0  0.10722249024E-01 -0.17945911634E-01  0.11956163297E-01  0.10198473878E+01  0.10195630055E+01 0.  0.
     999903    2    3    3    0    0 -0.80719188164E-01 -0.42611528878E-01 -0.89026522481E-01  0.12902336932E+00  0.19747870645E-01 0.  0.
         14    1    1    2    0    0 -0.10722249024E-01  0.17945911634E-01 -0.11956163297E-01  0.24082612178E-01  0.00000000000E+00 0. -1.
     999901    1    3    3    0    0  0.91441437188E-01  0.24665617244E-01  0.10098268578E+00  0.89082401850E+00  0.88000000000E+00 0.  1.
        -11    1    4    4    0    0 -0.16261355365E-01 -0.77340943261E-03 -0.19337692202E-01  0.25283142628E-01  0.51100000000E-03 0.  1.
         11    1    4    4    0    0 -0.64457832800E-01 -0.41838119446E-01 -0.69688830279E-01  0.10374022669E+00  0.51100000000E-03 0. -1.
</event>
<event>
 8    1  0.1054086E+005  0.1043930E+01  0.7957747E-01            NaN
         13   -1    0    0    0    0  0.00000000000E+00  0.00000000000E+00  0.74505805969E-08  0.10566000000E+00  0.10566000000E+00 0. -1.
     999900   -1    0    0    0    0 -0.00000000000E+00 -0.00000000000E+00 -0.74505805969E-08  0.93827000000E+00  0.93827000000E+00 0.  1.
     999902    2    1    2    0    0 -0.15406011775E-01  0.16227552593E-01 -0.65879580661E-02  0.10206044806E+01  0.10203378980E+01 0.  0.
     999903    2    3    3    0    0 -0.41050596491E-01  0.10931438269E+00  0.60032447391E-01  0.13282011432E+00  0.20062459762E-01 0.  0.
         14    1    1    2    0    0  0.15406011775E-01 -0.16227552593E-01  0.65879580661E-02  0.23325519361E-01  0.00000000000E+00 0.  1.
     999901    1    3    3    0    0  0.25644584716E-01 -0.93086830099E-01 -0.66620405457E-01  0.88778436632E+00  0.88000000000E+00 0.  1.
        -11    1    4    4    0    0 -0.20175403787E-01  0.77652868212E-01  0.45254525224E-01  0.92115406061E-01  0.51100000000E-03 0. -1.
         11    1    4    4    0    0 -0.20875192704E-01  0.31661514480E-01  0.14777922167E-01  0.40704708255E-01  0.51100000000E-03 0.  1.
</event>
<event>
 8    1  0.1054086E+005  0.1043930E+01  0.7957747E-01            NaN
         13   -1    0    0    0    0  0.00000000000E+00  0.00000000000E+00  0.74505805969E-08  0.10566000000E+00  0.10566000000E+00 0.  1.
     999900   -1    0    0    0    0 -0.00000000000E+00 -0.00000000000E+00 -0.74505805969E-08  0.93827000000E+00  0.93827000000E+00 0.  1.
     999902    2    1    2    0    0 -0.36608395651E-03  0.19017214458E-01  0.10961422369E-01  0.10219768398E+01  0.10217410238E+01 0.  0.
     999903    2    3    3    0    0  0.23522459107E-01 -0.12409542881E+00 -0.20889905876E-01  0.12952717831E+00  0.19695690354E-01 0.  0.
         14    1    1    2    0    0  0.36608395651E-03 -0.19017214458E-01 -0.10961422369E-01  0.21953160218E-01  0.00000000000E+00 0. -1.
     999901    1    3    3    0    0 -0.23888543064E-01  0.14311264327E+00  0.31851328244E-01  0.89244966147E+00  0.88000000000E+00 0.  1.
        -11    1    4    4    0    0  0.18286154902E-01 -0.84380809556E-01 -0.51826546021E-02  0.86496390168E-01  0.51100000000E-03 0. -1.
         11    1    4    4    0    0  0.52363042050E-02 -0.39714619257E-01 -0.15707251274E-01  0.43030788141E-01  0.51100000000E-03 0.  1.
</event>
<event>
 8    1  0.1054086E+005  0.1043930E+01  0.7957747E-01            NaN
         13   -1    0    0    0    0  0.00000000000E+00  0.00000000000E+00  0.74505805969E-08  0.10566000000E+00  0.10566000000E+00 0. -1.
     999900   -1    0    0    0    0 -0.00000000000E+00 -0.00000000000E+00 -0.74505805969E-08  0.93827000000E+00  0.93827000000E+00 0. -1.
     999902    2    1    2    0    0 -0.78831400608E-03  0.25393270483E-02  0.24139039170E-01  0.10196449669E+01  0.10193557258E+01 0.  0.
     999903    2    3    3    0    0  0.12299286031E-01  0.16087855525E-01  0.13023973826E+00  0.13307167255E+00  0.18319090652E-01 0.  0.
         14    1    1    2    0    0  0.78831400608E-03 -0.25393270483E-02 -0.24139039170E-01  0.24285033104E-01  0.00000000000E+00 0.  1.
     999901    1    3    3    0    0 -0.13087600037E-01 -0.13548528477E-01 -0.10610069909E+00  0.88657329434E+00  0.88000000000E+00 0. -1.
        -11    1    4    4    0    0  0.13019756193E-01  0.87644682084E-02  0.48035014992E-01  0.50536657394E-01  0.51100000000E-03 0.  1.
         11    1    4    4    0    0 -0.72047016219E-03  0.73233873166E-02  0.82204723264E-01  0.82535015157E-01  0.51100000000E-03 0. -1.
</event>
<event>
 8    1  0.1054086E+005  0.1043930E+01  0.7957747E-01            NaN
         13   -1    0    0    0    0  0.00000000000E+00  0.00000000000E+00  0.74505805969E-08  0.10566000000E+00  0.10566000000E+00 0. -1.
     999900   -1    0    0    0    0 -0.00000000000E+00 -0.00000000000E+00 -0.74505805969E-08  0.93827000000E+00  0.93827000000E+00 0. -1.
     999902    2    1    2    0    0  0.14975457932E-01  0.56863025850E-02  0.18125049953E-01  0.10197408327E+01  0.10194538980E+01 0.  0.
     999903    2    3    3    0    0  0.28163655154E-01  0.89023918274E-01 -0.87495002894E-01  0.12941803605E+00  0.19370158125E-01 0.  0.
         14    1    1    2    0    0 -0.14975457932E-01 -0.56863025850E-02 -0.18125049953E-01  0.24189167269E-01  0.00000000000E+00 0.  1.
     999901    1    3    3    0    0 -0.13188197222E-01 -0.83337615689E-01  0.10562005285E+00  0.89032279669E+00  0.88000000000E+00 0.  1.
        -11    1    4    4    0    0  0.15695465820E-01  0.42942534135E-01 -0.55676061576E-01  0.72045081989E-01  0.51100000000E-03 0.  1.
         11    1    4    4    0    0  0.12468189335E-01  0.46081384140E-01 -0.31818941318E-01  0.57372954056E-01  0.51100000000E-03 0. -1.
</event>
<event>
 8    1  0.1054086E+005  0.1043930E+01  0.7957747E-01            NaN
         13   -1    0    0    0    0  0.00000000000E+00  0.00000000000E+00  0.74505805969E-08  0.10566000000E+00  0.10566000000E+00 0. -1.
     999900   -1    0    0    0    0 -0.00000000000E+00 -0.00000000000E+00 -0.74505805969E-08  0.93827000000E+00  0.93827000000E+00 0. -1.
     999902    2    1    2    0    0 -0.11115716990E-01  0.19119279809E-01 -0.41543171194E-02  0.10214274585E+01  0.10211795574E+01 0.  0.
     999903    2    3    3    0    0 -0.12752188994E+00  0.13482716725E-01 -0.30998087945E-01  0.13333807334E+00  0.19353146588E-01 0.  0.
         14    1    1    2    0    0  0.11115716990E-01 -0.19119279809E-01  0.41543171194E-02  0.22502541531E-01  0.00000000000E+00 0.  1.
     999901    1    3    3    0    0  0.11640617295E+00  0.56365630839E-02  0.26843770826E-01  0.88808938513E+00  0.88000000000E+00 0. -1.
        -11    1    4    4    0    0 -0.52835864383E-01  0.14422291323E-01 -0.92873828342E-02  0.55553106601E-01  0.51100000000E-03 0.  1.
         11    1    4    4    0    0 -0.74686025554E-01 -0.93957459773E-03 -0.21710705111E-01  0.77784966741E-01  0.51100000000E-03 0. -1.
</event>
<event>
 8    1  0.1054086E+005  0.1043930E+01  0.7957747E-01            NaN
         13   -1    0    0    0    0  0.00000000000E+00  0.00000000000E+00  0.74505805969E-08  0.10566000000E+00  0.10566000000E+00 0.  1.
     999900   -1    0    0    0    0 -0.00000000000E+00 -0.00000000000E+00 -0.74505805969E-08  0.93827000000E+00  0.93827000000E+00 0.  1.
     999902    2    1    2    0    0  0.67043614084E-02 -0.33953346564E-02  0.22343972567E-01  0.10203560765E+01  0.10200837186E+01 0.  0.
     999903    2    3    3    0    0  0.72193103876E-01  0.80827912541E-01  0.73396846576E-01  0.13244350946E+00  0.20228455633E-01 0.  0.
         14    1    1    2    0    0 -0.67043614084E-02  0.33953346564E-02 -0.22343972567E-01  0.23573923504E-01  0.00000000000E+00 0. -1.
     999901    1    3    3    0    0 -0.65488742467E-01 -0.84223247198E-01 -0.51052874010E-01  0.88791256704E+00  0.88000000000E+00 0. -1.
        -11    1    4    4    0    0  0.14897920203E-01  0.20139692013E-01  0.76588411358E-02  0.26200652459E-01  0.51100000000E-03 0. -1.
         11    1    4    4    0    0  0.57295183673E-01  0.60688220528E-01  0.65738005440E-01  0.10624285700E+00  0.51100000000E-03 0.  1.
</event>
<event>
 8    1  0.1054086E+005  0.1043930E+01  0.7957747E-01            NaN
         13   -1    0    0    0    0  0.00000000000E+00  0.00000000000E+00  0.74505805969E-08  0.10566000000E+00  0.10566000000E+00 0. -1.
     999900   -1    0    0    0    0 -0.00000000000E+00 -0.00000000000E+00 -0.74505805969E-08  0.93827000000E+00  0.93827000000E+00 0.  1.
     999902    2    1    2    0    0 -0.58354620714E-02  0.15038186009E-01  0.21977993209E-01  0.10166677213E+01  0.10163021321E+01 0.  0.
     999903    2    3    3    0    0 -0.11906001010E+00  0.44024909845E-01  0.10367290431E-01  0.12886434391E+00  0.19622938822E-01 0.  0.
         14    1    1    2    0    0  0.58354620714E-02 -0.15038186009E-01 -0.21977993209E-01  0.27262278729E-01  0.00000000000E+00 0.  1.
     999901    1    3    3    0    0  0.11322454803E+00 -0.28986723835E-01  0.11610702778E-01  0.88780337736E+00  0.88000000000E+00 0. -1.
        -11    1    4    4    0    0 -0.92108571858E-01  0.39057561373E-01  0.15149136846E-02  0.10006017287E+00  0.51100000000E-03 0. -1.
         11    1    4    4    0    0 -0.26951438243E-01  0.49673484715E-02  0.88523767466E-02  0.28804171040E-01  0.51100000000E-03 0.  1.
</event>
<event>
 8    1  0.1054086E+005  0.1043930E+01  0.7957747E-01            NaN
         13   -1    0    0    0    0  0.00000000000E+00  0.00000000000E+00  0.74505805969E-08  0.10566000000E+00  0.10566000000E+00 0. -1.
     999900   -1    0    0    0    0 -0.00000000000E+00 -0.00000000000E+00 -0.74505805969E-08  0.93827000000E+00  0.93827000000E+00 0. -1.
     999902    2    1    2    0    0  0.22153179041E-01 -0.73314481421E-02 -0.45394208563E-02  0.10201577512E+01  0.10198807369E+01 0.  0.
     999903    2    3    3    0    0 -0.10191284181E+00 -0.32856669089E-01  0.68813793540E-01  0.12806772851E+00  0.14149801282E-01 0.  0.
         14    1    1    2    0    0 -0.22153179041E-01  0.73314481421E-02  0.45394208563E-02  0.23772248846E-01  0.00000000000E+00 0. -1.
     999901    1    3    3    0    0  0.12406602085E+00  0.25525220947E-01 -0.73353214396E-01  0.89209002264E+00  0.88000000000E+00 0. -1.
        -11    1    4    4    0    0 -0.77929998006E-01 -0.23612616629E-01  0.45061571449E-01  0.93066893124E-01  0.51100000000E-03 0.  1.
         11    1    4    4    0    0 -0.23982843800E-01 -0.92440524600E-02  0.23752222091E-01  0.35000835389E-01  0.51100000000E-03 0. -1.
</event>
<event>
 8    1  0.1054086E+005  0.1043930E+01  0.7957747E-01            NaN
         13   -1    0    0    0    0  0.00000000000E+00  0.00000000000E+00  0.74505805969E-08  0.10566000000E+00  0.10566000000E+00 0.  1.
     999900   -1    0    0    0    0 -0.00000000000E+00 -0.00000000000E+00 -0.74505805969E-08  0.93827000000E+00  0.93827000000E+00 0. -1.
     999902    2    1    2    0    0  0.14619522616E-01  0.37800410507E-02 -0.17933360766E-01  0.10204859265E+01  0.10202165955E+01 0.  0.
     999903    2    3    3    0    0  0.86200605466E-01 -0.89102777272E-01  0.37293570882E-01  0.13099107926E+00  0.19950015457E-01 0.  0.
         14    1    1    2    0    0 -0.14619522616E-01 -0.37800410507E-02  0.17933360766E-01  0.23444073457E-01  0.00000000000E+00 0.  1.
     999901    1    3    3    0    0 -0.71581082850E-01  0.92882818322E-01 -0.55226931648E-01  0.88949484728E+00  0.88000000000E+00 0. -1.
        -11    1    4    4    0    0  0.46305804092E-01 -0.33684019199E-01  0.18168932894E-01  0.60076716667E-01  0.51100000000E-03 0. -1.
         11    1    4    4    0    0  0.39894801374E-01 -0.55418758073E-01  0.19124637988E-01  0.70914362595E-01  0.51100000000E-03 0.  1.
</event>
<event>
 8    1  0.1054086E+005  0.1043930E+01  0.7957747E-01            NaN
         13   -1    0    0    0    0  0.00000000000E+00  0.00000000000E+00  0.74505805969E-08  0.10566000000E+00  0.10566000000E+00 0.  1.
     999900   -1    0    0    0    0 -0.00000000000E+00 -0.00000000000E+00 -0.74505805969E-08  0.93827000000E+00  0.93827000000E+00 0. -1.
     999902    2    1    2    0    0 -0.15709358964E-01  0.16800510838E-01  0.52275896352E-02  0.10203425284E+01  0.10200698537E+01 0.  0.
     999903    2    3    3    0    0 -0.52210871722E-02 -0.12681166510E+00 -0.30903065855E-02  0.12860061039E+00  0.20496556796E-01 0.  0.
         14    1    1    2    0    0  0.15709358964E-01 -0.16800510838E-01 -0.52275896352E-02  0.23587471608E-01  0.00000000000E+00 0. -1.
     999901    1    3    3    0    0 -0.10488271791E-01  0.14361217594E+00  0.83178962207E-02  0.89174191800E+00  0.88000000000E+00 0.  1.
        -11    1    4    4    0    0 -0.29846835428E-02 -0.11176498369E+00 -0.92344931613E-02  0.11218670554E+00  0.51100000000E-03 0.  1.
         11    1    4    4    0    0 -0.22364036294E-02 -0.15046681413E-01  0.61441865758E-02  0.16413904850E-01  0.51100000000E-03 0. -1.
</event>
<event>
 8    1  0.1054086E+005  0.1043930E+01  0.7957747E-01            NaN
         13   -1    0    0    0    0  0.00000000000E+00  0.00000000000E+00  0.74505805969E-08  0.10566000000E+00  0.10566000000E+00 0. -1.
     999900   -1    0    0    0    0 -0.00000000000E+00 -0.00000000000E+00 -0.74505805969E-08  0.93827000000E+00  0.93827000000E+00 0. -1.
     999902    2    1    2    0    0  0.14234861401E-02 -0.18597625327E-01 -0.16867683189E-01  0.10187821031E+01  0.10184716770E+01 0.  0.
     999903    2    3    3    0    0  0.10159694310E+00  0.40480487598E-01 -0.66833613078E-01  0.12972555878E+00  0.20034471296E-01 0.  0.
         14    1    1    2    0    0 -0.14234861401E-02  0.18597625327E-01  0.16867683189E-01  0.25147896865E-01  0.00000000000E+00 0. -1.
     999901    1    3    3    0    0 -0.10017345696E+00 -0.59078112925E-01  0.49965929889E-01  0.88905654435E+00  0.88000000000E+00 0. -1.
        -11    1    4    4    0    0  0.85254624995E-01  0.33352749503E-01 -0.63915130652E-01  0.11165196832E+00  0.51100000000E-03 0.  1.
         11    1    4    4    0    0  0.16342318109E-01  0.71277380952E-02 -0.29184824253E-02  0.18073590462E-01  0.51100000000E-03 0. -1.
</event>
<event>
 8    1  0.1054086E+005  0.1043930E+01  0.7957747E-01            NaN
         13   -1    0    0    0    0  0.00000000000E+00  0.00000000000E+00  0.74505805969E-08  0.10566000000E+00  0.10566000000E+00 0. -1.
     999900   -1    0    0    0    0 -0.00000000000E+00 -0.00000000000E+00 -0.74505805969E-08  0.93827000000E+00  0.93827000000E+00 0. -1.
     999902    2    1    2    0    0 -0.12093188589E-01 -0.15547183152E-01  0.12650425527E-01  0.10205207416E+01  0.10202522191E+01 0.  0.
     999903    2    3    3    0    0  0.70042918282E-01 -0.60235051256E-02 -0.10599704933E+00  0.12871680360E+00  0.19757227712E-01 0.  0.
         14    1    1    2    0    0  0.12093188589E-01  0.15547183152E-01 -0.12650425527E-01  0.23409258430E-01  0.00000000000E+00 0. -1.
     999901    1    3    3    0    0 -0.82136106872E-01 -0.95236780262E-02  0.11864747485E+00  0.89180393797E+00  0.88000000000E+00 0.  1.
        -11    1    4    4    0    0  0.22475040974E-01 -0.10217715600E-01 -0.44047178836E-01  0.50496972813E-01  0.51100000000E-03 0. -1.
         11    1    4    4    0    0  0.47567877308E-01  0.41942104745E-02 -0.61949870490E-01  0.78219830784E-01  0.51100000000E-03 0.  1.
</event>
<event>
 8    1  0.1054086E+005  0.1043930E+01  0.7957747E-01            NaN
         13   -1    0    0    0    0  0.00000000000E+00  0.00000000000E+00  0.74505805969E-08  0.10566000000E+00  0.10566000000E+00 0. -1.
     999900   -1    0    0    0    0 -0.00000000000E+00 -0.00000000000E+00 -0.74505805969E-08  0.93827000000E+00  0.93827000000E+00 0.  1.
     999902    2    1    2    0    0 -0.19568129985E-01 -0.14269932256E-01  0.13361443881E-02  0.10196745272E+01  0.10193859983E+01 0.  0.
     999903    2    3    3    0    0  0.48008267362E-01 -0.86772947359E-01 -0.81883509787E-01  0.13020908803E+00  0.20375458350E-01 0.  0.
         14    1    1    2    0    0  0.19568129985E-01  0.14269932256E-01 -0.13361443881E-02  0.24255472774E-01  0.00000000000E+00 0.  1.
     999901    1    3    3    0    0 -0.67576397347E-01  0.72503015103E-01  0.83219654175E-01  0.88946543919E+00  0.88000000000E+00 0.  1.
        -11    1    4    4    0    0  0.28342842467E-01 -0.39079151797E-01 -0.50289624948E-01  0.69712296782E-01  0.51100000000E-03 0.  1.
         11    1    4    4    0    0  0.19665424895E-01 -0.47693795562E-01 -0.31593884838E-01  0.60496791251E-01  0.51100000000E-03 0. -1.
</event>
<event>
 8    1  0.1054086E+005  0.1043930E+01  0.7957747E-01            NaN
         13   -1    0    0    0    0  0.00000000000E+00  0.00000000000E+00  0.74505805969E-08  0.10566000000E+00  0.10566000000E+00 0.  1.
     999900   -1    0    0    0    0 -0.00000000000E+00 -0.00000000000E+00 -0.74505805969E-08  0.93827000000E+00  0.93827000000E+00 0. -1.
     999902    2    1    2    0    0  0.12666054147E-01  0.19293746325E-01  0.38158978084E-02  0.10205368674E+01  0.10202687191E+01 0.  0.
     999903    2    3    3    0    0  0.35828594161E-01 -0.89043778961E-01  0.85072399443E-01  0.12987635877E+00  0.20446825898E-01 0.  0.
         14    1    1    2    0    0 -0.12666054147E-01 -0.19293746325E-01 -0.38158978084E-02  0.23393132560E-01  0.00000000000E+00 0. -1.
     999901    1    3    3    0    0 -0.23162540014E-01  0.10833752529E+00 -0.81256501634E-01  0.89066050867E+00  0.88000000000E+00 0. -1.
        -11    1    4    4    0    0  0.21107821325E-01 -0.38110075364E-01  0.49933279919E-01  0.66268480666E-01  0.51100000000E-03 0. -1.
         11    1    4    4    0    0  0.14720772836E-01 -0.50933703598E-01  0.35139119524E-01  0.63607878104E-01  0.51100000000E-03 0.  1.
</event>
<event>
 8    1  0.1054086E+005  0.1043930E+01  0.7957747E-01            NaN
         13   -1    0    0    0    0  0.00000000000E+00  0.00000000000E+00  0.74505805969E-08  0.10566000000E+00  0.10566000000E+00 0. -1.
     999900   -1    0    0    0    0 -0.00000000000E+00 -0.00000000000E+00 -0.74505805969E-08  0.93827000000E+00  0.93827000000E+00 0. -1.
     999902    2    1    2    0    0 -0.17715446695E-01 -0.45884113433E-03 -0.14470184707E-01  0.10210513236E+01  0.10207949704E+01 0.  0.
     999903    2    3    3    0    0 -0.54285773967E-01 -0.83150501519E-01  0.83161769914E-01  0.13104722359E+00  0.19913404462E-01 0.  0.
         14    1    1    2    0    0  0.17715446695E-01  0.45884113433E-03  0.14470184707E-01  0.22878676366E-01  0.00000000000E+00 0. -1.
     999901    1    3    3    0    0  0.36570327272E-01  0.82691660385E-01 -0.97631954621E-01  0.89000410005E+00  0.88000000000E+00 0. -1.
        -11    1    4    4    0    0 -0.31147109748E-01 -0.36278712924E-01  0.49764950287E-01  0.69015207419E-01  0.51100000000E-03 0.  1.
         11    1    4    4    0    0 -0.23138664219E-01 -0.46871788595E-01  0.33396819627E-01  0.62032016170E-01  0.51100000000E-03 0. -1.
</event>
<event>
 8    1  0.1054086E+005  0.1043930E+01  0.7957747E-01            NaN
         13   -1    0    0    0    0  0.00000000000E+00  0.00000000000E+00  0.74505805969E-08  0.10566000000E+00  0.10566000000E+00 0.  1.
     999900   -1    0    0    0    0 -0.00000000000E+00 -0.00000000000E+00 -0.74505805969E-08  0.93827000000E+00  0.93827000000E+00 0.  1.
     999902    2    1    2    0    0 -0.95780515324E-02  0.17779515657E-02 -0.20314519360E-01  0.10214004665E+01  0.10211519638E+01 0.  0.
     999903    2    3    3    0    0  0.98767170074E-01  0.67674091860E-01 -0.51440398891E-01  0.13176581748E+00  0.19528938160E-01 0.  0.
         14    1    1    2    0    0  0.95780515324E-02 -0.17779515657E-02  0.20314519360E-01  0.22529533501E-01  0.00000000000E+00 0.  1.
     999901    1    3    3    0    0 -0.10834522161E+00 -0.65896140295E-01  0.31125879530E-01  0.88963464901E+00  0.88000000000E+00 0. -1.
        -11    1    4    4    0    0  0.24683787826E-01  0.19421087923E-01 -0.47132403506E-02  0.31763875600E-01  0.51100000000E-03 0. -1.
         11    1    4    4    0    0  0.74083382248E-01  0.48253003938E-01 -0.46727158540E-01  0.10000194188E+00  0.51100000000E-03 0.  1.
</event>
<event>
 8    1  0.1054086E+005  0.1043930E+01  0.7957747E-01            NaN
         13   -1    0    0    0    0  0.00000000000E+00  0.00000000000E+00  0.74505805969E-08  0.10566000000E+00  0.10566000000E+00 0. -1.
     999900   -1    0    0    0    0 -0.00000000000E+00 -0.00000000000E+00 -0.74505805969E-08  0.93827000000E+00  0.93827000000E+00 0. -1.
     999902    2    1    2    0    0 -0.53939306692E-02 -0.19673238899E-01 -0.12567219476E-01  0.10199703293E+01  0.10196888774E+01 0.  0.
     999903    2    3    3    0    0 -0.69015318822E-01  0.86992035133E-01 -0.64216383263E-01  0.12974968367E+00  0.19506617416E-01 0.  0.
         14    1    1    2    0    0  0.53939306692E-02  0.19673238899E-01  0.12567219476E-01  0.23959670745E-01  0.00000000000E+00 0. -1.
     999901    1    3    3    0    0  0.63621388153E-01 -0.10666527403E+00  0.51649163787E-01  0.89022064559E+00  0.88000000000E+00 0. -1.
        -11    1    4    4    0    0 -0.83588990737E-02  0.17678493431E-01 -0.48044872354E-02  0.20143101606E-01  0.51100000000E-03 0.  1.
         11    1    4    4    0    0 -0.60656419748E-01  0.69313541702E-01 -0.59411896028E-01  0.10960658206E+00  0.51100000000E-03 0. -1.
</event>
<event>
 8    1  0.1054086E+005  0.1043930E+01  0.7957747E-01            NaN
         13   -1    0    0    0    0  0.00000000000E+00  0.00000000000E+00  0.74505805969E-08  0.10566000000E+00  0.10566000000E+00 0.  1.
     999900   -1    0    0    0    0 -0.00000000000E+00 -0.00000000000E+00 -0.74505805969E-08  0.93827000000E+00  0.93827000000E+00 0.  1.
     999902    2    1    2    0    0  0.14797323960E-02 -0.22561643616E-01  0.70388374123E-02  0.10202495734E+01  0.10199747200E+01 0.  0.
     999903    2    3    3    0    0 -0.10913124514E+00  0.10269217039E-01  0.69700877890E-01  0.13050849588E+00  0.12616244835E-01 0.  0.
         14    1    1    2    0    0 -0.14797323960E-02  0.22561643616E-01 -0.70388374123E-02  0.23680426575E-01  0.00000000000E+00 0. -1.
     999901    1    3    3    0    0  0.11061097753E+00 -0.32830860655E-01 -0.62662040477E-01  0.88974107755E+00  0.88000000000E+00 0.  1.
        -11    1    4    4    0    0 -0.69181793301E-01  0.51481084453E-02  0.36993480404E-01  0.78621894268E-01  0.51100000000E-03 0.  1.
         11    1    4    4    0    0 -0.39949451835E-01  0.51211085933E-02  0.32707397486E-01  0.51886601608E-01  0.51100000000E-03 0. -1.
</event>
<event>
 8    1  0.1054086E+005  0.1043930E+01  0.7957747E-01            NaN
         13   -1    0    0    0    0  0.00000000000E+00  0.00000000000E+00  0.74505805969E-08  0.10566000000E+00  0.10566000000E+00 0.  1.
     999900   -1    0    0    0    0 -0.00000000000E+00 -0.00000000000E+00 -0.74505805969E-08  0.93827000000E+00  0.93827000000E+00 0. -1.
     999902    2    1    2    0    0 -0.21031966321E-01  0.61757978551E-02 -0.54847569569E-02  0.10213342782E+01  0.10210842968E+01 0.  0.
     999903    2    3    3    0    0  0.20501059914E-01 -0.10515533969E+00  0.70694639752E-01  0.13008632448E+00  0.21137190121E-01 0.  0.
         14    1    1    2    0    0  0.21031966321E-01 -0.61757978551E-02  0.54847569569E-02  0.22595721837E-01  0.00000000000E+00 0.  1.
     999901    1    3    3    0    0 -0.41533026235E-01  0.11133113754E+00 -0.76179396708E-01  0.89124795368E+00  0.88000000000E+00 0. -1.
        -11    1    4    4    0    0 -0.40549686806E-02 -0.25845713810E-01  0.16282576566E-01  0.30819265306E-01  0.51100000000E-03 0. -1.
         11    1    4    4    0    0  0.24556028594E-01 -0.79309625875E-01  0.54412063185E-01  0.99267059178E-01  0.51100000000E-03 0.  1.
</event>
<event>
 8    1  0.1054086E+005  0.1043930E+01  0.7957747E-01            NaN
         13   -1    0    0    0    0  0.00000000000E+00  0.00000000000E+00  0.74505805969E-08  0.10566000000E+00  0.10566000000E+00 0.  1.
     999900   -1    0    0    0    0 -0.00000000000E+00 -0.00000000000E+00 -0.74505805969E-08  0.93827000000E+00  0.93827000000E+00 0.  1.
     999902    2    1    2    0    0  0.95077337754E-02 -0.12317788671E-01  0.15730469530E-01  0.10218037127E+01  0.10215641216E+01 0.  0.
     999903    2    3    3    0    0 -0.64276037846E-01  0.72697919715E-01 -0.82758767199E-01  0.12918293912E+00  0.20562627239E-01 0.  0.
         14    1    1    2    0    0 -0.95077337754E-02  0.12317788671E-01 -0.15730469530E-01  0.22126287328E-01  0.00000000000E+00 0. -1.
     999901    1    3    3    0    0  0.73783771622E-01 -0.85015708387E-01  0.98489236729E-01  0.89262077355E+00  0.88000000000E+00 0. -1.
        -11    1    4    4    0    0 -0.44133444272E-02  0.15135488236E-01 -0.17510229153E-01  0.23567559466E-01  0.51100000000E-03 0. -1.
         11    1    4    4    0    0 -0.59862693419E-01  0.57562431479E-01 -0.65248538046E-01  0.10561537965E+00  0.51100000000E-03 0.  1.
</event>
<event>
 8    1  0.1054086E+005  0.1043930E+01  0.7957747E-01            NaN
         13   -1    0    0    0    0  0.00000000000E+00  0.00000000000E+00  0.74505805969E-08  0.10566000000E+00  0.10566000000E+00 0. -1.
     999900   -1    0    0    0    0 -0.00000000000E+00 -0.00000000000E+00 -0.74505805969E-08  0.93827000000E+00  0.93827000000E+00 0.  1.
     999902    2    1    2    0    0  0.62870504294E-02  0.96285928835E-02 -0.22361472888E-01  0.10187849752E+01  0.10184746209E+01 0.  0.
     999903    2    3    3    0    0 -0.33586645850E-01  0.12235144167E+00 -0.24106878503E-01  0.13069748019E+00  0.20068674077E-01 0.  0.
         14    1    1    2    0    0 -0.62870504294E-02 -0.96285928835E-02  0.22361472888E-01  0.25145024830E-01  0.00000000000E+00 0. -1.
     999901    1    3    3    0    0  0.39873696280E-01 -0.11272284879E+00  0.17454056157E-02  0.88808749498E+00  0.88000000000E+00 0.  1.
        -11    1    4    4    0    0 -0.25973168267E-01  0.56785967685E-01 -0.11471859986E-01  0.63491072508E-01  0.51100000000E-03 0.  1.
         11    1    4    4    0    0 -0.76134775828E-02  0.65565473986E-01 -0.12635018518E-01  0.67206407684E-01  0.51100000000E-03 0. -1.
</event>
<event>
 8    1  0.1054086E+005  0.1043930E+01  0.7957747E-01            NaN
         13   -1    0    0    0    0  0.00000000000E+00  0.00000000000E+00  0.74505805969E-08  0.10566000000E+00  0.10566000000E+00 0. -1.
     999900   -1    0    0    0    0 -0.00000000000E+00 -0.00000000000E+00 -0.74505805969E-08  0.93827000000E+00  0.93827000000E+00 0. -1.
     999902    2    1    2    0    0 -0.21046066066E-01 -0.99408011283E-03 -0.94656444725E-02  0.10208318720E+01  0.10205705205E+01 0.  0.
     999903    2    3    3    0    0 -0.50307736667E-01  0.51076187541E-01  0.10787381723E+00  0.13103632952E+00  0.19852302328E-01 0.  0.
         14    1    1    2    0    0  0.21046066066E-01  0.99408011283E-03  0.94656444725E-02  0.23098128007E-01  0.00000000000E+00 0. -1.
     999901    1    3    3    0    0  0.29261670600E-01 -0.52070267654E-01 -0.11733946170E+00  0.88979554248E+00  0.88000000000E+00 0. -1.
        -11    1    4    4    0    0 -0.31099431004E-01  0.24139506302E-01  0.43602830260E-01  0.58748262110E-01  0.51100000000E-03 0. -1.
         11    1    4    4    0    0 -0.19208305663E-01  0.26936681239E-01  0.64270986967E-01  0.72288067406E-01  0.51100000000E-03 0.  1.
</event>
<event>
 8    1  0.1054086E+005  0.1043930E+01  0.7957747E-01            NaN
         13   -1    0    0    0    0  0.00000000000E+00  0.00000000000E+00  0.74505805969E-08  0.10566000000E+00  0.10566000000E+00 0.  1.
     999900   -1    0    0    0    0 -0.00000000000E+00 -0.00000000000E+00 -0.74505805969E-08  0.93827000000E+00  0.93827000000E+00 0.  1.
     999902    2    1    2    0    0  0.36745834823E-02 -0.92236561559E-02  0.24259444896E-01  0.10177174255E+01  0.10173798008E+01 0.  0.
     999903    2    3    3    0    0  0.80085156477E-01 -0.25376105480E-01 -0.92814664364E-01  0.12653516334E+00  0.18412132493E-01 0.  0.
         14    1    1    2    0    0 -0.36745834823E-02  0.92236561559E-02 -0.24259444896E-01  0.26212574526E-01  0.00000000000E+00 0. -1.
     999901    1    3    3    0    0 -0.76410572995E-01  0.16152449324E-01  0.11707410926E+00  0.89118226213E+00  0.88000000000E+00 0. -1.
        -11    1    4    4    0    0  0.49272706364E-01 -0.10929194612E-01 -0.43592045196E-01  0.66691636752E-01  0.51100000000E-03 0. -1.
         11    1    4    4    0    0  0.30812450113E-01 -0.14446910868E-01 -0.49222619168E-01  0.59843526587E-01  0.51100000000E-03 0.  1.
</event>
<event>
 8    1  0.1054086E+005  0.1043930E+01  0.7957747E-01            NaN
         13   -1    0    0    0    0  0.00000000000E+00  0.00000000000E+00  0.74505805969E-08  0.10566000000E+00  0.10566000000E+00 0. -1.
     999900   -1    0    0    0    0 -0.00000000000E+00 -0.00000000000E+00 -0.74505805969E-08  0.93827000000E+00  0.93827000000E+00 0. -1.
     999902    2    1    2    0    0 -0.12887162378E-01  0.20035113895E-01 -0.59184927541E-02  0.10193838537E+01  0.10190882826E+01 0.  0.
     999903    2    3    3    0    0  0.12500755957E+00 -0.43173205237E-02  0.18232728658E-01  0.12798535867E+00  0.20057179113E-01 0.  0.
         14    1    1    2    0    0  0.12887162378E-01 -0.20035113895E-01  0.59184927541E-02  0.24546146326E-01  0.00000000000E+00 0. -1.
     999901    1    3    3    0    0 -0.13789472194E+00  0.24352434419E-01 -0.24151221412E-01  0.89139849501E+00  0.88000000000E+00 0. -1.
        -11    1    4    4    0    0  0.18644715531E-01  0.60134449136E-02  0.12533391819E-03  0.19597544911E-01  0.51100000000E-03 0. -1.
         11    1    4    4    0    0  0.10636284404E+00 -0.10330765437E-01  0.18107394740E-01  0.10838781376E+00  0.51100000000E-03 0.  1.
</event>
<event>
 8    1  0.1054086E+005  0.1043930E+01  0.7957747E-01            NaN
         13   -1    0    0    0    0  0.00000000000E+00  0.00000000000E+00  0.74505805969E-08  0.10566000000E+00  0.10566000000E+00 0. -1.
     999900   -1    0    0    0    0 -0.00000000000E+00 -0.00000000000E+00 -0.74505805969E-08  0.93827000000E+00  0.93827000000E+00 0. -1.
     999902    2    1    2    0    0  0.16132819649E-01  0.10417370752E-01  0.12204692257E-01  0.10211760114E+01  0.10209224761E+01 0.  0.
     999903    2    3    3    0    0 -0.25647656266E-01  0.31798092431E-01  0.12474743309E+00  0.13276810289E+00  0.19912963849E-01 0.  0.
         14    1    1    2    0    0 -0.16132819649E-01 -0.10417370752E-01 -0.12204692257E-01  0.22753988580E-01  0.00000000000E+00 0. -1.
     999901    1    3    3    0    0  0.41780475915E-01 -0.21380721679E-01 -0.11254274083E+00  0.88840790853E+00  0.88000000000E+00 0. -1.
        -11    1    4    4    0    0 -0.57429817126E-02  0.20919422665E-01  0.75287316118E-01  0.78352059148E-01  0.51100000000E-03 0. -1.
         11    1    4    4    0    0 -0.19904674554E-01  0.10878669766E-01  0.49460116967E-01  0.54416043741E-01  0.51100000000E-03 0.  1.
</event>
<event>
 8    1  0.1054086E+005  0.1043930E+01  0.7957747E-01            NaN
         13   -1    0    0    0    0  0.00000000000E+00  0.00000000000E+00  0.74505805969E-08  0.10566000000E+00  0.10566000000E+00 0. -1.
     999900   -1    0    0    0    0 -0.00000000000E+00 -0.00000000000E+00 -0.74505805969E-08  0.93827000000E+00  0.93827000000E+00 0. -1.
     999902    2    1    2    0    0  0.20078192542E-01 -0.43067277724E-02  0.11362118981E-01  0.10204613088E+01  0.10201914052E+01 0.  0.
     999903    2    3    3    0    0 -0.37952077847E-02  0.12712772857E+00  0.70469803867E-02  0.13036941691E+00  0.27760798931E-01 0.  0.
         14    1    1    2    0    0 -0.20078192542E-01  0.43067277724E-02 -0.11362118981E-01  0.23468691220E-01  0.00000000000E+00 0.  1.
     999901    1    3    3    0    0  0.23873400326E-01 -0.13143445635E+00  0.43151385941E-02  0.89009189187E+00  0.88000000000E+00 0.  1.
        -11    1    4    4    0    0 -0.67046594641E-02  0.91081125395E-01 -0.69384016360E-02  0.91592174338E-01  0.51100000000E-03 0.  1.
         11    1    4    4    0    0  0.29094516794E-02  0.36046603180E-01  0.13985382023E-01  0.38777242568E-01  0.51100000000E-03 0. -1.
</event>
<event>
 8    1  0.1054086E+005  0.1043930E+01  0.7957747E-01            NaN
         13   -1    0    0    0    0  0.00000000000E+00  0.00000000000E+00  0.74505805969E-08  0.10566000000E+00  0.10566000000E+00 0. -1.
     999900   -1    0    0    0    0 -0.00000000000E+00 -0.00000000000E+00 -0.74505805969E-08  0.93827000000E+00  0.93827000000E+00 0. -1.
     999902    2    1    2    0    0 -0.39173421303E-02 -0.18922975745E-01 -0.13159987463E-01  0.10205503112E+01  0.10202824745E+01 0.  0.
     999903    2    3    3    0    0  0.10569118583E+00  0.61631209841E-01  0.35434738912E-01  0.12877430024E+00  0.18925297645E-01 0.  0.
         14    1    1    2    0    0  0.39173421303E-02  0.18922975745E-01  0.13159987463E-01  0.23379688844E-01  0.00000000000E+00 0.  1.
     999901    1    3    3    0    0 -0.10960852796E+00 -0.80554185587E-01 -0.48594726374E-01  0.89177601092E+00  0.88000000000E+00 0. -1.
        -11    1    4    4    0    0  0.35741858497E-01  0.31468286342E-01  0.14018295108E-01  0.49643803368E-01  0.51100000000E-03 0.  1.
         11    1    4    4    0    0  0.69949327335E-01  0.30162923499E-01  0.21416443804E-01  0.79130496869E-01  0.51100000000E-03 0. -1.
</event>
<event>
 8    1  0.1054086E+005  0.1043930E+01  0.7957747E-01            NaN
         13   -1    0    0    0    0  0.00000000000E+00  0.00000000000E+00  0.74505805969E-08  0.10566000000E+00  0.10566000000E+00 0. -1.
     999900   -1    0    0    0    0 -0.00000000000E+00 -0.00000000000E+00 -0.74505805969E-08  0.93827000000E+00  0.93827000000E+00 0.  1.
     999902    2    1    2    0    0  0.12909546042E-01  0.67227091050E-02 -0.25890686992E-01  0.10142285039E+01  0.10137935092E+01 0.  0.
     999903    2    3    3    0    0  0.83256100753E-01  0.88190464401E-01 -0.34184948235E-01  0.12763139830E+00  0.20298443858E-01 0.  0.
         14    1    1    2    0    0 -0.12909546042E-01 -0.67227091050E-02  0.25890686992E-01  0.29701496084E-01  0.00000000000E+00 0. -1.
     999901    1    3    3    0    0 -0.70346554710E-01 -0.81467755296E-01  0.82942612428E-02  0.88659710561E+00  0.88000000000E+00 0. -1.
        -11    1    4    4    0    0  0.34341530161E-01  0.51106596833E-01 -0.17854292854E-01  0.64111323711E-01  0.51100000000E-03 0.  1.
         11    1    4    4    0    0  0.48914570592E-01  0.37083867568E-01 -0.16330655380E-01  0.63520074592E-01  0.51100000000E-03 0. -1.
</event>
<event>
 8    1  0.1054086E+005  0.1043930E+01  0.7957747E-01            NaN
         13   -1    0    0    0    0  0.00000000000E+00  0.00000000000E+00  0.74505805969E-08  0.10566000000E+00  0.10566000000E+00 0.  1.
     999900   -1    0    0    0    0 -0.00000000000E+00 -0.00000000000E+00 -0.74505805969E-08  0.93827000000E+00  0.93827000000E+00 0.  1.
     999902    2    1    2    0    0  0.11212362835E-01  0.41411426940E-02  0.18675866717E-01  0.10217567246E+01  0.10215161037E+01 0.  0.
     999903    2    3    3    0    0 -0.10973847736E+00 -0.75009890894E-02  0.69993349588E-01  0.13192633122E+00  0.20166547365E-01 0.  0.
         14    1    1    2    0    0 -0.11212362835E-01 -0.41411426940E-02 -0.18675866717E-01  0.22173275373E-01  0.00000000000E+00 0. -1.
     999901    1    3    3    0    0  0.12095084020E+00  0.11642131783E-01 -0.51317482871E-01  0.88983039340E+00  0.88000000000E+00 0.  1.
        -11    1    4    4    0    0 -0.79147697059E-01 -0.32938020687E-02  0.60303407608E-01  0.99558872894E-01  0.51100000000E-03 0.  1.
         11    1    4    4    0    0 -0.30590780302E-01 -0.42071870207E-02  0.96899419805E-02  0.32367458329E-01  0.51100000000E-03 0. -1.
</event>
<event>
 8    1  0.1054086E+005  0.1043930E+01  0.7957747E-01            NaN
         13   -1    0    0    0    0  0.00000000000E+00  0.00000000000E+00  0.74505805969E-08  0.10566000000E+00  0.10566000000E+00 0.  1.
     999900   -1    0    0    0    0 -0.00000000000E+00 -0.00000000000E+00 -0.74505805969E-08  0.93827000000E+00  0.93827000000E+00 0. -1.
     999902    2    1    2    0    0 -0.19839005448E-01  0.58076204167E-02 -0.96900387774E-02  0.10210999443E+01  0.10208446918E+01 0.  0.
     999903    2    3    3    0    0  0.11791797557E+00  0.45290487400E-01  0.17598183406E-01  0.12909067883E+00  0.19970730794E-01 0.  0.
         14    1    1    2    0    0  0.19839005448E-01 -0.58076204167E-02  0.96900387774E-02  0.22830055707E-01  0.00000000000E+00 0. -1.
     999901    1    3    3    0    0 -0.13775698102E+00 -0.39482866984E-01 -0.27288222183E-01  0.89200926547E+00  0.88000000000E+00 0. -1.
        -11    1    4    4    0    0  0.94531169435E-01  0.36750812738E-01  0.22048232968E-01  0.10379378560E+00  0.51100000000E-03 0.  1.
         11    1    4    4    0    0  0.23386806140E-01  0.85396746620E-02 -0.44500495620E-02  0.25296893225E-01  0.51100000000E-03 0. -1.
</event>
<event>
 8    1  0.1054086E+005  0.1043930E+01  0.7957747E-01            NaN
         13   -1    0    0    0    0  0.00000000000E+00  0.00000000000E+00  0.74505805969E-08  0.10566000000E+00  0.10566000000E+00 0. -1.
     999900   -1    0    0    0    0 -0.00000000000E+00 -0.00000000000E+00 -0.74505805969E-08  0.93827000000E+00  0.93827000000E+00 0.  1.
     999902    2    1    2    0    0  0.19185871375E-01 -0.28899025149E-02  0.12993519224E-01  0.10205787530E+01  0.10203115751E+01 0.  0.
     999903    2    3    3    0    0  0.67427981333E-01  0.12412654688E-01 -0.10927299218E+00  0.13068518109E+00  0.20914661678E-01 0.  0.
         14    1    1    2    0    0 -0.19185871375E-01  0.28899025149E-02 -0.12993519224E-01  0.23351247050E-01  0.00000000000E+00 0.  1.
     999901    1    3    3    0    0 -0.48242109958E-01 -0.15302557203E-01  0.12226651140E+00  0.88989357186E+00  0.88000000000E+00 0. -1.
        -11    1    4    4    0    0  0.56944531260E-01  0.44478309265E-02 -0.77390231808E-01  0.96187171393E-01  0.51100000000E-03 0. -1.
         11    1    4    4    0    0  0.10483450073E-01  0.79648237617E-02 -0.31882760372E-01  0.34498009695E-01  0.51100000000E-03 0.  1.
</event>
<event>
 8    1  0.1054086E+005  0.1043930E+01  0.7957747E-01            NaN
         13   -1    0    0    0    0  0.00000000000E+00  0.00000000000E+00  0.74505805969E-08  0.10566000000E+00  0.10566000000E+00 0. -1.
     999900   -1    0    0    0    0 -0.00000000000E+00 -0.00000000000E+00 -0.74505805969E-08  0.93827000000E+00  0.93827000000E+00 0.  1.
     999902    2    1    2    0    0  0.20763949895E-01  0.58448716049E-02  0.97907608339E-02  0.10202411179E+01  0.10199660658E+01 0.  0.
     999903    2    3    3    0    0  0.68633968515E-01 -0.10804380155E+00 -0.19438042924E-01  0.13113117442E+00  0.20819767157E-01 0.  0.
         14    1    1    2    0    0 -0.20763949895E-01 -0.58448716049E-02 -0.97907608339E-02  0.23688882139E-01  0.00000000000E+00 0.  1.
     999901    1    3    3    0    0 -0.47870018621E-01  0.11388867316E+00  0.29228803758E-01  0.88910994344E+00  0.88000000000E+00 0. -1.
        -11    1    4    4    0    0  0.52359902262E-01 -0.66400505005E-01 -0.17633082575E-01  0.86381555624E-01  0.51100000000E-03 0. -1.
         11    1    4    4    0    0  0.16274066253E-01 -0.41643296546E-01 -0.18049603490E-02  0.44749618797E-01  0.51100000000E-03 0.  1.
</event>
<event>
 8    1  0.1054086E+005  0.1043930E+01  0.7957747E-01            NaN
         13   -1    0    0    0    0  0.00000000000E+00  0.00000000000E+00  0.74505805969E-08  0.10566000000E+00  0.10566000000E+00 0. -1.
     999900   -1    0    0    0    0 -0.00000000000E+00 -0.00000000000E+00 -0.74505805969E-08  0.93827000000E+00  0.93827000000E+00 0. -1.
     999902    2    1    2    0    0 -0.15030882971E-01 -0.16908717735E-01 -0.69070103730E-02  0.10202754239E+01  0.10200011773E+01 0.  0.
     999903    2    3    3    0    0  0.13850288317E-01  0.79321606338E-01 -0.99622995063E-01  0.12971905222E+00  0.20458339226E-01 0.  0.
         14    1    1    2    0    0  0.15030882971E-01  0.16908717735E-01  0.69070103730E-02  0.23654576103E-01  0.00000000000E+00 0. -1.
     999901    1    3    3    0    0 -0.28881171288E-01 -0.96230324072E-01  0.92715984690E-01  0.89055637168E+00  0.88000000000E+00 0.  1.
        -11    1    4    4    0    0  0.40759341441E-02  0.30878064376E-01 -0.23759399466E-01  0.39177012172E-01  0.51100000000E-03 0.  1.
         11    1    4    4    0    0  0.97743541730E-02  0.48443541962E-01 -0.75863595597E-01  0.90542040044E-01  0.51100000000E-03 0. -1.
</event>
<event>
 8    1  0.1054086E+005  0.1043930E+01  0.7957747E-01            NaN
         13   -1    0    0    0    0  0.00000000000E+00  0.00000000000E+00  0.74505805969E-08  0.10566000000E+00  0.10566000000E+00 0.  1.
     999900   -1    0    0    0    0 -0.00000000000E+00 -0.00000000000E+00 -0.74505805969E-08  0.93827000000E+00  0.93827000000E+00 0. -1.
     999902    2    1    2    0    0 -0.90121849442E-02 -0.16665654609E-01  0.14164440374E-01  0.10202742419E+01  0.10199999675E+01 0.  0.
     999903    2    3    3    0    0  0.10557719271E+00  0.44839170413E-01 -0.53695784437E-01  0.12813155202E+00  0.19425821237E-01 0.  0.
         14    1    1    2    0    0  0.90121849442E-02  0.16665654609E-01 -0.14164440374E-01  0.23655758117E-01  0.00000000000E+00 0.  1.
     999901    1    3    3    0    0 -0.11458937766E+00 -0.61504825021E-01  0.67860224811E-01  0.89214268987E+00  0.88000000000E+00 0.  1.
        -11    1    4    4    0    0  0.75176417735E-01  0.23574834649E-01 -0.31194253317E-01  0.84738475164E-01  0.51100000000E-03 0. -1.
         11    1    4    4    0    0  0.30400774979E-01  0.21264335764E-01 -0.22501531120E-01  0.43393076851E-01  0.51100000000E-03 0.  1.
</event>
<event>
 8    1  0.1054086E+005  0.1043930E+01  0.7957747E-01            NaN
         13   -1    0    0    0    0  0.00000000000E+00  0.00000000000E+00  0.74505805969E-08  0.10566000000E+00  0.10566000000E+00 0. -1.
     999900   -1    0    0    0    0 -0.00000000000E+00 -0.00000000000E+00 -0.74505805969E-08  0.93827000000E+00  0.93827000000E+00 0.  1.
     999902    2    1    2    0    0  0.54173269552E-02  0.11986281778E-01  0.19268386212E-01  0.10205999959E+01  0.10203333096E+01 0.  0.
     999903    2    3    3    0    0  0.18770615628E-01  0.44561176499E-01  0.12332917938E+00  0.13376963857E+00  0.18606322985E-01 0.  0.
         14    1    1    2    0    0 -0.54173269552E-02 -0.11986281778E-01 -0.19268386212E-01  0.23330004060E-01  0.00000000000E+00 0.  1.
     999901    1    3    3    0    0 -0.13353288673E-01 -0.32574894720E-01 -0.10406079316E+00  0.88683035737E+00  0.88000000000E+00 0.  1.
        -11    1    4    4    0    0  0.73323255846E-03  0.67471495179E-02  0.39176923118E-01  0.39763728228E-01  0.51100000000E-03 0.  1.
         11    1    4    4    0    0  0.18037383070E-01  0.37814026981E-01  0.84152256257E-01  0.94005910339E-01  0.51100000000E-03 0. -1.
</event>
<event>
 8    1  0.1054086E+005  0.1043930E+01  0.7957747E-01            NaN
         13   -1    0    0    0    0  0.00000000000E+00  0.00000000000E+00  0.74505805969E-08  0.10566000000E+00  0.10566000000E+00 0.  1.
     999900   -1    0    0    0    0 -0.00000000000E+00 -0.00000000000E+00 -0.74505805969E-08  0.93827000000E+00  0.93827000000E+00 0. -1.
     999902    2    1    2    0    0 -0.13726543441E-01  0.18164623910E-01 -0.45814675890E-02  0.10207058444E+01  0.10204416002E+01 0.  0.
     999903    2    3    3    0    0 -0.45030301023E-01  0.26806586158E-01  0.11896358006E+00  0.13148259488E+00  0.19723546918E-01 0.  0.
         14    1    1    2    0    0  0.13726543441E-01 -0.18164623910E-01  0.45814675890E-02  0.23224155569E-01  0.00000000000E+00 0.  1.
     999901    1    3    3    0    0  0.31303757582E-01 -0.86419622480E-02 -0.12354504765E+00  0.88922324955E+00  0.88000000000E+00 0. -1.
        -11    1    4    4    0    0 -0.31315811130E-01  0.23976216457E-01  0.67839914681E-01  0.78473270145E-01  0.51100000000E-03 0.  1.
         11    1    4    4    0    0 -0.13714489893E-01  0.28303697005E-02  0.51123665378E-01  0.53009324731E-01  0.51100000000E-03 0. -1.
</event>
<event>
 8    1  0.1054086E+005  0.1043930E+01  0.7957747E-01            NaN
         13   -1    0    0    0    0  0.00000000000E+00  0.00000000000E+00  0.74505805969E-08  0.10566000000E+00  0.10566000000E+00 0.  1.
     999900   -1    0    0    0    0 -0.00000000000E+00 -0.00000000000E+00 -0.74505805969E-08  0.93827000000E+00  0.93827000000E+00 0. -1.
     999902    2    1    2    0    0  0.22088805813E-01 -0.62708369232E-02  0.49776005065E-02  0.10204349953E+01  0.10201644791E+01 0.  0.
     999903    2    3    3    0    0 -0.28081322018E-01 -0.12214406707E+00 -0.23047225749E-01  0.13098064682E+00  0.30282362169E-01 0.  0.
         14    1    1    2    0    0 -0.22088805813E-01  0.62708369232E-02 -0.49776005065E-02  0.23495004677E-01  0.00000000000E+00 0. -1.
     999901    1    3    3    0    0  0.50170127831E-01  0.11587323015E+00  0.28024826256E-01  0.88945434851E+00  0.88000000000E+00 0.  1.
        -11    1    4    4    0    0 -0.16429662999E-01 -0.43873312247E-01  0.47822568796E-02  0.47094930254E-01  0.51100000000E-03 0. -1.
         11    1    4    4    0    0 -0.11651659019E-01 -0.78270754824E-01 -0.27829482629E-01  0.83885716561E-01  0.51100000000E-03 0.  1.
</event>
<event>
 7    1  0.1713235E+005  0.1043930E+01  0.7957747E-01            NaN
         13   -1    0    0    0    0  0.00000000000E+00  0.00000000000E+00  0.74505805969E-08  0.10566000000E+00  0.10566000000E+00 0.  1.
     999900   -1    0    0    0    0 -0.00000000000E+00 -0.00000000000E+00 -0.74505805969E-08  0.93827000000E+00  0.93827000000E+00 0.  1.
     999903    2    1    2    0    0 -0.72307856234E-01  0.68696393866E-01 -0.19565572380E-01  0.10356564989E+00  0.19884959431E-01 0.  0.
         14    1    1    2    0    0  0.39054685476E-03  0.48604404706E-01 -0.79290615353E-02  0.49248458864E-01  0.00000000000E+00 0.  1.
     999901    1    1    2    0    0  0.71917309379E-01 -0.11730079857E+00  0.27494633916E-01  0.89111589124E+00  0.88000000000E+00 0.  1.
        -11    1    3    3    0    0 -0.29270026199E-01  0.18954238192E-01  0.22140528755E-03  0.34875603513E-01  0.51100000000E-03 0.  1.
         11    1    3    3    0    0 -0.43037830035E-01  0.49742155674E-01 -0.19786977668E-01  0.68690046378E-01  0.51100000000E-03 0. -1.
</event>
<event>
 8    1  0.1054086E+005  0.1043930E+01  0.7957747E-01            NaN
         13   -1    0    0    0    0  0.00000000000E+00  0.00000000000E+00  0.74505805969E-08  0.10566000000E+00  0.10566000000E+00 0. -1.
     999900   -1    0    0    0    0 -0.00000000000E+00 -0.00000000000E+00 -0.74505805969E-08  0.93827000000E+00  0.93827000000E+00 0. -1.
     999902    2    1    2    0    0 -0.27399442103E-02  0.43618288661E-02 -0.23442352973E-01  0.10199284009E+01  0.10196459514E+01 0.  0.
     999903    2    3    3    0    0  0.11619467573E+00  0.47777205903E-01  0.24704635079E-01  0.12956416577E+00  0.19816406954E-01 0.  0.
         14    1    1    2    0    0  0.27399442103E-02 -0.43618288661E-02  0.23442352973E-01  0.24001599077E-01  0.00000000000E+00 0. -1.
     999901    1    3    3    0    0 -0.11893461994E+00 -0.43415377037E-01 -0.48146988051E-01  0.89036423515E+00  0.88000000000E+00 0. -1.
        -11    1    4    4    0    0  0.30890131037E-01  0.22414217521E-01  0.85110678803E-02  0.39106223801E-01  0.51100000000E-03 0.  1.
         11    1    4    4    0    0  0.85304544695E-01  0.25362988382E-01  0.16193567198E-01  0.90457941967E-01  0.51100000000E-03 0. -1.
</event>
<event>
 8    1  0.1054086E+005  0.1043930E+01  0.7957747E-01            NaN
         13   -1    0    0    0    0  0.00000000000E+00  0.00000000000E+00  0.74505805969E-08  0.10566000000E+00  0.10566000000E+00 0.  1.
     999900   -1    0    0    0    0 -0.00000000000E+00 -0.00000000000E+00 -0.74505805969E-08  0.93827000000E+00  0.93827000000E+00 0. -1.
     999902    2    1    2    0    0  0.78005139105E-02  0.21872444935E-01  0.60533299976E-02  0.10199321945E+01  0.10196498353E+01 0.  0.
     999903    2    3    3    0    0  0.31045605781E-01 -0.12167075340E+00  0.14887938896E-01  0.12795515758E+00  0.19577276501E-01 0.  0.
         14    1    1    2    0    0 -0.78005139105E-02 -0.21872444935E-01 -0.60533299976E-02  0.23997805499E-01  0.00000000000E+00 0. -1.
     999901    1    3    3    0    0 -0.23245091871E-01  0.14354319833E+00 -0.88346088989E-02  0.89197703692E+00  0.88000000000E+00 0.  1.
        -11    1    4    4    0    0  0.15010823665E-01 -0.25907925700E-01  0.49084037645E-02  0.30346317564E-01  0.51100000000E-03 0.  1.
         11    1    4    4    0    0  0.16034782116E-01 -0.95762827698E-01  0.99795351320E-02  0.97608840013E-01  0.51100000000E-03 0. -1.
</event>
<event>
 8    1  0.1054086E+005  0.1043930E+01  0.7957747E-01            NaN
         13   -1    0    0    0    0  0.00000000000E+00  0.00000000000E+00  0.74505805969E-08  0.10566000000E+00  0.10566000000E+00 0.  1.
     999900   -1    0    0    0    0 -0.00000000000E+00 -0.00000000000E+00 -0.74505805969E-08  0.93827000000E+00  0.93827000000E+00 0. -1.
     999902    2    1    2    0    0 -0.18645813871E-01  0.71093704290E-02  0.13878586407E-01  0.10196231145E+01  0.10193333463E+01 0.  0.
     999903    2    3    3    0    0 -0.45080181562E-01  0.11552732868E+00  0.40864952828E-01  0.13216523186E+00  0.20467479094E-01 0.  0.
         14    1    1    2    0    0  0.18645813871E-01 -0.71093704290E-02 -0.13878586407E-01  0.24306885516E-01  0.00000000000E+00 0. -1.
     999901    1    3    3    0    0  0.26434367691E-01 -0.10841795825E+00 -0.26986366421E-01  0.88745788263E+00  0.88000000000E+00 0. -1.
        -11    1    4    4    0    0 -0.71116616628E-02  0.45019930064E-01  0.16108805307E-01  0.48343816192E-01  0.51100000000E-03 0.  1.
         11    1    4    4    0    0 -0.37968519900E-01  0.70507398615E-01  0.24756147521E-01  0.83821415664E-01  0.51100000000E-03 0. -1.
</event>
<event>
 8    1  0.1054086E+005  0.1043930E+01  0.7957747E-01            NaN
         13   -1    0    0    0    0  0.00000000000E+00  0.00000000000E+00  0.74505805969E-08  0.10566000000E+00  0.10566000000E+00 0.  1.
     999900   -1    0    0    0    0 -0.00000000000E+00 -0.00000000000E+00 -0.74505805969E-08  0.93827000000E+00  0.93827000000E+00 0.  1.
     999902    2    1    2    0    0 -0.12761473413E-01 -0.18469749223E-01 -0.68347016347E-02  0.10204630022E+01  0.10201931380E+01 0.  0.
     999903    2    3    3    0    0 -0.25762203303E-01  0.64399972102E-01 -0.10891115299E+00  0.13060008487E+00  0.19588144285E-01 0.  0.
         14    1    1    2    0    0  0.12761473413E-01  0.18469749223E-01  0.68347016347E-02  0.23466997815E-01  0.00000000000E+00 0.  1.
     999901    1    3    3    0    0  0.13000729890E-01 -0.82869721325E-01  0.10207645136E+00  0.88986291731E+00  0.88000000000E+00 0. -1.
        -11    1    4    4    0    0 -0.26174340602E-01  0.52082585427E-01 -0.78449113094E-01  0.97735440230E-01  0.51100000000E-03 0.  1.
         11    1    4    4    0    0  0.41213729876E-03  0.12317386675E-01 -0.30462039896E-01  0.32864644640E-01  0.51100000000E-03 0. -1.
</event>
<event>
 8    1  0.1054086E+005  0.1043930E+01  0.7957747E-01            NaN
         13   -1    0    0    0    0  0.00000000000E+00  0.00000000000E+00  0.74505805969E-08  0.10566000000E+00  0.10566000000E+00 0.  1.
     999900   -1    0    0    0    0 -0.00000000000E+00 -0.00000000000E+00 -0.74505805969E-08  0.93827000000E+00  0.93827000000E+00 0.  1.
     999902    2    1    2    0    0  0.37628521183E-02  0.58853253388E-02 -0.23393069177E-01  0.10195162376E+01  0.10192238846E+01 0.  0.
     999903    2    3    3    0    0  0.93304310337E-01  0.69302854485E-01  0.53297109653E-01  0.12939217921E+00  0.19828620131E-01 0.  0.
         14    1    1    2    0    0 -0.37628521183E-02 -0.58853253388E-02  0.23393069177E-01  0.24413762429E-01  0.00000000000E+00 0.  1.
     999901    1    3    3    0    0 -0.89541458219E-01 -0.63417529146E-01 -0.76690178830E-01  0.89012405836E+00  0.88000000000E+00 0.  1.
        -11    1    4    4    0    0  0.36064895225E-01  0.38983887674E-01  0.22820201522E-01  0.57805215027E-01  0.51100000000E-03 0. -1.
         11    1    4    4    0    0  0.57239415113E-01  0.30318966810E-01  0.30476908130E-01  0.71586964184E-01  0.51100000000E-03 0.  1.
</event>
<event>
 8    1  0.1054086E+005  0.1043930E+01  0.7957747E-01            NaN
         13   -1    0    0    0    0  0.00000000000E+00  0.00000000000E+00  0.74505805969E-08  0.10566000000E+00  0.10566000000E+00 0.  1.
     999900   -1    0    0    0    0 -0.00000000000E+00 -0.00000000000E+00 -0.74505805969E-08  0.93827000000E+00  0.93827000000E+00 0. -1.
     999902    2    1    2    0    0 -0.12065979092E-01 -0.22924986132E-01  0.47622634092E-02  0.10175894990E+01  0.10172485274E+01 0.  0.
     999903    2    3    3    0    0  0.30053904001E-01  0.35118955654E-02 -0.12183589712E+00  0.12714012507E+00  0.20125978759E-01 0.  0.
         14    1    1    2    0    0  0.12065979092E-01  0.22924986132E-01 -0.47622634092E-02  0.26340501008E-01  0.00000000000E+00 0. -1.
     999901    1    3    3    0    0 -0.42119883092E-01 -0.26436881698E-01  0.12659816053E+00  0.89044937392E+00  0.88000000000E+00 0.  1.
        -11    1    4    4    0    0  0.91641347924E-04 -0.29166833438E-02 -0.23364063833E-02  0.37729770278E-02  0.51100000000E-03 0. -1.
         11    1    4    4    0    0  0.29962262653E-01  0.64285789092E-02 -0.11949949073E+00  0.12336714804E+00  0.51100000000E-03 0.  1.
</event>
<event>
 8    1  0.1054086E+005  0.1043930E+01  0.7957747E-01            NaN
         13   -1    0    0    0    0  0.00000000000E+00  0.00000000000E+00  0.74505805969E-08  0.10566000000E+00  0.10566000000E+00 0. -1.
     999900   -1    0    0    0    0 -0.00000000000E+00 -0.00000000000E+00 -0.74505805969E-08  0.93827000000E+00  0.93827000000E+00 0.  1.
     999902    2    1    2    0    0  0.22924364929E-01  0.68583621534E-02 -0.75813125337E-02  0.10188294036E+01  0.10185201587E+01 0.  0.
     999903    2    3    3    0    0 -0.13653846953E-01  0.11694904852E+00 -0.50364142813E-01  0.13018532674E+00  0.23412922291E-01 0.  0.
         14    1    1    2    0    0 -0.22924364929E-01 -0.68583621534E-02  0.75813125337E-02  0.25100596378E-01  0.00000000000E+00 0. -1.
     999901    1    3    3    0    0  0.36578211881E-01 -0.11009068637E+00  0.42782830279E-01  0.88864407688E+00  0.88000000000E+00 0. -1.
        -11    1    4    4    0    0 -0.52008367245E-02  0.49860877491E-01 -0.34113560092E-01  0.60639524322E-01  0.51100000000E-03 0.  1.
         11    1    4    4    0    0 -0.84530102280E-02  0.67088171031E-01 -0.16250582721E-01  0.69545802419E-01  0.51100000000E-03 0. -1.
</event>
<event>
 8    1  0.1054086E+005  0.1043930E+01  0.7957747E-01            NaN
         13   -1    0    0    0    0  0.00000000000E+00  0.00000000000E+00  0.74505805969E-08  0.10566000000E+00  0.10566000000E+00 0. -1.
     999900   -1    0    0    0    0 -0.00000000000E+00 -0.00000000000E+00 -0.74505805969E-08  0.93827000000E+00  0.93827000000E+00 0. -1.
     999902    2    1    2    0    0 -0.52158945945E-02  0.18033585389E-01 -0.14015689402E-01  0.10205023388E+01  0.10202333891E+01 0.  0.
     999903    2    3    3    0    0 -0.95475428054E-02  0.13065134139E+00 -0.14541646925E-01  0.13331476071E+00  0.20010930680E-01 0.  0.
         14    1    1    2    0    0  0.52158945945E-02 -0.18033585389E-01  0.14015689402E-01  0.23427661168E-01  0.00000000000E+00 0. -1.
     999901    1    3    3    0    0  0.43316482108E-02 -0.11261775600E+00  0.52595752284E-03  0.88718757812E+00  0.88000000000E+00 0. -1.
        -11    1    4    4    0    0 -0.25027663463E-03  0.82870028392E-01 -0.16899669536E-01  0.84577563192E-01  0.51100000000E-03 0. -1.
         11    1    4    4    0    0 -0.92972661708E-02  0.47781312999E-01  0.23580226112E-02  0.48737197517E-01  0.51100000000E-03 0.  1.
</event>
<event>
 8    1  0.1054086E+005  0.1043930E+01  0.7957747E-01            NaN
         13   -1    0    0    0    0  0.00000000000E+00  0.00000000000E+00  0.74505805969E-08  0.10566000000E+00  0.10566000000E+00 0. -1.
     999900   -1    0    0    0    0 -0.00000000000E+00 -0.00000000000E+00 -0.74505805969E-08  0.93827000000E+00  0.93827000000E+00 0. -1.
     999902    2    1    2    0    0  0.20469885209E-01  0.13957731994E-01  0.33134872027E-02  0.10189337267E+01  0.10186270788E+01 0.  0.
     999903    2    3    3    0    0  0.89862939411E-01  0.30772271928E-01 -0.88327383208E-01  0.13129856859E+00  0.20379079749E-01 0.  0.
         14    1    1    2    0    0 -0.20469885209E-01 -0.13957731994E-01 -0.33134872027E-02  0.24996273329E-01  0.00000000000E+00 0. -1.
     999901    1    3    3    0    0 -0.69393054202E-01 -0.16814539934E-01  0.91640870410E-01  0.88763515808E+00  0.88000000000E+00 0.  1.
        -11    1    4    4    0    0  0.47248402226E-01  0.16671743086E-01 -0.60202509865E-01  0.78325997252E-01  0.51100000000E-03 0. -1.
         11    1    4    4    0    0  0.42614537185E-01  0.14100528843E-01 -0.28124873343E-01  0.52972571343E-01  0.51100000000E-03 0.  1.
</event>
<event>
 8    1  0.1054086E+005  0.1043930E+01  0.7957747E-01            NaN
         13   -1    0    0    0    0  0.00000000000E+00  0.00000000000E+00  0.74505805969E-08  0.10566000000E+00  0.10566000000E+00 0.  1.
     999900   -1    0    0    0    0 -0.00000000000E+00 -0.00000000000E+00 -0.74505805969E-08  0.93827000000E+00  0.93827000000E+00 0. -1.
     999902    2    1    2    0    0  0.44933834098E-03  0.21039952371E-01 -0.93428983688E-02  0.10209045521E+01  0.10206448615E+01 0.  0.
     999903    2    3    3    0    0  0.12658121720E+00 -0.13236989260E-01 -0.25668102008E-01  0.13110082551E+00  0.18181104372E-01 0.  0.
         14    1    1    2    0    0 -0.44933834098E-03 -0.21039952371E-01  0.93428983688E-02  0.23025447892E-01  0.00000000000E+00 0.  1.
     999901    1    3    3    0    0 -0.12613187886E+00  0.34276941631E-01  0.16325203639E-01  0.88980372660E+00  0.88000000000E+00 0.  1.
        -11    1    4    4    0    0  0.10165548888E-01  0.38840982035E-02 -0.21143505363E-02  0.11097576413E-01  0.51100000000E-03 0.  1.
         11    1    4    4    0    0  0.11641566831E+00 -0.17121087464E-01 -0.23553751471E-01  0.12000324910E+00  0.51100000000E-03 0. -1.
</event>
<event>
 8    1  0.1054086E+005  0.1043930E+01  0.7957747E-01            NaN
         13   -1    0    0    0    0  0.00000000000E+00  0.00000000000E+00  0.74505805969E-08  0.10566000000E+00  0.10566000000E+00 0.  1.
     999900   -1    0    0    0    0 -0.00000000000E+00 -0.00000000000E+00 -0.74505805969E-08  0.93827000000E+00  0.93827000000E+00 0.  1.
     999902    2    1    2    0    0 -0.11514339831E-01  0.70998962049E-02  0.18080121218E-01  0.10213494922E+01  0.10210998511E+01 0.  0.
     999903    2    3    3    0    0 -0.27896075483E-01  0.99385555644E-02  0.12933312474E+00  0.13418905012E+00  0.20066840918E-01 0.  0.
         14    1    1    2    0    0  0.11514339831E-01 -0.70998962049E-02 -0.18080121218E-01  0.22580507769E-01  0.00000000000E+00 0. -1.
     999901    1    3    3    0    0  0.16381735652E-01 -0.28386593596E-02 -0.11125300352E+00  0.88716044211E+00  0.88000000000E+00 0.  1.
        -11    1    4    4    0    0 -0.13207535380E-01  0.14946041051E-01  0.64096046371E-01  0.67129631425E-01  0.51100000000E-03 0.  1.
         11    1    4    4    0    0 -0.14688540103E-01 -0.50074854863E-02  0.65237078366E-01  0.67059418697E-01  0.51100000000E-03 0. -1.
</event>
<event>
 8    1  0.1054086E+005  0.1043930E+01  0.7957747E-01            NaN
         13   -1    0    0    0    0  0.00000000000E+00  0.00000000000E+00  0.74505805969E-08  0.10566000000E+00  0.10566000000E+00 0. -1.
     999900   -1    0    0    0    0 -0.00000000000E+00 -0.00000000000E+00 -0.74505805969E-08  0.93827000000E+00  0.93827000000E+00 0. -1.
     999902    2    1    2    0    0 -0.15132577752E-01 -0.59024978250E-02  0.16250118898E-01  0.10209539091E+01  0.10206953432E+01 0.  0.
     999903    2    3    3    0    0 -0.43327298925E-01  0.12023925314E+00 -0.19349225068E-01  0.13079999152E+00  0.19987807383E-01 0.  0.
         14    1    1    2    0    0  0.15132577752E-01  0.59024978250E-02 -0.16250118898E-01  0.22976090925E-01  0.00000000000E+00 0.  1.
     999901    1    3    3    0    0  0.28194721173E-01 -0.12614175097E+00  0.35599343967E-01  0.89015391755E+00  0.88000000000E+00 0.  1.
        -11    1    4    4    0    0 -0.31640756461E-01  0.59851902645E-01 -0.70095622986E-02  0.68064548806E-01  0.51100000000E-03 0.  1.
         11    1    4    4    0    0 -0.11686542464E-01  0.60387350497E-01 -0.12339662770E-01  0.62735442719E-01  0.51100000000E-03 0. -1.
</event>
<event>
 8    1  0.1054086E+005  0.1043930E+01  0.7957747E-01            NaN
         13   -1    0    0    0    0  0.00000000000E+00  0.00000000000E+00  0.74505805969E-08  0.10566000000E+00  0.10566000000E+00 0.  1.
     999900   -1    0    0    0    0 -0.00000000000E+00 -0.00000000000E+00 -0.74505805969E-08  0.93827000000E+00  0.93827000000E+00 0.  1.
     999902    2    1    2    0    0  0.14866061379E-01 -0.34761383726E-02 -0.17825178623E-01  0.10204604386E+01  0.10201905148E+01 0.  0.
     999903    2    3    3    0    0  0.71386673250E-01 -0.10651648166E+00  0.26702347485E-01  0.13153153679E+00  0.12071115375E-01 0.  0.
         14    1    1    2    0    0 -0.14866061379E-01  0.34761383726E-02  0.17825178623E-01  0.23469561390E-01  0.00000000000E+00 0.  1.
     999901    1    3    3    0    0 -0.56520611871E-01  0.10304034329E+00 -0.44527526108E-01  0.88892890182E+00  0.88000000000E+00 0.  1.
        -11    1    4    4    0    0  0.60913361650E-01 -0.96020748646E-01  0.20992950687E-01  0.11563471320E+00  0.51100000000E-03 0.  1.
         11    1    4    4    0    0  0.10473311600E-01 -0.10495733013E-01  0.57093967978E-02  0.15896823586E-01  0.51100000000E-03 0. -1.
</event>
<event>
 8    1  0.1184853E+005  0.1043930E+01  0.7957747E-01            NaN
         13   -1    0    0    0    0  0.00000000000E+00  0.00000000000E+00  0.74505805969E-08  0.10566000000E+00  0.10566000000E+00 0. -1.
     999900   -1    0    0    0    0 -0.00000000000E+00 -0.00000000000E+00 -0.74505805969E-08  0.93827000000E+00  0.93827000000E+00 0.  1.
     999902    2    1    2    0    0  0.15064244015E-01  0.73082784252E-03  0.15054831830E-01  0.10226200606E+01  0.10223980021E+01 0.  0.
     999903    2    3    3    0    0  0.36889023393E-01  0.12543356768E+00  0.19211315131E-01  0.13355067595E+00  0.19295814783E-01 0.  0.
         14    1    1    2    0    0 -0.15064244015E-01 -0.73082784252E-03 -0.15054831830E-01  0.21309939430E-01  0.00000000000E+00 0.  1.
     999901    1    3    3    0    0 -0.21824779378E-01 -0.12470273984E+00 -0.41564833006E-02  0.88906938462E+00  0.88000000000E+00 0.  1.
        -11    1    4    4    0    0  0.22150414899E-01  0.42673160601E-01  0.60115415391E-02  0.48456570953E-01  0.51100000000E-03 0.  1.
         11    1    4    4    0    0  0.14738608494E-01  0.82760407083E-01  0.13199773592E-01  0.85094104994E-01  0.51100000000E-03 0. -1.
</event>
<event>
 8    1  0.1054086E+005  0.1043930E+01  0.7957747E-01            NaN
         13   -1    0    0    0    0  0.00000000000E+00  0.00000000000E+00  0.74505805969E-08  0.10566000000E+00  0.10566000000E+00 0. -1.
     999900   -1    0    0    0    0 -0.00000000000E+00 -0.00000000000E+00 -0.74505805969E-08  0.93827000000E+00  0.93827000000E+00 0. -1.
     999902    2    1    2    0    0  0.30949289291E-02 -0.20321605650E-01  0.11632086284E-01  0.10203111162E+01  0.10200377062E+01 0.  0.
     999903    2    3    3    0    0 -0.72303640959E-01  0.72069536696E-01  0.77547932817E-01  0.12982475113E+00  0.20468256070E-01 0.  0.
         14    1    1    2    0    0 -0.30949289291E-02  0.20321605650E-01 -0.11632086284E-01  0.23618883814E-01  0.00000000000E+00 0.  1.
     999901    1    3    3    0    0  0.75398569888E-01 -0.92391142347E-01 -0.65915846533E-01  0.89048636506E+00  0.88000000000E+00 0. -1.
        -11    1    4    4    0    0 -0.65317134812E-01  0.69141703966E-01  0.65159818900E-01  0.11529512760E+00  0.51100000000E-03 0.  1.
         11    1    4    4    0    0 -0.69865061469E-02  0.29278327300E-02  0.12388113917E-01  0.14529623535E-01  0.51100000000E-03 0. -1.
</event>
<event>
 8    1  0.1054086E+005  0.1043930E+01  0.7957747E-01            NaN
         13   -1    0    0    0    0  0.00000000000E+00  0.00000000000E+00  0.74505805969E-08  0.10566000000E+00  0.10566000000E+00 0.  1.
     999900   -1    0    0    0    0 -0.00000000000E+00 -0.00000000000E+00 -0.74505805969E-08  0.93827000000E+00  0.93827000000E+00 0. -1.
     999902    2    1    2    0    0 -0.12928229982E-01  0.42452791802E-02 -0.15177310330E-01  0.10235458818E+01  0.10233428848E+01 0.  0.
     999903    2    3    3    0    0 -0.10242387896E+00  0.54126147847E-01  0.64420854514E-01  0.13403284643E+00  0.19861182372E-01 0.  0.
         14    1    1    2    0    0  0.12928229982E-01 -0.42452791802E-02  0.15177310330E-01  0.20384118196E-01  0.00000000000E+00 0.  1.
     999901    1    3    3    0    0  0.89495648977E-01 -0.49880868667E-01 -0.79598164844E-01  0.88951303537E+00  0.88000000000E+00 0. -1.
        -11    1    4    4    0    0 -0.53820074329E-01  0.29261512242E-01  0.45271828732E-01  0.76175035918E-01  0.51100000000E-03 0. -1.
         11    1    4    4    0    0 -0.48603804631E-01  0.24864635604E-01  0.19149025782E-01  0.57857810516E-01  0.51100000000E-03 0.  1.
</event>
<event>
 8    1  0.1054086E+005  0.1043930E+01  0.7957747E-01            NaN
         13   -1    0    0    0    0  0.00000000000E+00  0.00000000000E+00  0.74505805969E-08  0.10566000000E+00  0.10566000000E+00 0. -1.
     999900   -1    0    0    0    0 -0.00000000000E+00 -0.00000000000E+00 -0.74505805969E-08  0.93827000000E+00  0.93827000000E+00 0. -1.
     999902    2    1    2    0    0 -0.21230641497E-01  0.97714405854E-02  0.31954588266E-02  0.10203411860E+01  0.10200684799E+01 0.  0.
     999903    2    3    3    0    0  0.12418011876E-01 -0.11998014176E+00  0.42187835343E-01  0.12933719586E+00  0.19971363118E-01 0.  0.
         14    1    1    2    0    0  0.21230641497E-01 -0.97714405854E-02 -0.31954588266E-02  0.23588814014E-01  0.00000000000E+00 0. -1.
     999901    1    3    3    0    0 -0.33648653373E-01  0.12975158235E+00 -0.38992376517E-01  0.89100399013E+00  0.88000000000E+00 0. -1.
        -11    1    4    4    0    0  0.16098710154E-01 -0.62391551839E-01  0.25087577652E-01  0.69148549391E-01  0.51100000000E-03 0. -1.
         11    1    4    4    0    0 -0.36806982778E-02 -0.57588589925E-01  0.17100257691E-01  0.60188646467E-01  0.51100000000E-03 0.  1.
</event>
<event>
 8    1  0.1054086E+005  0.1043930E+01  0.7957747E-01            NaN
         13   -1    0    0    0    0  0.00000000000E+00  0.00000000000E+00  0.74505805969E-08  0.10566000000E+00  0.10566000000E+00 0.  1.
     999900   -1    0    0    0    0 -0.00000000000E+00 -0.00000000000E+00 -0.74505805969E-08  0.93827000000E+00  0.93827000000E+00 0.  1.
     999902    2    1    2    0    0 -0.17447043156E-01  0.31830877396E-02  0.14794119787E-01  0.10208346034E+01  0.10205733145E+01 0.  0.
     999903    2    3    3    0    0 -0.47312360329E-01 -0.71173728898E-01 -0.96243638492E-01  0.13024476680E+00  0.19917384435E-01 0.  0.
         14    1    1    2    0    0  0.17447043156E-01 -0.31830877396E-02 -0.14794119787E-01  0.23095396570E-01  0.00000000000E+00 0. -1.
     999901    1    3    3    0    0  0.29865317173E-01  0.74356816638E-01  0.11103775828E+00  0.89058983663E+00  0.88000000000E+00 0. -1.
        -11    1    4    4    0    0 -0.41591766049E-02 -0.21605778936E-01 -0.25469360784E-01  0.33660925317E-01  0.51100000000E-03 0.  1.
         11    1    4    4    0    0 -0.43153183724E-01 -0.49567949963E-01 -0.70774277707E-01  0.96583841480E-01  0.51100000000E-03 0. -1.
</event>
<event>
 8    1  0.1285085E+005  0.1043930E+01  0.7957747E-01            NaN
         13   -1    0    0    0    0  0.00000000000E+00  0.00000000000E+00  0.74505805969E-08  0.10566000000E+00  0.10566000000E+00 0. -1.
     999900   -1    0    0    0    0 -0.00000000000E+00 -0.00000000000E+00 -0.74505805969E-08  0.93827000000E+00  0.93827000000E+00 0.  1.
     999902    2    1    2    0    0  0.23708454893E-02 -0.14891676670E-01 -0.20395648608E-01  0.10185653509E+01  0.10182494825E+01 0.  0.
     999903    2    3    3    0    0  0.52489605665E-01 -0.36370916583E-01  0.10855305830E+00  0.12749800389E+00  0.19848734312E-01 0.  0.
         14    1    1    2    0    0 -0.23708454893E-02  0.14891676670E-01  0.20395648608E-01  0.25364649111E-01  0.00000000000E+00 0. -1.
     999901    1    3    3    0    0 -0.50118760176E-01  0.21479239914E-01 -0.12894870691E+00  0.89106734700E+00  0.88000000000E+00 0.  1.
        -11    1    4    4    0    0  0.32077967383E-01 -0.31452329972E-01  0.63460251749E-01  0.77754162108E-01  0.51100000000E-03 0.  1.
         11    1    4    4    0    0  0.20411638282E-01 -0.49185866116E-02  0.45092806554E-01  0.49743841785E-01  0.51100000000E-03 0. -1.
</event>
<event>
 8    1  0.1054086E+005  0.1043930E+01  0.7957747E-01            NaN
         13   -1    0    0    0    0  0.00000000000E+00  0.00000000000E+00  0.74505805969E-08  0.10566000000E+00  0.10566000000E+00 0. -1.
     999900   -1    0    0    0    0 -0.00000000000E+00 -0.00000000000E+00 -0.74505805969E-08  0.93827000000E+00  0.93827000000E+00 0.  1.
     999902    2    1    2    0    0  0.18854133775E-01 -0.10777006182E-01  0.81718421890E-02  0.10207265255E+01  0.10204627571E+01 0.  0.
     999903    2    3    3    0    0  0.57197492756E-01  0.10953597659E+00  0.38172432298E-01  0.13120673238E+00  0.22099517824E-01 0.  0.
         14    1    1    2    0    0 -0.18854133775E-01  0.10777006182E-01 -0.81718421890E-02  0.23203474468E-01  0.00000000000E+00 0.  1.
     999901    1    3    3    0    0 -0.38343358981E-01 -0.12031298278E+00 -0.30000590109E-01  0.88951979315E+00  0.88000000000E+00 0. -1.
        -11    1    4    4    0    0  0.34079667987E-01  0.69191449629E-01  0.34697411442E-01  0.84575717281E-01  0.51100000000E-03 0. -1.
         11    1    4    4    0    0  0.23117824769E-01  0.40344526966E-01  0.34750208554E-02  0.46631015098E-01  0.51100000000E-03 0.  1.
</event>
<event>
 8    1  0.1054086E+005  0.1043930E+01  0.7957747E-01            NaN
         13   -1    0    0    0    0  0.00000000000E+00  0.00000000000E+00  0.74505805969E-08  0.10566000000E+00  0.10566000000E+00 0. -1.
     999900   -1    0    0    0    0 -0.00000000000E+00 -0.00000000000E+00 -0.74505805969E-08  0.93827000000E+00  0.93827000000E+00 0. -1.
     999902    2    1    2    0    0 -0.52502117955E-02 -0.15523366452E-01 -0.16682116761E-01  0.10205455468E+01  0.10202775997E+01 0.  0.
     999903    2    3    3    0    0  0.12261411933E+00 -0.12332914720E-01 -0.40267618106E-01  0.13098625032E+00  0.18697423889E-01 0.  0.
         14    1    1    2    0    0  0.52502117955E-02  0.15523366452E-01  0.16682116761E-01  0.23384453158E-01  0.00000000000E+00 0.  1.
     999901    1    3    3    0    0 -0.12786433113E+00 -0.31904517318E-02  0.23585501345E-01  0.88955929652E+00  0.88000000000E+00 0. -1.
        -11    1    4    4    0    0  0.28216427122E-01  0.35832841380E-03 -0.16961599530E-01  0.32927984123E-01  0.51100000000E-03 0.  1.
         11    1    4    4    0    0  0.94397692208E-01 -0.12691243134E-01 -0.23306018576E-01  0.98058266196E-01  0.51100000000E-03 0. -1.
</event>
<event>
 7    1  0.1054086E+005  0.1043930E+01  0.7957747E-01            NaN
         13   -1    0    0    0    0  0.00000000000E+00  0.00000000000E+00  0.74505805969E-08  0.10566000000E+00  0.10566000000E+00 0.  1.
     999900   -1    0    0    0    0 -0.00000000000E+00 -0.00000000000E+00 -0.74505805969E-08  0.93827000000E+00  0.93827000000E+00 0. -1.
     999902    2    1    2    0    0 -0.16970504809E-01 -0.11338985277E-01  0.11648090905E-01  0.10204300289E+01  0.10201593970E+01 0.  0.
         14    1    1    2    0    0  0.16970504809E-01  0.11338985277E-01 -0.11648090905E-01  0.23499971113E-01  0.00000000000E+00 0. -1.
     999901    1    3    3    0    0  0.38333037917E-01 -0.11800382468E+00  0.34387575845E-01  0.88936878167E+00  0.88000000000E+00 0.  1.
        -11    1    3    3    0    0 -0.27967277553E-01  0.20921743392E-01 -0.21576102088E-01  0.41057000166E-01  0.51100000000E-03 0. -1.
         11    1    3    3    0    0 -0.27336265174E-01  0.85743096008E-01 -0.11633828521E-02  0.90004247052E-01  0.51100000000E-03 0.  1.
</event>
<event>
 8    1  0.1054086E+005  0.1043930E+01  0.7957747E-01            NaN
         13   -1    0    0    0    0  0.00000000000E+00  0.00000000000E+00  0.74505805969E-08  0.10566000000E+00  0.10566000000E+00 0. -1.
     999900   -1    0    0    0    0 -0.00000000000E+00 -0.00000000000E+00 -0.74505805969E-08  0.93827000000E+00  0.93827000000E+00 0. -1.
     999902    2    1    2    0    0 -0.72064236885E-02  0.18528164115E-01  0.13437026875E-01  0.10199346025E+01  0.10196523007E+01 0.  0.
     999903    2    3    3    0    0 -0.60891598919E-01 -0.91695136302E-01  0.65773781039E-01  0.12989504734E+00  0.20754474466E-01 0.  0.
         14    1    1    2    0    0  0.72064236885E-02 -0.18528164115E-01 -0.13437026875E-01  0.23995397457E-01  0.00000000000E+00 0.  1.
     999901    1    3    3    0    0  0.53685175231E-01  0.11022330042E+00 -0.52336754164E-01  0.89003955521E+00  0.88000000000E+00 0. -1.
        -11    1    4    4    0    0 -0.35387116072E-01 -0.64699739854E-01  0.52197206566E-01  0.90349951939E-01  0.51100000000E-03 0. -1.
         11    1    4    4    0    0 -0.25504482847E-01 -0.26995396448E-01  0.13576574473E-01  0.39545095399E-01  0.51100000000E-03 0.  1.
</event>
<event>
 8    1  0.1054086E+005  0.1043930E+01  0.7957747E-01            NaN
         13   -1    0    0    0    0  0.00000000000E+00  0.00000000000E+00  0.74505805969E-08  0.10566000000E+00  0.10566000000E+00 0. -1.
     999900   -1    0    0    0    0 -0.00000000000E+00 -0.00000000000E+00 -0.74505805969E-08  0.93827000000E+00  0.93827000000E+00 0.  1.
     999902    2    1    2    0    0 -0.77690596852E-02  0.17655650644E-01  0.13199029232E-01  0.10205570528E+01  0.10202893724E+01 0.  0.
     999903    2    3    3    0    0  0.64646652344E-01  0.95204316091E-01  0.63178027384E-01  0.13277569959E+00  0.19871381301E-01 0.  0.
         14    1    1    2    0    0  0.77690596852E-02 -0.17655650644E-01 -0.13199029232E-01  0.23372947198E-01  0.00000000000E+00 0.  1.
     999901    1    3    3    0    0 -0.72415712030E-01 -0.77548665447E-01 -0.49978998153E-01  0.88778135322E+00  0.88000000000E+00 0.  1.
        -11    1    4    4    0    0  0.32956100694E-01  0.35978652080E-01  0.18921891480E-01  0.52334186500E-01  0.51100000000E-03 0.  1.
         11    1    4    4    0    0  0.31690551651E-01  0.59225664011E-01  0.44256135904E-01  0.80441513086E-01  0.51100000000E-03 0. -1.
</event>
<event>
 8    1  0.1054086E+005  0.1043930E+01  0.7957747E-01            NaN
         13   -1    0    0    0    0  0.00000000000E+00  0.00000000000E+00  0.74505805969E-08  0.10566000000E+00  0.10566000000E+00 0. -1.
     999900   -1    0    0    0    0 -0.00000000000E+00 -0.00000000000E+00 -0.74505805969E-08  0.93827000000E+00  0.93827000000E+00 0. -1.
     999902    2    1    2    0    0 -0.65661501467E-02  0.22099865745E-01  0.63126360712E-02  0.10200266996E+01  0.10197465863E+01 0.  0.
     999903    2    3    3    0    0 -0.12846918409E+00 -0.14354731439E-01 -0.48783064184E-02  0.13080539730E+00  0.19387225543E-01 0.  0.
         14    1    1    2    0    0  0.65661501467E-02 -0.22099865745E-01 -0.63126360712E-02  0.23903300355E-01  0.00000000000E+00 0.  1.
     999901    1    3    3    0    0  0.12190303395E+00  0.36454597184E-01  0.11190942490E-01  0.88922130234E+00  0.88000000000E+00 0.  1.
        -11    1    4    4    0    0 -0.58229273155E-01  0.31579147495E-02 -0.15889183693E-02  0.58338721792E-01  0.51100000000E-03 0. -1.
         11    1    4    4    0    0 -0.70239910938E-01 -0.17512646189E-01 -0.32893880491E-02  0.72466675513E-01  0.51100000000E-03 0.  1.
</event>
<event>
 8    1  0.1054086E+005  0.1043930E+01  0.7957747E-01            NaN
         13   -1    0    0    0    0  0.00000000000E+00  0.00000000000E+00  0.74505805969E-08  0.10566000000E+00  0.10566000000E+00 0. -1.
     999900   -1    0    0    0    0 -0.00000000000E+00 -0.00000000000E+00 -0.74505805969E-08  0.93827000000E+00  0.93827000000E+00 0. -1.
     999902    2    1    2    0    0  0.13369962949E-01  0.10346922224E-01  0.15676155609E-01  0.10208744895E+01  0.10206141126E+01 0.  0.
     999903    2    3    3    0    0  0.49170853801E-01  0.49041877605E-01  0.11278408660E+00  0.13396471191E+00  0.20085199141E-01 0.  0.
         14    1    1    2    0    0 -0.13369962949E-01 -0.10346922224E-01 -0.15676155609E-01  0.23055510478E-01  0.00000000000E+00 0.  1.
     999901    1    3    3    0    0 -0.35800890852E-01 -0.38694955382E-01 -0.97107930993E-01  0.88690977761E+00  0.88000000000E+00 0. -1.
        -11    1    4    4    0    0  0.21895740633E-01  0.12857944315E-01  0.54586405306E-01  0.60205373141E-01  0.51100000000E-03 0.  1.
         11    1    4    4    0    0  0.27275113168E-01  0.36183933290E-01  0.58197681296E-01  0.73759338771E-01  0.51100000000E-03 0. -1.
</event>
<event>
 8    1  0.1054086E+005  0.1043930E+01  0.7957747E-01            NaN
         13   -1    0    0    0    0  0.00000000000E+00  0.00000000000E+00  0.74505805969E-08  0.10566000000E+00  0.10566000000E+00 0.  1.
     999900   -1    0    0    0    0 -0.00000000000E+00 -0.00000000000E+00 -0.74505805969E-08  0.93827000000E+00  0.93827000000E+00 0.  1.
     999902    2    1    2    0    0 -0.13340694071E-01  0.14717479104E-01  0.12057245133E-01  0.10206930581E+01  0.10204285195E+01 0.  0.
     999903    2    3    3    0    0  0.18457395080E-03 -0.17253121468E-01 -0.12648634051E+00  0.12917784380E+00  0.19758965700E-01 0.  0.
         14    1    1    2    0    0  0.13340694071E-01 -0.14717479104E-01 -0.12057245133E-01  0.23236941917E-01  0.00000000000E+00 0. -1.
     999901    1    3    3    0    0 -0.13525268021E-01  0.31970600572E-01  0.13854358564E+00  0.89151521428E+00  0.88000000000E+00 0. -1.
        -11    1    4    4    0    0 -0.18342621923E-02 -0.16810639788E-01 -0.52452761613E-01  0.55113659375E-01  0.51100000000E-03 0.  1.
         11    1    4    4    0    0  0.20188361431E-02 -0.44248168030E-03 -0.74033578895E-01  0.74064184425E-01  0.51100000000E-03 0. -1.
</event>
<event>
 8    1  0.1054086E+005  0.1043930E+01  0.7957747E-01            NaN
         13   -1    0    0    0    0  0.00000000000E+00  0.00000000000E+00  0.74505805969E-08  0.10566000000E+00  0.10566000000E+00 0.  1.
     999900   -1    0    0    0    0 -0.00000000000E+00 -0.00000000000E+00 -0.74505805969E-08  0.93827000000E+00  0.93827000000E+00 0.  1.
     999902    2    1    2    0    0 -0.20577262515E-02  0.11366159504E-01 -0.21160994510E-01  0.10198216714E+01  0.10195366742E+01 0.  0.
     999903    2    3    3    0    0  0.56936572472E-01 -0.24104874713E-01 -0.11488323043E+00  0.13217175220E+00  0.21175390821E-01 0.  0.
         14    1    1    2    0    0  0.20577262515E-02 -0.11366159504E-01  0.21160994510E-01  0.24108328599E-01  0.00000000000E+00 0.  1.
     999901    1    3    3    0    0 -0.58994298724E-01  0.35471034217E-01  0.93722235919E-01  0.88764991920E+00  0.88000000000E+00 0. -1.
        -11    1    4    4    0    0  0.29897250609E-01 -0.18752607030E-01 -0.81916743652E-01  0.89197084459E-01  0.51100000000E-03 0.  1.
         11    1    4    4    0    0  0.27039321864E-01 -0.53522676825E-02 -0.32966486776E-01  0.42974667742E-01  0.51100000000E-03 0. -1.
</event>
<event>
 8    1  0.1054086E+005  0.1043930E+01  0.7957747E-01            NaN
         13   -1    0    0    0    0  0.00000000000E+00  0.00000000000E+00  0.74505805969E-08  0.10566000000E+00  0.10566000000E+00 0. -1.
     999900   -1    0    0    0    0 -0.00000000000E+00 -0.00000000000E+00 -0.74505805969E-08  0.93827000000E+00  0.93827000000E+00 0. -1.
     999902    2    1    2    0    0 -0.25305977995E-02  0.10924515072E-01  0.20557168685E-01  0.10205132082E+01  0.10202445109E+01 0.  0.
     999903    2    3    3    0    0  0.36369838661E-01 -0.11637958779E+00 -0.37429569805E-01  0.12861520930E+00  0.16550702402E-01 0.  0.
         14    1    1    2    0    0  0.25305977995E-02 -0.10924515072E-01 -0.20557168685E-01  0.23416791819E-01  0.00000000000E+00 0.  1.
     999901    1    3    3    0    0 -0.38900436460E-01  0.12730410286E+00  0.57986738490E-01  0.89189799888E+00  0.88000000000E+00 0.  1.
        -11    1    4    4    0    0  0.21173037829E-01 -0.42295261790E-01 -0.11669958489E-01  0.48719972834E-01  0.51100000000E-03 0. -1.
         11    1    4    4    0    0  0.15196800832E-01 -0.74084325999E-01 -0.25759611316E-01  0.79895236469E-01  0.51100000000E-03 0.  1.
</event>
<event>
 8    1  0.1054086E+005  0.1043930E+01  0.7957747E-01            NaN
         13   -1    0    0    0    0  0.00000000000E+00  0.00000000000E+00  0.74505805969E-08  0.10566000000E+00  0.10566000000E+00 0. -1.
     999900   -1    0    0    0    0 -0.00000000000E+00 -0.00000000000E+00 -0.74505805969E-08  0.93827000000E+00  0.93827000000E+00 0.  1.
     999902    2    1    2    0    0 -0.15656069749E-01  0.11458093949E-01 -0.12923856129E-01  0.10206184901E+01  0.10203522313E+01 0.  0.
     999903    2    3    3    0    0 -0.90925886837E-01  0.34971963846E-01  0.86051562783E-01  0.13156585892E+00  0.20350641861E-01 0.  0.
         14    1    1    2    0    0  0.15656069749E-01 -0.11458093949E-01  0.12923856129E-01  0.23311509908E-01  0.00000000000E+00 0.  1.
     999901    1    3    3    0    0  0.75269817088E-01 -0.23513869897E-01 -0.98975418912E-01  0.88905263117E+00  0.88000000000E+00 0.  1.
        -11    1    4    4    0    0 -0.39151266022E-01  0.25870772519E-01  0.39209141883E-01  0.61153384453E-01  0.51100000000E-03 0.  1.
         11    1    4    4    0    0 -0.51774620815E-01  0.91011913273E-02  0.46842420900E-01  0.70412474469E-01  0.51100000000E-03 0. -1.
</event>
<event>
 8    1  0.1054086E+005  0.1043930E+01  0.7957747E-01            NaN
         13   -1    0    0    0    0  0.00000000000E+00  0.00000000000E+00  0.74505805969E-08  0.10566000000E+00  0.10566000000E+00 0. -1.
     999900   -1    0    0    0    0 -0.00000000000E+00 -0.00000000000E+00 -0.74505805969E-08  0.93827000000E+00  0.93827000000E+00 0.  1.
     999902    2    1    2    0    0 -0.14492481121E-01  0.37767611190E-02 -0.16825108668E-01  0.10214048981E+01  0.10211564942E+01 0.  0.
     999903    2    3    3    0    0 -0.90637653909E-01  0.65117366275E-01  0.67353098597E-01  0.13199682092E+00  0.20766924343E-01 0.  0.
         14    1    1    2    0    0  0.14492481121E-01 -0.37767611190E-02  0.16825108668E-01  0.22525101893E-01  0.00000000000E+00 0. -1.
     999901    1    3    3    0    0  0.76145172788E-01 -0.61340605156E-01 -0.84178207265E-01  0.88940807718E+00  0.88000000000E+00 0.  1.
        -11    1    4    4    0    0 -0.13237967829E-01  0.19206241237E-02  0.10645006765E-01  0.17102920198E-01  0.51100000000E-03 0.  1.
         11    1    4    4    0    0 -0.77399686080E-01  0.63196742152E-01  0.56708091832E-01  0.11489390073E+00  0.51100000000E-03 0. -1.
</event>
<event>
 8    1  0.1054086E+005  0.1043930E+01  0.7957747E-01            NaN
         13   -1    0    0    0    0  0.00000000000E+00  0.00000000000E+00  0.74505805969E-08  0.10566000000E+00  0.10566000000E+00 0. -1.
     999900   -1    0    0    0    0 -0.00000000000E+00 -0.00000000000E+00 -0.74505805969E-08  0.93827000000E+00  0.93827000000E+00 0. -1.
     999902    2    1    2    0    0  0.64902082679E-03 -0.23199403467E-01 -0.23907143198E-01  0.10106105606E+01  0.10100611467E+01 0.  0.
     999903    2    3    3    0    0 -0.61175157952E-01 -0.10108642098E+00  0.29506479534E-01  0.12340053374E+00  0.19904646105E-01 0.  0.
         14    1    1    2    0    0 -0.64902082679E-03  0.23199403467E-01  0.23907143198E-01  0.33319439448E-01  0.00000000000E+00 0. -1.
     999901    1    3    3    0    0  0.61824178779E-01  0.77887017511E-01 -0.53413622732E-01  0.88721002681E+00  0.88000000000E+00 0.  1.
        -11    1    4    4    0    0 -0.41858113394E-01 -0.82164040532E-01  0.27748531299E-01  0.96297836547E-01  0.51100000000E-03 0. -1.
         11    1    4    4    0    0 -0.19317044558E-01 -0.18922380447E-01  0.17579482349E-02  0.27102697195E-01  0.51100000000E-03 0.  1.
</event>
<event>
 8    1  0.1054086E+005  0.1043930E+01  0.7957747E-01            NaN
         13   -1    0    0    0    0  0.00000000000E+00  0.00000000000E+00  0.74505805969E-08  0.10566000000E+00  0.10566000000E+00 0. -1.
     999900   -1    0    0    0    0 -0.00000000000E+00 -0.00000000000E+00 -0.74505805969E-08  0.93827000000E+00  0.93827000000E+00 0. -1.
     999902    2    1    2    0    0 -0.11431240064E-01  0.20828492597E-01 -0.12393454966E-02  0.10201385030E+01  0.10198610346E+01 0.  0.
     999903    2    3    3    0    0 -0.33949570443E-01 -0.23427431566E-01  0.12187698754E+00  0.13018159757E+00  0.19794705643E-01 0.  0.
         14    1    1    2    0    0  0.11431240064E-01 -0.20828492597E-01  0.12393454966E-02  0.23791497022E-01  0.00000000000E+00 0.  1.
     999901    1    3    3    0    0  0.22518330379E-01  0.44255924163E-01 -0.12311633303E+00  0.88995690541E+00  0.88000000000E+00 0. -1.
        -11    1    4    4    0    0 -0.45092252278E-02 -0.14657866301E-02  0.41921575166E-01  0.42191956912E-01  0.51100000000E-03 0. -1.
         11    1    4    4    0    0 -0.29440345215E-01 -0.21961644936E-01  0.79955412370E-01  0.87989640657E-01  0.51100000000E-03 0.  1.
</event>
<event>
 8    1  0.1054086E+005  0.1043930E+01  0.7957747E-01            NaN
         13   -1    0    0    0    0  0.00000000000E+00  0.00000000000E+00  0.74505805969E-08  0.10566000000E+00  0.10566000000E+00 0.  1.
     999900   -1    0    0    0    0 -0.00000000000E+00 -0.00000000000E+00 -0.74505805969E-08  0.93827000000E+00  0.93827000000E+00 0. -1.
     999902    2    1    2    0    0 -0.43695365952E-02 -0.13371087196E-01 -0.18126528856E-01  0.10209855046E+01  0.10207276574E+01 0.  0.
     999903    2    3    3    0    0  0.59077954629E-01 -0.11459386352E+00  0.18935792261E-01  0.13214060794E+00  0.21922996112E-01 0.  0.
         14    1    1    2    0    0  0.43695365952E-02  0.13371087196E-01  0.18126528856E-01  0.22944495445E-01  0.00000000000E+00 0.  1.
     999901    1    3    3    0    0 -0.63447491224E-01  0.10122277633E+00 -0.37062321117E-01  0.88884489661E+00  0.88000000000E+00 0. -1.
        -11    1    4    4    0    0  0.10691423737E-01 -0.38010320975E-01  0.12063821938E-01  0.41290288966E-01  0.51100000000E-03 0.  1.
         11    1    4    4    0    0  0.48386530892E-01 -0.76583542547E-01  0.68719703232E-02  0.90850318975E-01  0.51100000000E-03 0. -1.
</event>
<event>
 8    1  0.1054086E+005  0.1043930E+01  0.7957747E-01            NaN
         13   -1    0    0    0    0  0.00000000000E+00  0.00000000000E+00  0.74505805969E-08  0.10566000000E+00  0.10566000000E+00 0. -1.
     999900   -1    0    0    0    0 -0.00000000000E+00 -0.00000000000E+00 -0.74505805969E-08  0.93827000000E+00  0.93827000000E+00 0.  1.
     999902    2    1    2    0    0 -0.76657847945E-02 -0.22286146733E-01  0.53797722044E-04  0.10203622363E+01  0.10200900224E+01 0.  0.
     999903    2    3    3    0    0  0.91870461142E-01  0.32298033308E-01  0.82747108207E-01  0.12922527679E+00  0.19202699254E-01 0.  0.
         14    1    1    2    0    0  0.76657847945E-02  0.22286146733E-01 -0.53797722044E-04  0.23567763723E-01  0.00000000000E+00 0. -1.
     999901    1    3    3    0    0 -0.99536245937E-01 -0.54584180040E-01 -0.82693310485E-01  0.89113695949E+00  0.88000000000E+00 0.  1.
        -11    1    4    4    0    0  0.35257854925E-01  0.20112215606E-01  0.42027077841E-01  0.58430761961E-01  0.51100000000E-03 0. -1.
         11    1    4    4    0    0  0.56612606217E-01  0.12185817702E-01  0.40720030366E-01  0.70794514829E-01  0.51100000000E-03 0.  1.
</event>
<event>
 8    1  0.1054086E+005  0.1043930E+01  0.7957747E-01            NaN
         13   -1    0    0    0    0  0.00000000000E+00  0.00000000000E+00  0.74505805969E-08  0.10566000000E+00  0.10566000000E+00 0. -1.
     999900   -1    0    0    0    0 -0.00000000000E+00 -0.00000000000E+00 -0.74505805969E-08  0.93827000000E+00  0.93827000000E+00 0. -1.
     999902    2    1    2    0    0 -0.16240613499E-01  0.13955225436E-01  0.10014049458E-01  0.10202913234E+01  0.10200174497E+01 0.  0.
     999903    2    3    3    0    0  0.19056915698E-01  0.86905488596E-01 -0.93723381752E-01  0.13049971237E+00  0.18176156306E-01 0.  0.
         14    1    1    2    0    0  0.16240613499E-01 -0.13955225436E-01 -0.10014049458E-01  0.23638676577E-01  0.00000000000E+00 0.  1.
     999901    1    3    3    0    0 -0.35297529197E-01 -0.72950263161E-01  0.10373743121E+00  0.88979161105E+00  0.88000000000E+00 0. -1.
        -11    1    4    4    0    0  0.55637284750E-02  0.47854691784E-01 -0.39343797677E-01  0.62203071764E-01  0.51100000000E-03 0.  1.
         11    1    4    4    0    0  0.13493187223E-01  0.39050796813E-01 -0.54379584075E-01  0.68296640608E-01  0.51100000000E-03 0. -1.
</event>
<event>
 8    1  0.1054086E+005  0.1043930E+01  0.7957747E-01            NaN
         13   -1    0    0    0    0  0.00000000000E+00  0.00000000000E+00  0.74505805969E-08  0.10566000000E+00  0.10566000000E+00 0. -1.
     999900   -1    0    0    0    0 -0.00000000000E+00 -0.00000000000E+00 -0.74505805969E-08  0.93827000000E+00  0.93827000000E+00 0. -1.
     999902    2    1    2    0    0 -0.31362659214E-01 -0.37698051207E-02 -0.89888895316E-02  0.10110875281E+01  0.10105539875E+01 0.  0.
     999903    2    3    3    0    0 -0.14524918437E-01  0.43531098065E-01 -0.11301422067E+00  0.12353913256E+00  0.19590136444E-01 0.  0.
         14    1    1    2    0    0  0.31362659214E-01  0.37698051207E-02  0.89888895316E-02  0.32842471871E-01  0.00000000000E+00 0. -1.
     999901    1    3    3    0    0 -0.16837740776E-01 -0.47300903186E-01  0.10402533114E+00  0.88754839557E+00  0.88000000000E+00 0. -1.
        -11    1    4    4    0    0 -0.23978574023E-02  0.12303571707E-01 -0.56189406161E-01  0.57572893644E-01  0.51100000000E-03 0. -1.
         11    1    4    4    0    0 -0.12127061035E-01  0.31227526358E-01 -0.56824814509E-01  0.65966238916E-01  0.51100000000E-03 0.  1.
</event>
<event>
 8    1  0.1054086E+005  0.1043930E+01  0.7957747E-01            NaN
         13   -1    0    0    0    0  0.00000000000E+00  0.00000000000E+00  0.74505805969E-08  0.10566000000E+00  0.10566000000E+00 0. -1.
     999900   -1    0    0    0    0 -0.00000000000E+00 -0.00000000000E+00 -0.74505805969E-08  0.93827000000E+00  0.93827000000E+00 0.  1.
     999902    2    1    2    0    0 -0.13895854453E-01  0.28859479368E-02 -0.19399748137E-01  0.10198930764E+01  0.10196097850E+01 0.  0.
     999903    2    3    3    0    0 -0.35055904574E-01  0.11210740957E+00 -0.56521812449E-01  0.13211206568E+00  0.21491740029E-01 0.  0.
         14    1    1    2    0    0  0.13895854453E-01 -0.28859479368E-02  0.19399748137E-01  0.24036923560E-01  0.00000000000E+00 0. -1.
     999901    1    3    3    0    0  0.21160050121E-01 -0.10922146164E+00  0.37122064312E-01  0.88778101076E+00  0.88000000000E+00 0.  1.
        -11    1    4    4    0    0 -0.15192877057E-01  0.21176631084E-01 -0.87877266054E-02  0.27509243487E-01  0.51100000000E-03 0.  1.
         11    1    4    4    0    0 -0.19863027517E-01  0.90930778489E-01 -0.47734085844E-01  0.10460282219E+00  0.51100000000E-03 0. -1.
</event>
<event>
 8    1  0.1054086E+005  0.1043930E+01  0.7957747E-01            NaN
         13   -1    0    0    0    0  0.00000000000E+00  0.00000000000E+00  0.74505805969E-08  0.10566000000E+00  0.10566000000E+00 0. -1.
     999900   -1    0    0    0    0 -0.00000000000E+00 -0.00000000000E+00 -0.74505805969E-08  0.93827000000E+00  0.93827000000E+00 0.  1.
     999902    2    1    2    0    0  0.69118503880E-02 -0.39233226571E-02 -0.25770272635E-01  0.10169619988E+01  0.10166043645E+01 0.  0.
     999903    2    3    3    0    0 -0.87101535490E-01 -0.61191056152E-01  0.63573524087E-01  0.12561446612E+00  0.20158826747E-01 0.  0.
         14    1    1    2    0    0 -0.69118503880E-02  0.39233226571E-02  0.25770272635E-01  0.26968001189E-01  0.00000000000E+00 0. -1.
     999901    1    3    3    0    0  0.94013385877E-01  0.57267733495E-01 -0.89343796722E-01  0.89134753269E+00  0.88000000000E+00 0. -1.
        -11    1    4    4    0    0 -0.38895320773E-01 -0.39562750588E-01  0.31404936970E-01  0.63754124566E-01  0.51100000000E-03 0. -1.
         11    1    4    4    0    0 -0.48206214717E-01 -0.21628305564E-01  0.32168587117E-01  0.61860341553E-01  0.51100000000E-03 0.  1.
</event>
<event>
 8    1  0.1054086E+005  0.1043930E+01  0.7957747E-01            NaN
         13   -1    0    0    0    0  0.00000000000E+00  0.00000000000E+00  0.74505805969E-08  0.10566000000E+00  0.10566000000E+00 0. -1.
     999900   -1    0    0    0    0 -0.00000000000E+00 -0.00000000000E+00 -0.74505805969E-08  0.93827000000E+00  0.93827000000E+00 0.  1.
     999902    2    1    2    0    0 -0.18083659971E-01  0.12521604006E-01  0.16773371827E-02  0.10218704718E+01  0.10216323401E+01 0.  0.
     999903    2    3    3    0    0 -0.54164470870E-01 -0.81386825049E-01 -0.86111464450E-01  0.13179885015E+00  0.19953631095E-01 0.  0.
         14    1    1    2    0    0  0.18083659971E-01 -0.12521604006E-01 -0.16773371827E-02  0.22059528210E-01  0.00000000000E+00 0. -1.
     999901    1    3    3    0    0  0.36080810899E-01  0.93908429055E-01  0.87788801633E-01  0.89007162164E+00  0.88000000000E+00 0.  1.
        -11    1    4    4    0    0 -0.31668806572E-02 -0.18572557532E-01 -0.17302656152E-01  0.25585387574E-01  0.51100000000E-03 0.  1.
         11    1    4    4    0    0 -0.50997590213E-01 -0.62814267517E-01 -0.68808808298E-01  0.10621346257E+00  0.51100000000E-03 0. -1.
</event>
<event>
 8    1  0.1054086E+005  0.1043930E+01  0.7957747E-01            NaN
         13   -1    0    0    0    0  0.00000000000E+00  0.00000000000E+00  0.74505805969E-08  0.10566000000E+00  0.10566000000E+00 0. -1.
     999900   -1    0    0    0    0 -0.00000000000E+00 -0.00000000000E+00 -0.74505805969E-08  0.93827000000E+00  0.93827000000E+00 0.  1.
     999902    2    1    2    0    0 -0.16926607149E-02 -0.23273382162E-01  0.71913491540E-02  0.10195121598E+01  0.10192197079E+01 0.  0.
     999903    2    3    3    0    0  0.11080696959E+00 -0.62697555634E-01 -0.23231739109E-01  0.13095377873E+00  0.20000261713E-01 0.  0.
         14    1    1    2    0    0  0.16926607149E-02  0.23273382162E-01 -0.71913491540E-02  0.24417840204E-01  0.00000000000E+00 0. -1.
     999901    1    3    3    0    0 -0.11249963030E+00  0.39424173472E-01  0.30423088263E-01  0.88855838107E+00  0.88000000000E+00 0. -1.
        -11    1    4    4    0    0  0.50591338925E-01 -0.35597663923E-01 -0.31891152296E-02  0.61944401102E-01  0.51100000000E-03 0. -1.
         11    1    4    4    0    0  0.60215630664E-01 -0.27099891711E-01 -0.20042623879E-01  0.69009377623E-01  0.51100000000E-03 0.  1.
</event>
<event>
 8    1  0.1054086E+005  0.1043930E+01  0.7957747E-01            NaN
         13   -1    0    0    0    0  0.00000000000E+00  0.00000000000E+00  0.74505805969E-08  0.10566000000E+00  0.10566000000E+00 0.  1.
     999900   -1    0    0    0    0 -0.00000000000E+00 -0.00000000000E+00 -0.74505805969E-08  0.93827000000E+00  0.93827000000E+00 0.  1.
     999902    2    1    2    0    0 -0.20122991828E-01  0.71716580437E-02  0.96420922408E-02  0.10204920517E+01  0.10202228630E+01 0.  0.
     999903    2    3    3    0    0  0.64335747991E-01  0.97179041312E-01  0.55822200626E-01  0.13067903188E+00  0.19443167192E-01 0.  0.
         14    1    1    2    0    0  0.20122991828E-01 -0.71716580437E-02 -0.96420922408E-02  0.23437948331E-01  0.00000000000E+00 0. -1.
     999901    1    3    3    0    0 -0.84458739819E-01 -0.90007383269E-01 -0.46180108385E-01  0.88981301979E+00  0.88000000000E+00 0.  1.
        -11    1    4    4    0    0  0.39900533222E-01  0.75665971265E-01  0.38673183536E-01  0.93879007263E-01  0.51100000000E-03 0.  1.
         11    1    4    4    0    0  0.24435214769E-01  0.21513070047E-01  0.17149017090E-01  0.36800024617E-01  0.51100000000E-03 0. -1.
</event>
<event>
 8    1  0.1054086E+005  0.1043930E+01  0.7957747E-01            NaN
         13   -1    0    0    0    0  0.00000000000E+00  0.00000000000E+00  0.74505805969E-08  0.10566000000E+00  0.10566000000E+00 0.  1.
     999900   -1    0    0    0    0 -0.00000000000E+00 -0.00000000000E+00 -0.74505805969E-08  0.93827000000E+00  0.93827000000E+00 0. -1.
     999902    2    1    2    0    0 -0.39089547707E-02  0.88157694105E-02  0.21220334365E-01  0.10206211968E+01  0.10203550005E+01 0.  0.
     999903    2    3    3    0    0  0.64463582578E-01  0.82592080348E-01 -0.73662182355E-01  0.12982355426E+00  0.21237535534E-01 0.  0.
         14    1    1    2    0    0  0.39089547707E-02 -0.88157694105E-02 -0.21220334365E-01  0.23308803236E-01  0.00000000000E+00 0. -1.
     999901    1    3    3    0    0 -0.68372537348E-01 -0.73776310937E-01  0.94882516720E-01  0.89079764251E+00  0.88000000000E+00 0.  1.
        -11    1    4    4    0    0  0.47514977151E-01  0.56054424878E-01 -0.62315103803E-01  0.96349389645E-01  0.51100000000E-03 0.  1.
         11    1    4    4    0    0  0.16948605427E-01  0.26537655470E-01 -0.11347078552E-01  0.33474164611E-01  0.51100000000E-03 0. -1.
</event>
<event>
 8    1  0.1054086E+005  0.1043930E+01  0.7957747E-01            NaN
         13   -1    0    0    0    0  0.00000000000E+00  0.00000000000E+00  0.74505805969E-08  0.10566000000E+00  0.10566000000E+00 0.  1.
     999900   -1    0    0    0    0 -0.00000000000E+00 -0.00000000000E+00 -0.74505805969E-08  0.93827000000E+00  0.93827000000E+00 0.  1.
     999902    2    1    2    0    0 -0.13232843083E-01 -0.19526485873E-01 -0.39855120650E-03  0.10203386747E+01  0.10200659099E+01 0.  0.
     999903    2    3    3    0    0  0.69481657132E-01 -0.11013396061E+00 -0.44059493259E-02  0.13181885935E+00  0.19990230958E-01 0.  0.
         14    1    1    2    0    0  0.13232843083E-01  0.19526485873E-01  0.39855120650E-03  0.23591325306E-01  0.00000000000E+00 0.  1.
     999901    1    3    3    0    0 -0.82714500215E-01  0.90607474733E-01  0.40073981194E-02  0.88851981535E+00  0.88000000000E+00 0. -1.
        -11    1    4    4    0    0  0.58059352477E-01 -0.96760221610E-01  0.26169340323E-02  0.11287399329E+00  0.51100000000E-03 0. -1.
         11    1    4    4    0    0  0.11422304655E-01 -0.13373738997E-01 -0.70228833583E-02  0.18944866060E-01  0.51100000000E-03 0.  1.
</event>
<event>
 8    1  0.1054086E+005  0.1043930E+01  0.7957747E-01            NaN
         13   -1    0    0    0    0  0.00000000000E+00  0.00000000000E+00  0.74505805969E-08  0.10566000000E+00  0.10566000000E+00 0.  1.
     999900   -1    0    0    0    0 -0.00000000000E+00 -0.00000000000E+00 -0.74505805969E-08  0.93827000000E+00  0.93827000000E+00 0.  1.
     999902    2    1    2    0    0 -0.55302938978E-02 -0.15625661657E-01  0.17222490470E-01  0.10200268699E+01  0.10197467605E+01 0.  0.
     999903    2    3    3    0    0  0.69708554848E-01 -0.51120971027E-02 -0.10553714686E+00  0.12826381390E+00  0.20690588054E-01 0.  0.
         14    1    1    2    0    0  0.55302938978E-02  0.15625661657E-01 -0.17222490470E-01  0.23903130147E-01  0.00000000000E+00 0. -1.
     999901    1    3    3    0    0 -0.75238848746E-01 -0.10513564555E-01  0.12275963733E+00  0.89176305595E+00  0.88000000000E+00 0. -1.
        -11    1    4    4    0    0  0.49419384037E-02 -0.36614835878E-02 -0.20197168272E-01  0.21119089574E-01  0.51100000000E-03 0. -1.
         11    1    4    4    0    0  0.64766616444E-01 -0.14506135149E-02 -0.85339978587E-01  0.10714472433E+00  0.51100000000E-03 0.  1.
</event>
<event>
 8    1  0.1054086E+005  0.1043930E+01  0.7957747E-01            NaN
         13   -1    0    0    0    0  0.00000000000E+00  0.00000000000E+00  0.74505805969E-08  0.10566000000E+00  0.10566000000E+00 0.  1.
     999900   -1    0    0    0    0 -0.00000000000E+00 -0.00000000000E+00 -0.74505805969E-08  0.93827000000E+00  0.93827000000E+00 0. -1.
     999902    2    1    2    0    0 -0.99630764121E-02  0.88565371149E-02 -0.23096705928E-01  0.10172624361E+01  0.10169128305E+01 0.  0.
     999903    2    3    3    0    0 -0.93374105081E-01 -0.77170991515E-01 -0.40016778719E-01  0.12898071035E+00  0.18989355755E-01 0.  0.
         14    1    1    2    0    0  0.99630764121E-02 -0.88565371149E-02  0.23096705928E-01  0.26667563930E-01  0.00000000000E+00 0.  1.
     999901    1    3    3    0    0  0.83411028669E-01  0.86027528630E-01  0.16920072792E-01  0.88828172572E+00  0.88000000000E+00 0. -1.
        -11    1    4    4    0    0 -0.31646879416E-01 -0.21758286429E-01 -0.42387229576E-02  0.38641634262E-01  0.51100000000E-03 0.  1.
         11    1    4    4    0    0 -0.61727225665E-01 -0.55412705086E-01 -0.35778055762E-01  0.90339076087E-01  0.51100000000E-03 0. -1.
</event>
<event>
 8    1  0.1054086E+005  0.1043930E+01  0.7957747E-01            NaN
         13   -1    0    0    0    0  0.00000000000E+00  0.00000000000E+00  0.74505805969E-08  0.10566000000E+00  0.10566000000E+00 0.  1.
     999900   -1    0    0    0    0 -0.00000000000E+00 -0.00000000000E+00 -0.74505805969E-08  0.93827000000E+00  0.93827000000E+00 0. -1.
     999902    2    1    2    0    0 -0.69969116127E-02  0.69660365698E-03  0.22879364940E-01  0.10199945165E+01  0.10197136394E+01 0.  0.
     999903    2    3    3    0    0  0.10154224868E+00 -0.35923149070E-01  0.72256789140E-01  0.13119764119E+00  0.19760480016E-01 0.  0.
         14    1    1    2    0    0  0.69969116127E-02 -0.69660365698E-03 -0.22879364940E-01  0.23935483468E-01  0.00000000000E+00 0. -1.
     999901    1    3    3    0    0 -0.10853916029E+00  0.36619752727E-01 -0.49377424199E-01  0.88879687535E+00  0.88000000000E+00 0. -1.
        -11    1    4    4    0    0  0.44723843307E-01 -0.17680501371E-01  0.43933508804E-01  0.65140130532E-01  0.51100000000E-03 0. -1.
         11    1    4    4    0    0  0.56818405369E-01 -0.18242647699E-01  0.28323280336E-01  0.66057510653E-01  0.51100000000E-03 0.  1.
</event>
<event>
 8    1  0.1054086E+005  0.1043930E+01  0.7957747E-01            NaN
         13   -1    0    0    0    0  0.00000000000E+00  0.00000000000E+00  0.74505805969E-08  0.10566000000E+00  0.10566000000E+00 0. -1.
     999900   -1    0    0    0    0 -0.00000000000E+00 -0.00000000000E+00 -0.74505805969E-08  0.93827000000E+00  0.93827000000E+00 0.  1.
     999902    2    1    2    0    0  0.15566733436E-01  0.25802045765E-02  0.18411968918E-01  0.10196816754E+01  0.10193933186E+01 0.  0.
     999903    2    3    3    0    0 -0.80248186915E-01 -0.98397344547E-01  0.89335866326E-03  0.12856784089E+00  0.20176290637E-01 0.  0.
         14    1    1    2    0    0 -0.15566733436E-01 -0.25802045765E-02 -0.18411968918E-01  0.24248324580E-01  0.00000000000E+00 0. -1.
     999901    1    3    3    0    0  0.95814920351E-01  0.10097754912E+00  0.17518610254E-01  0.89111383453E+00  0.88000000000E+00 0.  1.
        -11    1    4    4    0    0 -0.34883275304E-01 -0.39235152793E-01  0.10041400157E-01  0.53454007789E-01  0.51100000000E-03 0.  1.
         11    1    4    4    0    0 -0.45364911612E-01 -0.59162191754E-01 -0.91480414937E-02  0.75113833099E-01  0.51100000000E-03 0. -1.
</event>
<event>
 8    1  0.1054086E+005  0.1043930E+01  0.7957747E-01            NaN
         13   -1    0    0    0    0  0.00000000000E+00  0.00000000000E+00  0.74505805969E-08  0.10566000000E+00  0.10566000000E+00 0. -1.
     999900   -1    0    0    0    0 -0.00000000000E+00 -0.00000000000E+00 -0.74505805969E-08  0.93827000000E+00  0.93827000000E+00 0.  1.
     999902    2    1    2    0    0  0.53037748881E-02 -0.78485568301E-02 -0.21459081581E-01  0.10204731875E+01  0.10202035602E+01 0.  0.
     999903    2    3    3    0    0  0.11040012098E+00  0.67251686448E-01 -0.30445307097E-02  0.13085282787E+00  0.20055357220E-01 0.  0.
         14    1    1    2    0    0 -0.53037748881E-02  0.78485568301E-02  0.21459081581E-01  0.23456812543E-01  0.00000000000E+00 0. -1.
     999901    1    3    3    0    0 -0.10509634609E+00 -0.75100243278E-01 -0.18414550871E-01  0.88962035958E+00  0.88000000000E+00 0. -1.
        -11    1    4    4    0    0  0.68578566347E-01  0.31065525671E-01  0.20200653108E-02  0.75315525839E-01  0.51100000000E-03 0.  1.
         11    1    4    4    0    0  0.41821554631E-01  0.36186160776E-01 -0.50645960205E-02  0.55537302035E-01  0.51100000000E-03 0. -1.
</event>
<event>
 8    1  0.1054086E+005  0.1043930E+01  0.7957747E-01            NaN
         13   -1    0    0    0    0  0.00000000000E+00  0.00000000000E+00  0.74505805969E-08  0.10566000000E+00  0.10566000000E+00 0. -1.
     999900   -1    0    0    0    0 -0.00000000000E+00 -0.00000000000E+00 -0.74505805969E-08  0.93827000000E+00  0.93827000000E+00 0.  1.
     999902    2    1    2    0    0  0.17279006180E-01 -0.10819907341E-01  0.11658174384E-01  0.10204449520E+01  0.10201746677E+01 0.  0.
     999903    2    3    3    0    0  0.10214153960E+00 -0.77817749610E-01 -0.28120269981E-01  0.13293569285E+00  0.19815463216E-01 0.  0.
         14    1    1    2    0    0 -0.17279006180E-01  0.10819907341E-01 -0.11658174384E-01  0.23485047996E-01  0.00000000000E+00 0. -1.
     999901    1    3    3    0    0 -0.84862533424E-01  0.66997842270E-01  0.39778444365E-01  0.88750925915E+00  0.88000000000E+00 0. -1.
        -11    1    4    4    0    0  0.13205432551E-01 -0.68951414762E-02 -0.94791557943E-02  0.17664708897E-01  0.51100000000E-03 0.  1.
         11    1    4    4    0    0  0.88936107053E-01 -0.70922608134E-01 -0.18641114187E-01  0.11527098395E+00  0.51100000000E-03 0. -1.
</event>
<event>
 8    1  0.1054086E+005  0.1043930E+01  0.7957747E-01            NaN
         13   -1    0    0    0    0  0.00000000000E+00  0.00000000000E+00  0.74505805969E-08  0.10566000000E+00  0.10566000000E+00 0. -1.
     999900   -1    0    0    0    0 -0.00000000000E+00 -0.00000000000E+00 -0.74505805969E-08  0.93827000000E+00  0.93827000000E+00 0.  1.
     999902    2    1    2    0    0  0.20547162579E-01 -0.91036220050E-02  0.11816366508E-01  0.10185392863E+01  0.10182227602E+01 0.  0.
     999903    2    3    3    0    0 -0.12061030830E+00  0.92884375927E-02  0.32288837815E-01  0.12686511852E+00  0.20471143334E-01 0.  0.
         14    1    1    2    0    0 -0.20547162579E-01  0.91036220050E-02 -0.11816366508E-01  0.25390713679E-01  0.00000000000E+00 0.  1.
     999901    1    3    3    0    0  0.14115747088E+00 -0.18392059598E-01 -0.20472471307E-01  0.89167416780E+00  0.88000000000E+00 0.  1.
        -11    1    4    4    0    0 -0.25037200685E-01  0.75180859416E-02  0.58234406875E-03  0.26153074006E-01  0.51100000000E-03 0.  1.
         11    1    4    4    0    0 -0.95573107612E-01  0.17703516511E-02  0.31706493746E-01  0.10071204451E+00  0.51100000000E-03 0. -1.
</event>
<event>
 8    1  0.1054086E+005  0.1043930E+01  0.7957747E-01            NaN
         13   -1    0    0    0    0  0.00000000000E+00  0.00000000000E+00  0.74505805969E-08  0.10566000000E+00  0.10566000000E+00 0.  1.
     999900   -1    0    0    0    0 -0.00000000000E+00 -0.00000000000E+00 -0.74505805969E-08  0.93827000000E+00  0.93827000000E+00 0.  1.
     999902    2    1    2    0    0 -0.74818147471E-02 -0.13001433341E-01  0.18746746536E-01  0.10199205159E+01  0.10196378786E+01 0.  0.
     999903    2    3    3    0    0 -0.97026942993E-01  0.65747936218E-01 -0.49612703493E-01  0.12925065136E+00  0.22523138014E-01 0.  0.
         14    1    1    2    0    0  0.74818147471E-02  0.13001433341E-01 -0.18746746536E-01  0.24009484095E-01  0.00000000000E+00 0. -1.
     999901    1    3    3    0    0  0.89545128245E-01 -0.78749369558E-01  0.68359450029E-01  0.89066986454E+00  0.88000000000E+00 0.  1.
        -11    1    4    4    0    0 -0.66735450292E-01  0.51177596890E-01 -0.25508370748E-01  0.87884610987E-01  0.51100000000E-03 0.  1.
         11    1    4    4    0    0 -0.30291492700E-01  0.14570339328E-01 -0.24104332745E-01  0.41366040374E-01  0.51100000000E-03 0. -1.
</event>
<event>
 8    1  0.1054086E+005  0.1043930E+01  0.7957747E-01            NaN
         13   -1    0    0    0    0  0.00000000000E+00  0.00000000000E+00  0.74505805969E-08  0.10566000000E+00  0.10566000000E+00 0. -1.
     999900   -1    0    0    0    0 -0.00000000000E+00 -0.00000000000E+00 -0.74505805969E-08  0.93827000000E+00  0.93827000000E+00 0.  1.
     999902    2    1    2    0    0 -0.25390083471E-02 -0.11887077981E-01 -0.17867334806E-01  0.10223200292E+01  0.10220916061E+01 0.  0.
     999903    2    3    3    0    0  0.14162125475E-01  0.89536328705E-01 -0.95084141261E-01  0.13297866024E+00  0.20615775581E-01 0.  0.
         14    1    1    2    0    0  0.25390083471E-02  0.11887077981E-01  0.17867334806E-01  0.21609970832E-01  0.00000000000E+00 0. -1.
     999901    1    3    3    0    0 -0.16701133823E-01 -0.10142340669E+00  0.77216806455E-01  0.88934136893E+00  0.88000000000E+00 0. -1.
        -11    1    4    4    0    0 -0.52451079186E-03  0.16158065786E-01 -0.28693847042E-01  0.32938673024E-01  0.51100000000E-03 0.  1.
         11    1    4    4    0    0  0.14686636267E-01  0.73378262919E-01 -0.66390294219E-01  0.10003998721E+00  0.51100000000E-03 0. -1.
</event>
<event>
 8    1  0.1054086E+005  0.1043930E+01  0.7957747E-01            NaN
         13   -1    0    0    0    0  0.00000000000E+00  0.00000000000E+00  0.74505805969E-08  0.10566000000E+00  0.10566000000E+00 0. -1.
     999900   -1    0    0    0    0 -0.00000000000E+00 -0.00000000000E+00 -0.74505805969E-08  0.93827000000E+00  0.93827000000E+00 0.  1.
     999902    2    1    2    0    0 -0.58900008988E-04  0.23637909568E-01  0.82834755694E-04  0.10202918719E+01  0.10200180110E+01 0.  0.
     999903    2    3    3    0    0  0.74650426722E-01  0.83143363319E-01 -0.68414557488E-01  0.13247754714E+00  0.19602136258E-01 0.  0.
         14    1    1    2    0    0  0.58900008988E-04 -0.23637909568E-01 -0.82834755694E-04  0.23638128089E-01  0.00000000000E+00 0.  1.
     999901    1    3    3    0    0 -0.74709326731E-01 -0.59505453752E-01  0.68497392244E-01  0.88781432477E+00  0.88000000000E+00 0.  1.
        -11    1    4    4    0    0  0.87153845906E-02  0.13706801653E-01 -0.18038384161E-01  0.24279183764E-01  0.51100000000E-03 0.  1.
         11    1    4    4    0    0  0.65935042132E-01  0.69436561666E-01 -0.50376173327E-01  0.10819836337E+00  0.51100000000E-03 0. -1.
</event>
<event>
 8    1  0.1054086E+005  0.1043930E+01  0.7957747E-01            NaN
         13   -1    0    0    0    0  0.00000000000E+00  0.00000000000E+00  0.74505805969E-08  0.10566000000E+00  0.10566000000E+00 0. -1.
     999900   -1    0    0    0    0 -0.00000000000E+00 -0.00000000000E+00 -0.74505805969E-08  0.93827000000E+00  0.93827000000E+00 0.  1.
     999902    2    1    2    0    0 -0.51994908429E-02 -0.15977952543E-01 -0.15897177560E-01  0.10207988537E+01  0.10205367460E+01 0.  0.
     999903    2    3    3    0    0 -0.76633692075E-01 -0.82089893827E-01  0.65770756741E-01  0.13167384264E+00  0.20018365663E-01 0.  0.
         14    1    1    2    0    0  0.51994908429E-02  0.15977952543E-01  0.15897177560E-01  0.23131146251E-01  0.00000000000E+00 0. -1.
     999901    1    3    3    0    0  0.71434201232E-01  0.66111941284E-01 -0.81667934301E-01  0.88912501111E+00  0.88000000000E+00 0.  1.
        -11    1    4    4    0    0 -0.33185179514E-01 -0.40742982747E-01  0.41534621075E-01  0.66982330890E-01  0.51100000000E-03 0. -1.
         11    1    4    4    0    0 -0.43448512561E-01 -0.41346911080E-01  0.24236135665E-01  0.64691511751E-01  0.51100000000E-03 0.  1.
</event>
<event>
 8    1  0.1054086E+005  0.1043930E+01  0.7957747E-01            NaN
         13   -1    0    0    0    0  0.00000000000E+00  0.00000000000E+00  0.74505805969E-08  0.10566000000E+00  0.10566000000E+00 0. -1.
     999900   -1    0    0    0    0 -0.00000000000E+00 -0.00000000000E+00 -0.74505805969E-08  0.93827000000E+00  0.93827000000E+00 0.  1.
     999902    2    1    2    0    0  0.10212864164E-01  0.20719817811E-01  0.74253260579E-02  0.10196658513E+01  0.10193771134E+01 0.  0.
     999903    2    3    3    0    0 -0.51833717117E-01  0.92927692573E-01 -0.73497727874E-01  0.13083949252E+00  0.19868732283E-01 0.  0.
         14    1    1    2    0    0 -0.10212864164E-01 -0.20719817811E-01 -0.74253260579E-02  0.24264148690E-01  0.00000000000E+00 0.  1.
     999901    1    3    3    0    0  0.62046581281E-01 -0.72207874762E-01  0.80923053932E-01  0.88882635879E+00  0.88000000000E+00 0. -1.
        -11    1    4    4    0    0 -0.49962496098E-02  0.26448634033E-01 -0.18501030758E-01  0.32665609017E-01  0.51100000000E-03 0.  1.
         11    1    4    4    0    0 -0.46837467507E-01  0.66479058541E-01 -0.54996697117E-01  0.98173883501E-01  0.51100000000E-03 0. -1.
</event>
<event>
 8    1  0.1054086E+005  0.1043930E+01  0.7957747E-01            NaN
         13   -1    0    0    0    0  0.00000000000E+00  0.00000000000E+00  0.74505805969E-08  0.10566000000E+00  0.10566000000E+00 0.  1.
     999900   -1    0    0    0    0 -0.00000000000E+00 -0.00000000000E+00 -0.74505805969E-08  0.93827000000E+00  0.93827000000E+00 0.  1.
     999902    2    1    2    0    0  0.93981782723E-03 -0.20768639090E-02 -0.23005734905E-01  0.10208115991E+01  0.10205497834E+01 0.  0.
     999903    2    3    3    0    0  0.27268362002E-01 -0.79534703318E-02 -0.12941815468E+00  0.13399068719E+00  0.19940517436E-01 0.  0.
         14    1    1    2    0    0 -0.93981782723E-03  0.20768639090E-02  0.23005734905E-01  0.23118400891E-01  0.00000000000E+00 0.  1.
     999901    1    3    3    0    0 -0.26328544174E-01  0.58766064228E-02  0.10641241977E+00  0.88682091192E+00  0.88000000000E+00 0. -1.
        -11    1    4    4    0    0  0.15300221657E-02 -0.83972514210E-02 -0.41908812664E-01  0.42772239819E-01  0.51100000000E-03 0.  1.
         11    1    4    4    0    0  0.25738339836E-01  0.44378108927E-03 -0.87509342015E-01  0.91218447367E-01  0.51100000000E-03 0. -1.
</event>
<event>
 8    1  0.1054086E+005  0.1043930E+01  0.7957747E-01            NaN
         13   -1    0    0    0    0  0.00000000000E+00  0.00000000000E+00  0.74505805969E-08  0.10566000000E+00  0.10566000000E+00 0.  1.
     999900   -1    0    0    0    0 -0.00000000000E+00 -0.00000000000E+00 -0.74505805969E-08  0.93827000000E+00  0.93827000000E+00 0.  1.
     999902    2    1    2    0    0  0.23974984809E-01 -0.19494627898E-02  0.55581119491E-03  0.10198694674E+01  0.10195856126E+01 0.  0.
     999903    2    3    3    0    0  0.68258365423E-01  0.10318509436E+00 -0.38715813937E-01  0.13163720419E+00  0.22870748356E-01 0.  0.
         14    1    1    2    0    0 -0.23974984809E-01  0.19494627898E-02 -0.55581119491E-03  0.24060532576E-01  0.00000000000E+00 0. -1.
     999901    1    3    3    0    0 -0.44283380614E-01 -0.10513455715E+00  0.39271625132E-01  0.88823226323E+00  0.88000000000E+00 0. -1.
        -11    1    4    4    0    0  0.60978634880E-01  0.88591932973E-01 -0.25233187249E-01  0.11047126033E+00  0.51100000000E-03 0. -1.
         11    1    4    4    0    0  0.72797305436E-02  0.14593161387E-01 -0.13482626688E-01  0.21165943860E-01  0.51100000000E-03 0.  1.
</event>
<event>
 8    1  0.1054086E+005  0.1043930E+01  0.7957747E-01            NaN
         13   -1    0    0    0    0  0.00000000000E+00  0.00000000000E+00  0.74505805969E-08  0.10566000000E+00  0.10566000000E+00 0. -1.
     999900   -1    0    0    0    0 -0.00000000000E+00 -0.00000000000E+00 -0.74505805969E-08  0.93827000000E+00  0.93827000000E+00 0. -1.
     999902    2    1    2    0    0 -0.24954172425E-01  0.69310471573E-02 -0.47642223565E-02  0.10175966001E+01  0.10172558147E+01 0.  0.
     999903    2    3    3    0    0  0.10795235916E+00 -0.45323303748E-01  0.38920994478E-01  0.12501435654E+00  0.20145267922E-01 0.  0.
         14    1    1    2    0    0  0.24954172425E-01 -0.69310471573E-02  0.47642223565E-02  0.26333399909E-01  0.00000000000E+00 0. -1.
     999901    1    3    3    0    0 -0.13290653159E+00  0.52254350906E-01 -0.43685216835E-01  0.89258224355E+00  0.88000000000E+00 0.  1.
        -11    1    4    4    0    0  0.10222829451E+00 -0.38375974059E-01  0.39133087878E-01  0.11599568643E+00  0.51100000000E-03 0.  1.
         11    1    4    4    0    0  0.57240646536E-02 -0.69473296895E-02 -0.21209339987E-03  0.90186701117E-02  0.51100000000E-03 0. -1.
</event>
<event>
 8    1  0.1096119E+005  0.1043930E+01  0.7957747E-01            NaN
         13   -1    0    0    0    0  0.00000000000E+00  0.00000000000E+00  0.74505805969E-08  0.10566000000E+00  0.10566000000E+00 0. -1.
     999900   -1    0    0    0    0 -0.00000000000E+00 -0.00000000000E+00 -0.74505805969E-08  0.93827000000E+00  0.93827000000E+00 0. -1.
     999902    2    1    2    0    0  0.11088052192E-01  0.31964099181E-02  0.21162487710E-01  0.10198257924E+01  0.10195408937E+01 0.  0.
     999903    2    3    3    0    0  0.10127138583E+00  0.10966753682E-01  0.83165617012E-01  0.13301250881E+00  0.19991107356E-01 0.  0.
         14    1    1    2    0    0 -0.11088052192E-01 -0.31964099181E-02 -0.21162487710E-01  0.24104207596E-01  0.00000000000E+00 0.  1.
     999901    1    3    3    0    0 -0.90183333640E-01 -0.77703437637E-02 -0.62003129302E-01  0.88681328359E+00  0.88000000000E+00 0. -1.
        -11    1    4    4    0    0  0.50574966391E-01  0.30974741199E-02  0.53759894693E-01  0.73876985386E-01  0.51100000000E-03 0.  1.
         11    1    4    4    0    0  0.50696419440E-01  0.78692795618E-02  0.29405722319E-01  0.59135523427E-01  0.51100000000E-03 0. -1.
</event>
<event>
 8    1  0.1054086E+005  0.1043930E+01  0.7957747E-01            NaN
         13   -1    0    0    0    0  0.00000000000E+00  0.00000000000E+00  0.74505805969E-08  0.10566000000E+00  0.10566000000E+00 0. -1.
     999900   -1    0    0    0    0 -0.00000000000E+00 -0.00000000000E+00 -0.74505805969E-08  0.93827000000E+00  0.93827000000E+00 0.  1.
     999902    2    1    2    0    0 -0.15172453677E-01 -0.13174428449E-01  0.10604965794E-01  0.10212092118E+01  0.10209564242E+01 0.  0.
     999903    2    3    3    0    0 -0.10223458521E-01 -0.12033884735E+00 -0.50540595736E-01  0.13258809745E+00  0.20959353070E-01 0.  0.
         14    1    1    2    0    0  0.15172453677E-01  0.13174428449E-01 -0.10604965794E-01  0.22720788170E-01  0.00000000000E+00 0.  1.
     999901    1    3    3    0    0 -0.49489951563E-02  0.10716441890E+00  0.61145561530E-01  0.88862111438E+00  0.88000000000E+00 0. -1.
        -11    1    4    4    0    0  0.32299462506E-02 -0.41754430869E-01 -0.96290710360E-02  0.42974936649E-01  0.51100000000E-03 0.  1.
         11    1    4    4    0    0 -0.13453404772E-01 -0.78584416484E-01 -0.40911524700E-01  0.89613160799E-01  0.51100000000E-03 0. -1.
</event>
<event>
 8    1  0.1054086E+005  0.1043930E+01  0.7957747E-01            NaN
         13   -1    0    0    0    0  0.00000000000E+00  0.00000000000E+00  0.74505805969E-08  0.10566000000E+00  0.10566000000E+00 0.  1.
     999900   -1    0    0    0    0 -0.00000000000E+00 -0.00000000000E+00 -0.74505805969E-08  0.93827000000E+00  0.93827000000E+00 0.  1.
     999902    2    1    2    0    0 -0.14203266111E-01  0.23457735211E-01 -0.11346778235E-01  0.10142526099E+01  0.10138183314E+01 0.  0.
     999903    2    3    3    0    0 -0.78679195202E-01 -0.93685538534E-01  0.54793832694E-02  0.12399264124E+00  0.19410191952E-01 0.  0.
         14    1    1    2    0    0  0.14203266111E-01 -0.23457735211E-01  0.11346778235E-01  0.29677390144E-01  0.00000000000E+00 0.  1.
     999901    1    3    3    0    0  0.64475929091E-01  0.11714327374E+00 -0.16826161505E-01  0.89025996862E+00  0.88000000000E+00 0.  1.
        -11    1    4    4    0    0 -0.41753352310E-01 -0.35558780620E-01 -0.70167688143E-03  0.54850002550E-01  0.51100000000E-03 0.  1.
         11    1    4    4    0    0 -0.36925842892E-01 -0.58126757913E-01  0.61810601508E-02  0.69142638686E-01  0.51100000000E-03 0. -1.
</event>
<event>
 8    1  0.1054086E+005  0.1043930E+01  0.7957747E-01            NaN
         13   -1    0    0    0    0  0.00000000000E+00  0.00000000000E+00  0.74505805969E-08  0.10566000000E+00  0.10566000000E+00 0.  1.
     999900   -1    0    0    0    0 -0.00000000000E+00 -0.00000000000E+00 -0.74505805969E-08  0.93827000000E+00  0.93827000000E+00 0. -1.
     999902    2    1    2    0    0 -0.15858295529E-02  0.16924457466E-01  0.14337255540E-01  0.10216924414E+01  0.10214504079E+01 0.  0.
     999903    2    3    3    0    0  0.68227528658E-01 -0.72487123488E-01  0.83545998592E-01  0.13171593278E+00  0.21442348943E-01 0.  0.
         14    1    1    2    0    0  0.15858295529E-02 -0.16924457466E-01 -0.14337255540E-01  0.22237558596E-01  0.00000000000E+00 0.  1.
     999901    1    3    3    0    0 -0.69813358211E-01  0.89411580954E-01 -0.69208743052E-01  0.88997650863E+00  0.88000000000E+00 0.  1.
        -11    1    4    4    0    0  0.48221579050E-01 -0.61277223367E-01  0.56744207893E-01  0.96438503929E-01  0.51100000000E-03 0. -1.
         11    1    4    4    0    0  0.20005949608E-01 -0.11209900121E-01  0.26801790699E-01  0.35277428848E-01  0.51100000000E-03 0.  1.
</event>
<event>
 8    1  0.1054086E+005  0.1043930E+01  0.7957747E-01            NaN
         13   -1    0    0    0    0  0.00000000000E+00  0.00000000000E+00  0.74505805969E-08  0.10566000000E+00  0.10566000000E+00 0. -1.
     999900   -1    0    0    0    0 -0.00000000000E+00 -0.00000000000E+00 -0.74505805969E-08  0.93827000000E+00  0.93827000000E+00 0. -1.
     999902    2    1    2    0    0 -0.24792378802E-01 -0.14425228895E-01 -0.17080810687E-01  0.10105458216E+01  0.10099942347E+01 0.  0.
     999903    2    3    3    0    0  0.45644928249E-01  0.99323481111E-01 -0.45164158347E-01  0.11999045684E+00  0.20231044399E-01 0.  0.
         14    1    1    2    0    0  0.24792378802E-01  0.14425228895E-01  0.17080810687E-01  0.33384178424E-01  0.00000000000E+00 0.  1.
     999901    1    3    3    0    0 -0.70437307050E-01 -0.11374871001E+00  0.28083347660E-01  0.89055536474E+00  0.88000000000E+00 0. -1.
        -11    1    4    4    0    0  0.35433421269E-03  0.16642790359E-01 -0.40412548751E-02  0.17137703628E-01  0.51100000000E-03 0.  1.
         11    1    4    4    0    0  0.45290594036E-01  0.82680690752E-01 -0.41122903472E-01  0.10285275321E+00  0.51100000000E-03 0. -1.
</event>
<event>
 8    1  0.1054086E+005  0.1043930E+01  0.7957747E-01            NaN
         13   -1    0    0    0    0  0.00000000000E+00  0.00000000000E+00  0.74505805969E-08  0.10566000000E+00  0.10566000000E+00 0.  1.
     999900   -1    0    0    0    0 -0.00000000000E+00 -0.00000000000E+00 -0.74505805969E-08  0.93827000000E+00  0.93827000000E+00 0.  1.
     999902    2    1    2    0    0 -0.47113864825E-02 -0.17511428472E-01 -0.15106959631E-01  0.10203277222E+01  0.10200547010E+01 0.  0.
     999903    2    3    3    0    0 -0.12903042855E-01 -0.83323876555E-01  0.97672582866E-01  0.13065496954E+00  0.20528777428E-01 0.  0.
         14    1    1    2    0    0  0.47113864825E-02  0.17511428472E-01  0.15106959631E-01  0.23602277836E-01  0.00000000000E+00 0.  1.
     999901    1    3    3    0    0  0.81916563727E-02  0.65812448082E-01 -0.11277954250E+00  0.88967275262E+00  0.88000000000E+00 0.  1.
        -11    1    4    4    0    0 -0.89981920344E-02 -0.62516382686E-01  0.58336182923E-01  0.85980445003E-01  0.51100000000E-03 0. -1.
         11    1    4    4    0    0 -0.39048508208E-02 -0.20807493869E-01  0.39336399944E-01  0.44674524537E-01  0.51100000000E-03 0.  1.
</event>
<event>
 8    1  0.1054086E+005  0.1043930E+01  0.7957747E-01            NaN
         13   -1    0    0    0    0  0.00000000000E+00  0.00000000000E+00  0.74505805969E-08  0.10566000000E+00  0.10566000000E+00 0.  1.
     999900   -1    0    0    0    0 -0.00000000000E+00 -0.00000000000E+00 -0.74505805969E-08  0.93827000000E+00  0.93827000000E+00 0.  1.
     999902    2    1    2    0    0 -0.21205877540E-01  0.98865169961E-02  0.74818522710E-03  0.10205207659E+01  0.10202522440E+01 0.  0.
     999903    2    3    3    0    0  0.19668312551E-01 -0.96111423876E-01  0.82432225114E-01  0.12946602837E+00  0.18496822592E-01 0.  0.
         14    1    1    2    0    0  0.21205877540E-01 -0.98865169961E-02 -0.74818522710E-03  0.23409234112E-01  0.00000000000E+00 0. -1.
     999901    1    3    3    0    0 -0.40874190091E-01  0.10599794087E+00 -0.81684039887E-01  0.89105473752E+00  0.88000000000E+00 0.  1.
        -11    1    4    4    0    0  0.21269984578E-01 -0.79440384025E-01  0.74335384987E-01  0.11085665267E+00  0.51100000000E-03 0. -1.
         11    1    4    4    0    0 -0.16016720277E-02 -0.16671039851E-01  0.80968401278E-02  0.18609375703E-01  0.51100000000E-03 0.  1.
</event>
<event>
 8    1  0.1054086E+005  0.1043930E+01  0.7957747E-01            NaN
         13   -1    0    0    0    0  0.00000000000E+00  0.00000000000E+00  0.74505805969E-08  0.10566000000E+00  0.10566000000E+00 0.  1.
     999900   -1    0    0    0    0 -0.00000000000E+00 -0.00000000000E+00 -0.74505805969E-08  0.93827000000E+00  0.93827000000E+00 0.  1.
     999902    2    1    2    0    0 -0.16212556774E-01 -0.15504257059E-01  0.84590877841E-02  0.10199553227E+01  0.10196735140E+01 0.  0.
     999903    2    3    3    0    0 -0.70141212550E-01  0.47225687008E-01 -0.96540160747E-01  0.12986084011E+00  0.19843889381E-01 0.  0.
         14    1    1    2    0    0  0.16212556774E-01  0.15504257059E-01 -0.84590877841E-02  0.23974677270E-01  0.00000000000E+00 0. -1.
     999901    1    3    3    0    0  0.53928655777E-01 -0.62729944066E-01  0.10499924853E+00  0.89009448262E+00  0.88000000000E+00 0. -1.
        -11    1    4    4    0    0 -0.59022640173E-01  0.33738492236E-01 -0.66504466857E-01  0.95105536875E-01  0.51100000000E-03 0.  1.
         11    1    4    4    0    0 -0.11118572377E-01  0.13487194772E-01 -0.30035693891E-01  0.34755303236E-01  0.51100000000E-03 0. -1.
</event>
<event>
 8    1  0.1054086E+005  0.1043930E+01  0.7957747E-01            NaN
         13   -1    0    0    0    0  0.00000000000E+00  0.00000000000E+00  0.74505805969E-08  0.10566000000E+00  0.10566000000E+00 0. -1.
     999900   -1    0    0    0    0 -0.00000000000E+00 -0.00000000000E+00 -0.74505805969E-08  0.93827000000E+00  0.93827000000E+00 0. -1.
     999902    2    1    2    0    0 -0.64999322894E-02  0.18228386490E-01  0.13387481732E-01  0.10203981522E+01  0.10201267770E+01 0.  0.
     999903    2    3    3    0    0 -0.10750183597E+00  0.59709503738E-01 -0.43368288360E-01  0.13183566983E+00  0.19441343309E-01 0.  0.
         14    1    1    2    0    0  0.64999322894E-02 -0.18228386490E-01 -0.13387481732E-01  0.23531847801E-01  0.00000000000E+00 0.  1.
     999901    1    3    3    0    0  0.10100190368E+00 -0.41481117249E-01  0.56755770093E-01  0.88856248237E+00  0.88000000000E+00 0.  1.
        -11    1    4    4    0    0 -0.31016377725E-01  0.14015714548E-01 -0.34791522460E-02  0.34217269950E-01  0.51100000000E-03 0.  1.
         11    1    4    4    0    0 -0.76485458249E-01  0.45693789190E-01 -0.39889136114E-01  0.97618399880E-01  0.51100000000E-03 0. -1.
</event>
<event>
 8    1  0.1054086E+005  0.1043930E+01  0.7957747E-01            NaN
         13   -1    0    0    0    0  0.00000000000E+00  0.00000000000E+00  0.74505805969E-08  0.10566000000E+00  0.10566000000E+00 0.  1.
     999900   -1    0    0    0    0 -0.00000000000E+00 -0.00000000000E+00 -0.74505805969E-08  0.93827000000E+00  0.93827000000E+00 0. -1.
     999902    2    1    2    0    0  0.19678220289E-01  0.87920350328E-02  0.85372127961E-02  0.10207477603E+01  0.10204844800E+01 0.  0.
     999903    2    3    3    0    0 -0.11839201103E+00 -0.70320404841E-02  0.46721438077E-01  0.12902368574E+00  0.19952464428E-01 0.  0.
         14    1    1    2    0    0 -0.19678220289E-01 -0.87920350328E-02 -0.85372127961E-02  0.23182239670E-01  0.00000000000E+00 0. -1.
     999901    1    3    3    0    0  0.13807023132E+00  0.15824075517E-01 -0.38184225281E-01  0.89172407459E+00  0.88000000000E+00 0.  1.
        -11    1    4    4    0    0 -0.68135216850E-01 -0.12474562903E-01  0.32456108363E-01  0.76496291322E-01  0.51100000000E-03 0. -1.
         11    1    4    4    0    0 -0.50256794181E-01  0.54425224193E-02  0.14265329714E-01  0.52527394419E-01  0.51100000000E-03 0.  1.
</event>
<event>
 8    1  0.1054086E+005  0.1043930E+01  0.7957747E-01            NaN
         13   -1    0    0    0    0  0.00000000000E+00  0.00000000000E+00  0.74505805969E-08  0.10566000000E+00  0.10566000000E+00 0.  1.
     999900   -1    0    0    0    0 -0.00000000000E+00 -0.00000000000E+00 -0.74505805969E-08  0.93827000000E+00  0.93827000000E+00 0. -1.
     999902    2    1    2    0    0 -0.47894143198E-02  0.10778670733E-01 -0.20436013551E-01  0.10203344733E+01  0.10200616101E+01 0.  0.
     999903    2    3    3    0    0 -0.11069212409E+00 -0.46390853495E-01 -0.50681920519E-01  0.13162836136E+00  0.18775271617E-01 0.  0.
         14    1    1    2    0    0  0.47894143198E-02 -0.10778670733E-01  0.20436013551E-01  0.23595526740E-01  0.00000000000E+00 0.  1.
     999901    1    3    3    0    0  0.10590270977E+00  0.57169524228E-01  0.30245906969E-01  0.88870611190E+00  0.88000000000E+00 0. -1.
        -11    1    4    4    0    0 -0.64555101099E-01 -0.24470302112E-01 -0.19337997164E-01  0.71696415661E-01  0.51100000000E-03 0.  1.
         11    1    4    4    0    0 -0.46137022989E-01 -0.21920551383E-01 -0.31343923355E-01  0.59931945701E-01  0.51100000000E-03 0. -1.
</event>
<event>
 8    1  0.1054086E+005  0.1043930E+01  0.7957747E-01            NaN
         13   -1    0    0    0    0  0.00000000000E+00  0.00000000000E+00  0.74505805969E-08  0.10566000000E+00  0.10566000000E+00 0.  1.
     999900   -1    0    0    0    0 -0.00000000000E+00 -0.00000000000E+00 -0.74505805969E-08  0.93827000000E+00  0.93827000000E+00 0.  1.
     999902    2    1    2    0    0  0.13215110206E-01 -0.11633554064E-01 -0.17333624286E-01  0.10192230526E+01  0.10189235485E+01 0.  0.
     999903    2    3    3    0    0 -0.60356303987E-01  0.22550105188E-01 -0.11209670241E+00  0.13042537231E+00  0.17138155581E-01 0.  0.
         14    1    1    2    0    0 -0.13215110206E-01  0.11633554064E-01  0.17333624286E-01  0.24706947379E-01  0.00000000000E+00 0.  1.
     999901    1    3    3    0    0  0.73571414193E-01 -0.34183659252E-01  0.94763078124E-01  0.88879768031E+00  0.88000000000E+00 0. -1.
        -11    1    4    4    0    0 -0.40511190755E-01  0.19949480013E-01 -0.64008308455E-01  0.78335579410E-01  0.51100000000E-03 0.  1.
         11    1    4    4    0    0 -0.19845113232E-01  0.26006251750E-02 -0.48088393955E-01  0.52089792903E-01  0.51100000000E-03 0. -1.
</event>
<event>
 8    1  0.1054086E+005  0.1043930E+01  0.7957747E-01            NaN
         13   -1    0    0    0    0  0.00000000000E+00  0.00000000000E+00  0.74505805969E-08  0.10566000000E+00  0.10566000000E+00 0. -1.
     999900   -1    0    0    0    0 -0.00000000000E+00 -0.00000000000E+00 -0.74505805969E-08  0.93827000000E+00  0.93827000000E+00 0. -1.
     999902    2    1    2    0    0  0.23944554197E-01  0.69803611435E-04  0.17042476692E-02  0.10199247712E+01  0.10196422353E+01 0.  0.
     999903    2    3    3    0    0  0.84060914596E-01 -0.34606900424E-01  0.93936669032E-01  0.13238701421E+00  0.20936781556E-01 0.  0.
         14    1    1    2    0    0 -0.23944554197E-01 -0.69803611435E-04 -0.17042476692E-02  0.24005228771E-01  0.00000000000E+00 0. -1.
     999901    1    3    3    0    0 -0.60116360399E-01  0.34676704036E-01 -0.92232421363E-01  0.88753775702E+00  0.88000000000E+00 0. -1.
        -11    1    4    4    0    0  0.23409217068E-01 -0.30705454884E-02  0.15062571415E-01  0.28010031631E-01  0.51100000000E-03 0. -1.
         11    1    4    4    0    0  0.60651697529E-01 -0.31536354936E-01  0.78874097617E-01  0.10437698258E+00  0.51100000000E-03 0.  1.
</event>
<event>
 8    1  0.1054086E+005  0.1043930E+01  0.7957747E-01            NaN
         13   -1    0    0    0    0  0.00000000000E+00  0.00000000000E+00  0.74505805969E-08  0.10566000000E+00  0.10566000000E+00 0.  1.
     999900   -1    0    0    0    0 -0.00000000000E+00 -0.00000000000E+00 -0.74505805969E-08  0.93827000000E+00  0.93827000000E+00 0.  1.
     999902    2    1    2    0    0  0.10593461937E-01 -0.20333148496E-01 -0.54864424568E-02  0.10203554499E+01  0.10200830773E+01 0.  0.
     999903    2    3    3    0    0 -0.31377208933E-01  0.11461691748E+00  0.42805792753E-01  0.12777200978E+00  0.19281690213E-01 0.  0.
         14    1    1    2    0    0 -0.10593461937E-01  0.20333148496E-01  0.54864424568E-02  0.23574550142E-01  0.00000000000E+00 0.  1.
     999901    1    3    3    0    0  0.41970670870E-01 -0.13495006597E+00 -0.48292235210E-01  0.89258344008E+00  0.88000000000E+00 0.  1.
        -11    1    4    4    0    0 -0.43027340551E-02  0.33771674744E-01  0.46530359203E-02  0.34364973441E-01  0.51100000000E-03 0.  1.
         11    1    4    4    0    0 -0.27074474878E-01  0.80845242735E-01  0.38152756833E-01  0.93407036339E-01  0.51100000000E-03 0. -1.
</event>
<event>
 8    1  0.1054086E+005  0.1043930E+01  0.7957747E-01            NaN
         13   -1    0    0    0    0  0.00000000000E+00  0.00000000000E+00  0.74505805969E-08  0.10566000000E+00  0.10566000000E+00 0. -1.
     999900   -1    0    0    0    0 -0.00000000000E+00 -0.00000000000E+00 -0.74505805969E-08  0.93827000000E+00  0.93827000000E+00 0. -1.
     999902    2    1    2    0    0 -0.55618203719E-02  0.22737793445E-01  0.17066433813E-02  0.10204597267E+01  0.10201897863E+01 0.  0.
     999903    2    3    3    0    0  0.11862247755E+00  0.42458020320E-01 -0.29417138383E-01  0.13097711475E+00  0.20387763162E-01 0.  0.
         14    1    1    2    0    0  0.55618203719E-02 -0.22737793445E-01 -0.17066433813E-02  0.23470273288E-01  0.00000000000E+00 0. -1.
     999901    1    3    3    0    0 -0.12418429792E+00 -0.19720226876E-01  0.31123781765E-01  0.88948261197E+00  0.88000000000E+00 0. -1.
        -11    1    4    4    0    0  0.10020082697E+00  0.27533335497E-01 -0.23800982709E-01  0.10660693312E+00  0.51100000000E-03 0.  1.
         11    1    4    4    0    0  0.18421650578E-01  0.14924684824E-01 -0.56161556748E-02  0.24370181630E-01  0.51100000000E-03 0. -1.
</event>
<event>
 8    1  0.1054086E+005  0.1043930E+01  0.7957747E-01            NaN
         13   -1    0    0    0    0  0.00000000000E+00  0.00000000000E+00  0.74505805969E-08  0.10566000000E+00  0.10566000000E+00 0.  1.
     999900   -1    0    0    0    0 -0.00000000000E+00 -0.00000000000E+00 -0.74505805969E-08  0.93827000000E+00  0.93827000000E+00 0.  1.
     999902    2    1    2    0    0  0.16969169983E-01 -0.16080794555E-01  0.28900183944E-02  0.10203737505E+01  0.10201018056E+01 0.  0.
     999903    2    3    3    0    0 -0.29035510821E-01  0.10936973206E+00  0.57734063731E-01  0.12859903984E+00  0.19992292397E-01 0.  0.
         14    1    1    2    0    0 -0.16969169983E-01  0.16080794555E-01 -0.28900183944E-02  0.23556249484E-01  0.00000000000E+00 0.  1.
     999901    1    3    3    0    0  0.46004680804E-01 -0.12545052661E+00 -0.54844045337E-01  0.89177471067E+00  0.88000000000E+00 0.  1.
        -11    1    4    4    0    0 -0.10437007892E-01  0.45331506354E-01  0.34737884037E-01  0.58059093262E-01  0.51100000000E-03 0.  1.
         11    1    4    4    0    0 -0.18598502929E-01  0.64038225703E-01  0.22996179694E-01  0.70539946583E-01  0.51100000000E-03 0. -1.
</event>
<event>
 8    1  0.1054086E+005  0.1043930E+01  0.7957747E-01            NaN
         13   -1    0    0    0    0  0.00000000000E+00  0.00000000000E+00  0.74505805969E-08  0.10566000000E+00  0.10566000000E+00 0.  1.
     999900   -1    0    0    0    0 -0.00000000000E+00 -0.00000000000E+00 -0.74505805969E-08  0.93827000000E+00  0.93827000000E+00 0.  1.
     999902    2    1    2    0    0 -0.10303084228E-01  0.17688307874E-01  0.80469650793E-02  0.10219349227E+01  0.10216981955E+01 0.  0.
     999903    2    3    3    0    0  0.32434727483E-01 -0.13922616289E-01 -0.12393291493E+00  0.13050659700E+00  0.20658016993E-01 0.  0.
         14    1    1    2    0    0  0.10303084228E-01 -0.17688307874E-01 -0.80469650793E-02  0.21995077337E-01  0.00000000000E+00 0.  1.
     999901    1    3    3    0    0 -0.42737811711E-01  0.31610924163E-01  0.13197988001E+00  0.89142832567E+00  0.88000000000E+00 0. -1.
        -11    1    4    4    0    0  0.15622757446E-01 -0.17563901440E-02 -0.84417362647E-01  0.85870295759E-01  0.51100000000E-03 0. -1.
         11    1    4    4    0    0  0.16811970037E-01 -0.12166226145E-01 -0.39515552279E-01  0.44636301237E-01  0.51100000000E-03 0.  1.
</event>
<event>
 8    1  0.1054086E+005  0.1043930E+01  0.7957747E-01            NaN
         13   -1    0    0    0    0  0.00000000000E+00  0.00000000000E+00  0.74505805969E-08  0.10566000000E+00  0.10566000000E+00 0. -1.
     999900   -1    0    0    0    0 -0.00000000000E+00 -0.00000000000E+00 -0.74505805969E-08  0.93827000000E+00  0.93827000000E+00 0.  1.
     999902    2    1    2    0    0 -0.26850055651E-02 -0.18810746207E-01 -0.14404499197E-01  0.10200858597E+01  0.10198071476E+01 0.  0.
     999903    2    3    3    0    0  0.84117981454E-01 -0.99142378614E-01  0.52717049780E-02  0.13195575512E+00  0.21897132094E-01 0.  0.
         14    1    1    2    0    0  0.26850055651E-02  0.18810746207E-01  0.14404499197E-01  0.23844140263E-01  0.00000000000E+00 0. -1.
     999901    1    3    3    0    0 -0.86802987020E-01  0.80331632407E-01 -0.19676204175E-01  0.88813010462E+00  0.88000000000E+00 0. -1.
        -11    1    4    4    0    0  0.68040626689E-01 -0.85503756942E-01  0.11726563668E-01  0.10990083142E+00  0.51100000000E-03 0.  1.
         11    1    4    4    0    0  0.16077354766E-01 -0.13638621672E-01 -0.64548586898E-02  0.22054923693E-01  0.51100000000E-03 0. -1.
</event>
<event>
 8    1  0.1054086E+005  0.1043930E+01  0.7957747E-01            NaN
         13   -1    0    0    0    0  0.00000000000E+00  0.00000000000E+00  0.74505805969E-08  0.10566000000E+00  0.10566000000E+00 0.  1.
     999900   -1    0    0    0    0 -0.00000000000E+00 -0.00000000000E+00 -0.74505805969E-08  0.93827000000E+00  0.93827000000E+00 0. -1.
     999902    2    1    2    0    0  0.17852854488E-01 -0.13821237183E-01 -0.68148712502E-02  0.10203462454E+01  0.10200736577E+01 0.  0.
     999903    2    3    3    0    0  0.12216916912E+00 -0.21870871382E-01  0.42646247081E-01  0.13276915448E+00  0.20132190463E-01 0.  0.
         14    1    1    2    0    0 -0.17852854488E-01  0.13821237183E-01  0.68148712502E-02  0.23583754595E-01  0.00000000000E+00 0. -1.
     999901    1    3    3    0    0 -0.10431631463E+00  0.80496341995E-02 -0.49461118331E-01  0.88757709093E+00  0.88000000000E+00 0. -1.
        -11    1    4    4    0    0  0.60908886299E-01 -0.67239660133E-02  0.11332203550E-01  0.62320013699E-01  0.51100000000E-03 0. -1.
         11    1    4    4    0    0  0.61260282821E-01 -0.15146905369E-01  0.31314043531E-01  0.70449140781E-01  0.51100000000E-03 0.  1.
</event>
<event>
 8    1  0.1054086E+005  0.1043930E+01  0.7957747E-01            NaN
         13   -1    0    0    0    0  0.00000000000E+00  0.00000000000E+00  0.74505805969E-08  0.10566000000E+00  0.10566000000E+00 0.  1.
     999900   -1    0    0    0    0 -0.00000000000E+00 -0.00000000000E+00 -0.74505805969E-08  0.93827000000E+00  0.93827000000E+00 0.  1.
     999902    2    1    2    0    0  0.59077094049E-02 -0.14410422386E-02  0.21320072369E-01  0.10217596793E+01  0.10215191233E+01 0.  0.
     999903    2    3    3    0    0 -0.93458067961E-01  0.16147721124E-01 -0.85923055864E-01  0.12952427829E+00  0.19965163959E-01 0.  0.
         14    1    1    2    0    0 -0.59077094049E-02  0.14410422386E-02 -0.21320072369E-01  0.22170320678E-01  0.00000000000E+00 0. -1.
     999901    1    3    3    0    0  0.99365777366E-01 -0.17588763363E-01  0.10724312823E+00  0.89223540104E+00  0.88000000000E+00 0. -1.
        -11    1    4    4    0    0 -0.39329494603E-01  0.89049349077E-03 -0.46136565432E-01  0.60633702800E-01  0.51100000000E-03 0. -1.
         11    1    4    4    0    0 -0.54128573358E-01  0.15257227634E-01 -0.39786490432E-01  0.68890575486E-01  0.51100000000E-03 0.  1.
</event>
<event>
 8    1  0.1054086E+005  0.1043930E+01  0.7957747E-01            NaN
         13   -1    0    0    0    0  0.00000000000E+00  0.00000000000E+00  0.74505805969E-08  0.10566000000E+00  0.10566000000E+00 0.  1.
     999900   -1    0    0    0    0 -0.00000000000E+00 -0.00000000000E+00 -0.74505805969E-08  0.93827000000E+00  0.93827000000E+00 0.  1.
     999902    2    1    2    0    0  0.64803996584E-02 -0.65223877792E-02 -0.22247874457E-01  0.10198570891E+01  0.10195729386E+01 0.  0.
     999903    2    3    3    0    0 -0.80565831855E-01  0.37751542974E-01  0.88917816986E-01  0.12750343816E+00  0.20849851459E-01 0.  0.
         14    1    1    2    0    0 -0.64803996584E-02  0.65223877792E-02  0.22247874457E-01  0.24072910915E-01  0.00000000000E+00 0.  1.
     999901    1    3    3    0    0  0.87046231513E-01 -0.44273930753E-01 -0.11116569144E+00  0.89235365092E+00  0.88000000000E+00 0.  1.
        -11    1    4    4    0    0 -0.78321073819E-01  0.37085419614E-01  0.78878100308E-01  0.11718163159E+00  0.51100000000E-03 0.  1.
         11    1    4    4    0    0 -0.22447580352E-02  0.66612335944E-03  0.10039716678E-01  0.10321806573E-01  0.51100000000E-03 0. -1.
</event>
<event>
 8    1  0.1054086E+005  0.1043930E+01  0.7957747E-01            NaN
         13   -1    0    0    0    0  0.00000000000E+00  0.00000000000E+00  0.74505805969E-08  0.10566000000E+00  0.10566000000E+00 0. -1.
     999900   -1    0    0    0    0 -0.00000000000E+00 -0.00000000000E+00 -0.74505805969E-08  0.93827000000E+00  0.93827000000E+00 0. -1.
     999902    2    1    2    0    0  0.18065364774E-02 -0.22174151261E-01 -0.72612427689E-02  0.10205273889E+01  0.10202590207E+01 0.  0.
     999903    2    3    3    0    0  0.76924243911E-01  0.31845152772E-01 -0.99052668010E-01  0.13092836638E+00  0.19983819126E-01 0.  0.
         14    1    1    2    0    0 -0.18065364774E-02  0.22174151261E-01  0.72612427689E-02  0.23402611067E-01  0.00000000000E+00 0. -1.
     999901    1    3    3    0    0 -0.75117707433E-01 -0.54019304034E-01  0.91791425241E-01  0.88959902255E+00  0.88000000000E+00 0.  1.
        -11    1    4    4    0    0  0.43244949256E-01  0.22602204992E-01 -0.43860104502E-01  0.65612157368E-01  0.51100000000E-03 0.  1.
         11    1    4    4    0    0  0.33679294655E-01  0.92429477805E-02 -0.55192563508E-01  0.65316209012E-01  0.51100000000E-03 0. -1.
</event>
<event>
 8    1  0.1054086E+005  0.1043930E+01  0.7957747E-01            NaN
         13   -1    0    0    0    0  0.00000000000E+00  0.00000000000E+00  0.74505805969E-08  0.10566000000E+00  0.10566000000E+00 0. -1.
     999900   -1    0    0    0    0 -0.00000000000E+00 -0.00000000000E+00 -0.74505805969E-08  0.93827000000E+00  0.93827000000E+00 0. -1.
     999902    2    1    2    0    0  0.14842490641E-01 -0.10709480215E-01  0.15370457419E-01  0.10200293001E+01  0.10197492484E+01 0.  0.
     999903    2    3    3    0    0  0.11883254946E+00  0.21748100458E-01 -0.46858178232E-01  0.13113120134E+00  0.20138232582E-01 0.  0.
         14    1    1    2    0    0 -0.14842490641E-01  0.10709480215E-01 -0.15370457419E-01  0.23900699909E-01  0.00000000000E+00 0.  1.
     999901    1    3    3    0    0 -0.10399005882E+00 -0.32457580673E-01  0.62228635650E-01  0.88889809876E+00  0.88000000000E+00 0. -1.
        -11    1    4    4    0    0  0.25582136321E-01 -0.14767537845E-02 -0.41319816081E-02  0.25960756797E-01  0.51100000000E-03 0. -1.
         11    1    4    4    0    0  0.93250413140E-01  0.23224854243E-01 -0.42726196624E-01  0.10517044454E+00  0.51100000000E-03 0.  1.
</event>
<event>
 8    1  0.1054086E+005  0.1043930E+01  0.7957747E-01            NaN
         13   -1    0    0    0    0  0.00000000000E+00  0.00000000000E+00  0.74505805969E-08  0.10566000000E+00  0.10566000000E+00 0. -1.
     999900   -1    0    0    0    0 -0.00000000000E+00 -0.00000000000E+00 -0.74505805969E-08  0.93827000000E+00  0.93827000000E+00 0. -1.
     999902    2    1    2    0    0 -0.96130369281E-02  0.20480933478E-01  0.64481557330E-02  0.10204043156E+01  0.10201330842E+01 0.  0.
     999903    2    3    3    0    0  0.12699379449E+00  0.12643573022E-01  0.15259702126E-01  0.12978627514E+00  0.18009301171E-01 0.  0.
         14    1    1    2    0    0  0.96130369281E-02 -0.20480933478E-01 -0.64481557330E-02  0.23525684421E-01  0.00000000000E+00 0.  1.
     999901    1    3    3    0    0 -0.13660683141E+00  0.78373604564E-02 -0.88115463927E-02  0.89061804044E+00  0.88000000000E+00 0. -1.
        -11    1    4    4    0    0  0.89778136078E-01  0.40494150008E-02  0.17351321054E-01  0.91530546501E-01  0.51100000000E-03 0.  1.
         11    1    4    4    0    0  0.37215658408E-01  0.85941580211E-02 -0.20916189282E-02  0.38255728638E-01  0.51100000000E-03 0. -1.
</event>
<event>
 8    1  0.1054086E+005  0.1043930E+01  0.7957747E-01            NaN
         13   -1    0    0    0    0  0.00000000000E+00  0.00000000000E+00  0.74505805969E-08  0.10566000000E+00  0.10566000000E+00 0.  1.
     999900   -1    0    0    0    0 -0.00000000000E+00 -0.00000000000E+00 -0.74505805969E-08  0.93827000000E+00  0.93827000000E+00 0.  1.
     999902    2    1    2    0    0  0.74520455630E-02  0.21688216829E-01  0.71791255676E-03  0.10209860001E+01  0.10207281643E+01 0.  0.
     999903    2    3    3    0    0  0.42603149486E-02  0.12974696055E+00 -0.22923918238E-01  0.13405544173E+00  0.24350182211E-01 0.  0.
         14    1    1    2    0    0 -0.74520455630E-02 -0.21688216829E-01 -0.71791255676E-03  0.22943999885E-01  0.00000000000E+00 0. -1.
     999901    1    3    3    0    0  0.31917306143E-02 -0.10805874372E+00  0.23641830795E-01  0.88693055839E+00  0.88000000000E+00 0. -1.
        -11    1    4    4    0    0  0.78749748884E-02  0.83925789905E-01 -0.41351222814E-02  0.84397356581E-01  0.51100000000E-03 0.  1.
         11    1    4    4    0    0 -0.36146599398E-02  0.45821170645E-01 -0.18788795957E-01  0.49658085145E-01  0.51100000000E-03 0. -1.
</event>
<event>
 8    1  0.1054086E+005  0.1043930E+01  0.7957747E-01            NaN
         13   -1    0    0    0    0  0.00000000000E+00  0.00000000000E+00  0.74505805969E-08  0.10566000000E+00  0.10566000000E+00 0. -1.
     999900   -1    0    0    0    0 -0.00000000000E+00 -0.00000000000E+00 -0.74505805969E-08  0.93827000000E+00  0.93827000000E+00 0. -1.
     999902    2    1    2    0    0  0.17343792968E-01 -0.16886565206E-01  0.30175276843E-02  0.10195359697E+01  0.10192440948E+01 0.  0.
     999903    2    3    3    0    0  0.65053450638E-02  0.21282497824E-01 -0.12582144854E+00  0.12926981228E+00  0.19605693686E-01 0.  0.
         14    1    1    2    0    0 -0.17343792968E-01  0.16886565206E-01 -0.30175276843E-02  0.24394030259E-01  0.00000000000E+00 0.  1.
     999901    1    3    3    0    0  0.10838447904E-01 -0.38169063029E-01  0.12883897623E+00  0.89026615746E+00  0.88000000000E+00 0.  1.
        -11    1    4    4    0    0 -0.63633556077E-02  0.85699802547E-02 -0.62758660462E-01  0.63661977979E-01  0.51100000000E-03 0.  1.
         11    1    4    4    0    0  0.12868700671E-01  0.12712517569E-01 -0.63062788082E-01  0.65607834300E-01  0.51100000000E-03 0. -1.
</event>
<event>
 8    1  0.1054086E+005  0.1043930E+01  0.7957747E-01            NaN
         13   -1    0    0    0    0  0.00000000000E+00  0.00000000000E+00  0.74505805969E-08  0.10566000000E+00  0.10566000000E+00 0.  1.
     999900   -1    0    0    0    0 -0.00000000000E+00 -0.00000000000E+00 -0.74505805969E-08  0.93827000000E+00  0.93827000000E+00 0. -1.
     999902    2    1    2    0    0 -0.72695543204E-02 -0.11646772029E-01  0.20101295709E-01  0.10195875308E+01  0.10192969033E+01 0.  0.
     999903    2    3    3    0    0  0.17059592505E-01  0.11213603675E+00  0.59691677822E-01  0.12971029796E+00  0.19903380637E-01 0.  0.
         14    1    1    2    0    0  0.72695543204E-02  0.11646772029E-01 -0.20101295709E-01  0.24342469223E-01  0.00000000000E+00 0. -1.
     999901    1    3    3    0    0 -0.24329146825E-01 -0.12378280878E+00 -0.39590382113E-01  0.88987723282E+00  0.88000000000E+00 0.  1.
        -11    1    4    4    0    0  0.57112861367E-02  0.60230478097E-01  0.21241142976E-01  0.64123135896E-01  0.51100000000E-03 0.  1.
         11    1    4    4    0    0  0.11348306368E-01  0.51905558652E-01  0.38450534846E-01  0.65587162062E-01  0.51100000000E-03 0. -1.
</event>
<event>
 8    1  0.1054086E+005  0.1043930E+01  0.7957747E-01            NaN
         13   -1    0    0    0    0  0.00000000000E+00  0.00000000000E+00  0.74505805969E-08  0.10566000000E+00  0.10566000000E+00 0. -1.
     999900   -1    0    0    0    0 -0.00000000000E+00 -0.00000000000E+00 -0.74505805969E-08  0.93827000000E+00  0.93827000000E+00 0. -1.
     999902    2    1    2    0    0  0.35251042034E-02  0.14000078291E-01 -0.20120620788E-01  0.10191657529E+01  0.10188648409E+01 0.  0.
     999903    2    3    3    0    0  0.30609692181E-01  0.42792406453E-01  0.11491252159E+00  0.12798870958E+00  0.20200961784E-01 0.  0.
         14    1    1    2    0    0 -0.35251042034E-02 -0.14000078291E-01  0.20120620788E-01  0.24764247065E-01  0.00000000000E+00 0. -1.
     999901    1    3    3    0    0 -0.27084587978E-01 -0.28792328162E-01 -0.13503314237E+00  0.89117704336E+00  0.88000000000E+00 0. -1.
        -11    1    4    4    0    0  0.26491052784E-01  0.21716317411E-01  0.61128967080E-01  0.70074146850E-01  0.51100000000E-03 0. -1.
         11    1    4    4    0    0  0.41186393971E-02  0.21076089042E-01  0.53783554505E-01  0.57914562728E-01  0.51100000000E-03 0.  1.
</event>
<event>
 8    1  0.1054086E+005  0.1043930E+01  0.7957747E-01            NaN
         13   -1    0    0    0    0  0.00000000000E+00  0.00000000000E+00  0.74505805969E-08  0.10566000000E+00  0.10566000000E+00 0. -1.
     999900   -1    0    0    0    0 -0.00000000000E+00 -0.00000000000E+00 -0.74505805969E-08  0.93827000000E+00  0.93827000000E+00 0.  1.
     999902    2    1    2    0    0  0.19666662249E-01  0.13073385933E-01  0.32524470751E-03  0.10203122777E+01  0.10200388949E+01 0.  0.
     999903    2    3    3    0    0 -0.66047867732E-01  0.87068199194E-01 -0.68597239028E-01  0.13038389752E+00  0.18739994325E-01 0.  0.
         14    1    1    2    0    0 -0.19666662249E-01 -0.13073385933E-01 -0.32524470751E-03  0.23617722327E-01  0.00000000000E+00 0.  1.
     999901    1    3    3    0    0  0.85714529981E-01 -0.73994813261E-01  0.68922483735E-01  0.88992838015E+00  0.88000000000E+00 0. -1.
        -11    1    4    4    0    0 -0.22216120105E-01  0.43546843659E-01 -0.34402897756E-01  0.59780465708E-01  0.51100000000E-03 0. -1.
         11    1    4    4    0    0 -0.43831747627E-01  0.43521355535E-01 -0.34194341271E-01  0.70603431812E-01  0.51100000000E-03 0.  1.
</event>
<event>
 8    1  0.1054086E+005  0.1043930E+01  0.7957747E-01            NaN
         13   -1    0    0    0    0  0.00000000000E+00  0.00000000000E+00  0.74505805969E-08  0.10566000000E+00  0.10566000000E+00 0. -1.
     999900   -1    0    0    0    0 -0.00000000000E+00 -0.00000000000E+00 -0.74505805969E-08  0.93827000000E+00  0.93827000000E+00 0. -1.
     999902    2    1    2    0    0 -0.21482556805E-01 -0.50077215453E-02  0.86005771917E-02  0.10202541167E+01  0.10199793700E+01 0.  0.
     999903    2    3    3    0    0 -0.50796263657E-01  0.11873775698E+00  0.75858535258E-02  0.13111224583E+00  0.21306348817E-01 0.  0.
         14    1    1    2    0    0  0.21482556805E-01  0.50077215453E-02 -0.86005771917E-02  0.23675883299E-01  0.00000000000E+00 0.  1.
     999901    1    3    3    0    0  0.29313706852E-01 -0.12374547852E+00  0.10147236659E-02  0.88914187087E+00  0.88000000000E+00 0. -1.
        -11    1    4    4    0    0 -0.38175323205E-01  0.77117615092E-01 -0.38580860010E-02  0.86137261437E-01  0.51100000000E-03 0.  1.
         11    1    4    4    0    0 -0.12620940452E-01  0.41620141887E-01  0.11443939527E-01  0.44974984396E-01  0.51100000000E-03 0. -1.
</event>
<event>
 8    1  0.1054086E+005  0.1043930E+01  0.7957747E-01            NaN
         13   -1    0    0    0    0  0.00000000000E+00  0.00000000000E+00  0.74505805969E-08  0.10566000000E+00  0.10566000000E+00 0. -1.
     999900   -1    0    0    0    0 -0.00000000000E+00 -0.00000000000E+00 -0.74505805969E-08  0.93827000000E+00  0.93827000000E+00 0. -1.
     999902    2    1    2    0    0 -0.29819647822E-02  0.32310238391E-02  0.23291455229E-01  0.10202271834E+01  0.10199518039E+01 0.  0.
     999903    2    3    3    0    0  0.36322881191E-01 -0.65948951681E-01  0.10735058615E+00  0.13264807287E+00  0.20068556551E-01 0.  0.
         14    1    1    2    0    0  0.29819647822E-02 -0.32310238391E-02 -0.23291455229E-01  0.23702816619E-01  0.00000000000E+00 0.  1.
     999901    1    3    3    0    0 -0.39304845973E-01  0.69179975520E-01 -0.84059130924E-01  0.88757911051E+00  0.88000000000E+00 0. -1.
        -11    1    4    4    0    0  0.21520137056E-01 -0.56021715816E-01  0.85123907073E-01  0.10415320263E+00  0.51100000000E-03 0.  1.
         11    1    4    4    0    0  0.14802744135E-01 -0.99272358652E-02  0.22226679079E-01  0.28494870235E-01  0.51100000000E-03 0. -1.
</event>
<event>
 8    1  0.1054086E+005  0.1043930E+01  0.7957747E-01            NaN
         13   -1    0    0    0    0  0.00000000000E+00  0.00000000000E+00  0.74505805969E-08  0.10566000000E+00  0.10566000000E+00 0.  1.
     999900   -1    0    0    0    0 -0.00000000000E+00 -0.00000000000E+00 -0.74505805969E-08  0.93827000000E+00  0.93827000000E+00 0. -1.
     999902    2    1    2    0    0  0.14146505000E-01 -0.14499178658E-01  0.14230382348E-01  0.10191741206E+01  0.10188734143E+01 0.  0.
     999903    2    3    3    0    0  0.60803376044E-01 -0.24008078243E-01 -0.10963069940E+00  0.12922532969E+00  0.20170702091E-01 0.  0.
         14    1    1    2    0    0 -0.14146505000E-01  0.14499178658E-01 -0.14230382348E-01  0.24755879448E-01  0.00000000000E+00 0. -1.
     999901    1    3    3    0    0 -0.46656871044E-01  0.95088995855E-02  0.12386108175E+00  0.88994879086E+00  0.88000000000E+00 0.  1.
        -11    1    4    4    0    0  0.17280142127E-02  0.29367474295E-02 -0.46684035032E-02  0.58022091355E-02  0.51100000000E-03 0. -1.
         11    1    4    4    0    0  0.59075361831E-01 -0.26944825673E-01 -0.10496229590E+00  0.12342312055E+00  0.51100000000E-03 0.  1.
</event>
<event>
 8    1  0.1054086E+005  0.1043930E+01  0.7957747E-01            NaN
         13   -1    0    0    0    0  0.00000000000E+00  0.00000000000E+00  0.74505805969E-08  0.10566000000E+00  0.10566000000E+00 0.  1.
     999900   -1    0    0    0    0 -0.00000000000E+00 -0.00000000000E+00 -0.74505805969E-08  0.93827000000E+00  0.93827000000E+00 0.  1.
     999902    2    1    2    0    0 -0.16971764014E-01 -0.46878115472E-02 -0.27413278261E-01  0.10113492668E+01  0.10108243345E+01 0.  0.
     999903    2    3    3    0    0 -0.54199338521E-01  0.10780518363E+00 -0.70477565309E-02  0.12317399089E+00  0.23719933502E-01 0.  0.
         14    1    1    2    0    0  0.16971764014E-01  0.46878115472E-02  0.27413278261E-01  0.32580733200E-01  0.00000000000E+00 0.  1.
     999901    1    3    3    0    0  0.37227574507E-01 -0.11249299518E+00 -0.20365521730E-01  0.88817527591E+00  0.88000000000E+00 0.  1.
        -11    1    4    4    0    0 -0.16296637512E-01  0.27355470458E-01  0.83398460895E-02  0.32919846780E-01  0.51100000000E-03 0. -1.
         11    1    4    4    0    0 -0.37902701009E-01  0.80449713172E-01 -0.15387602620E-01  0.90254144108E-01  0.51100000000E-03 0.  1.
</event>
<event>
 8    1  0.1054086E+005  0.1043930E+01  0.7957747E-01            NaN
         13   -1    0    0    0    0  0.00000000000E+00  0.00000000000E+00  0.74505805969E-08  0.10566000000E+00  0.10566000000E+00 0. -1.
     999900   -1    0    0    0    0 -0.00000000000E+00 -0.00000000000E+00 -0.74505805969E-08  0.93827000000E+00  0.93827000000E+00 0. -1.
     999902    2    1    2    0    0 -0.41978728468E-02 -0.13464506469E-01  0.19556298821E-01  0.10198185112E+01  0.10195334383E+01 0.  0.
     999903    2    3    3    0    0 -0.16336136490E-01 -0.12108587508E+00  0.47604919130E-01  0.13273541385E+00  0.20586482560E-01 0.  0.
         14    1    1    2    0    0  0.41978728468E-02  0.13464506469E-01 -0.19556298821E-01  0.24111488848E-01  0.00000000000E+00 0.  1.
     999901    1    3    3    0    0  0.12138263643E-01  0.10762136861E+00 -0.28048620310E-01  0.88708309731E+00  0.88000000000E+00 0.  1.
        -11    1    4    4    0    0 -0.11661375497E-01 -0.11067782749E+00  0.48239542175E-01  0.12129667649E+00  0.51100000000E-03 0. -1.
         11    1    4    4    0    0 -0.46747609930E-02 -0.10408047591E-01 -0.63462304454E-03  0.11438737361E-01  0.51100000000E-03 0.  1.
</event>
<event>
 8    1  0.1054086E+005  0.1043930E+01  0.7957747E-01            NaN
         13   -1    0    0    0    0  0.00000000000E+00  0.00000000000E+00  0.74505805969E-08  0.10566000000E+00  0.10566000000E+00 0. -1.
     999900   -1    0    0    0    0 -0.00000000000E+00 -0.00000000000E+00 -0.74505805969E-08  0.93827000000E+00  0.93827000000E+00 0.  1.
     999902    2    1    2    0    0  0.20591082884E-01 -0.11214410163E-01  0.34902289539E-02  0.10202247814E+01  0.10199493454E+01 0.  0.
     999903    2    3    3    0    0 -0.11310870888E+00 -0.54600217684E-01 -0.18189572057E-01  0.12880570131E+00  0.22029170766E-01 0.  0.
         14    1    1    2    0    0 -0.20591082884E-01  0.11214410163E-01 -0.34902289539E-02  0.23705218577E-01  0.00000000000E+00 0.  1.
     999901    1    3    3    0    0  0.13369979176E+00  0.43385807520E-01  0.21679801011E-01  0.89141908011E+00  0.88000000000E+00 0. -1.
        -11    1    4    4    0    0 -0.46316330358E-01 -0.34477158698E-01 -0.91590154148E-02  0.58463882988E-01  0.51100000000E-03 0.  1.
         11    1    4    4    0    0 -0.66792378518E-01 -0.20123058985E-01 -0.90305566425E-02  0.70341818325E-01  0.51100000000E-03 0. -1.
</event>
<event>
 8    1  0.1054086E+005  0.1043930E+01  0.7957747E-01            NaN
         13   -1    0    0    0    0  0.00000000000E+00  0.00000000000E+00  0.74505805969E-08  0.10566000000E+00  0.10566000000E+00 0.  1.
     999900   -1    0    0    0    0 -0.00000000000E+00 -0.00000000000E+00 -0.74505805969E-08  0.93827000000E+00  0.93827000000E+00 0. -1.
     999902    2    1    2    0    0 -0.58248515778E-02 -0.42034464426E-02 -0.10975485308E-01  0.10308128686E+01  0.10307294073E+01 0.  0.
     999903    2    3    3    0    0  0.12637692731E+00  0.50429829118E-01  0.18551973283E-01  0.13877364530E+00  0.19991335516E-01 0.  0.
         14    1    1    2    0    0  0.58248515778E-02  0.42034464426E-02  0.10975485308E-01  0.13117131380E-01  0.00000000000E+00 0.  1.
     999901    1    3    3    0    0 -0.13220177888E+00 -0.54633275560E-01 -0.29527458592E-01  0.89203922332E+00  0.88000000000E+00 0. -1.
        -11    1    4    4    0    0  0.38514963981E-01  0.68459508331E-02  0.96275077219E-02  0.40289198542E-01  0.51100000000E-03 0.  1.
         11    1    4    4    0    0  0.87861963325E-01  0.43583878285E-01  0.89244655615E-02  0.98484446753E-01  0.51100000000E-03 0. -1.
</event>
<event>
 8    1  0.1054086E+005  0.1043930E+01  0.7957747E-01            NaN
         13   -1    0    0    0    0  0.00000000000E+00  0.00000000000E+00  0.74505805969E-08  0.10566000000E+00  0.10566000000E+00 0.  1.
     999900   -1    0    0    0    0 -0.00000000000E+00 -0.00000000000E+00 -0.74505805969E-08  0.93827000000E+00  0.93827000000E+00 0.  1.
     999902    2    1    2    0    0 -0.80754784271E-02  0.13598713531E-01 -0.17608918907E-01  0.10202611938E+01  0.10199866132E+01 0.  0.
     999903    2    3    3    0    0  0.51989724254E-01 -0.95232075851E-01 -0.68707652054E-01  0.13005725660E+00  0.20544314166E-01 0.  0.
         14    1    1    2    0    0  0.80754784271E-02 -0.13598713531E-01  0.17608918907E-01  0.23668806193E-01  0.00000000000E+00 0.  1.
     999901    1    3    3    0    0 -0.60065202681E-01  0.10883078938E+00  0.51098733148E-01  0.89020393721E+00  0.88000000000E+00 0. -1.
        -11    1    4    4    0    0  0.30525828750E-01 -0.34974313103E-01 -0.27313965921E-01  0.53864112851E-01  0.51100000000E-03 0.  1.
         11    1    4    4    0    0  0.21463895504E-01 -0.60257762748E-01 -0.41393686133E-01  0.76193143748E-01  0.51100000000E-03 0. -1.
</event>
<event>
 8    1  0.1054086E+005  0.1043930E+01  0.7957747E-01            NaN
         13   -1    0    0    0    0  0.00000000000E+00  0.00000000000E+00  0.74505805969E-08  0.10566000000E+00  0.10566000000E+00 0.  1.
     999900   -1    0    0    0    0 -0.00000000000E+00 -0.00000000000E+00 -0.74505805969E-08  0.93827000000E+00  0.93827000000E+00 0. -1.
     999902    2    1    2    0    0 -0.19196497264E-02 -0.17613398712E-01 -0.15687794450E-01  0.10202651788E+01  0.10199906917E+01 0.  0.
     999903    2    3    3    0    0  0.80342664021E-02  0.73663196731E-01  0.10212707828E+00  0.12767857705E+00  0.19520833248E-01 0.  0.
         14    1    1    2    0    0  0.19196497264E-02  0.17613398712E-01  0.15687794450E-01  0.23664821232E-01  0.00000000000E+00 0. -1.
     999901    1    3    3    0    0 -0.99539161284E-02 -0.91276595443E-01 -0.11781487273E+00  0.89258660171E+00  0.88000000000E+00 0. -1.
        -11    1    4    4    0    0  0.13696474893E-01  0.35967730440E-01  0.50015779613E-01  0.63111887857E-01  0.51100000000E-03 0. -1.
         11    1    4    4    0    0 -0.56622084910E-02  0.37695466291E-01  0.52111298670E-01  0.64566689198E-01  0.51100000000E-03 0.  1.
</event>
<event>
 8    1  0.1054086E+005  0.1043930E+01  0.7957747E-01            NaN
         13   -1    0    0    0    0  0.00000000000E+00  0.00000000000E+00  0.74505805969E-08  0.10566000000E+00  0.10566000000E+00 0. -1.
     999900   -1    0    0    0    0 -0.00000000000E+00 -0.00000000000E+00 -0.74505805969E-08  0.93827000000E+00  0.93827000000E+00 0. -1.
     999902    2    1    2    0    0 -0.67542511620E-03 -0.23323874741E-01 -0.41846424665E-02  0.10202240817E+01  0.10199486292E+01 0.  0.
     999903    2    3    3    0    0  0.10764452819E+00 -0.73877863830E-01 -0.25036724273E-02  0.13214089650E+00  0.20240181298E-01 0.  0.
         14    1    1    2    0    0  0.67542511620E-03  0.23323874741E-01  0.41846424665E-02  0.23705918346E-01  0.00000000000E+00 0.  1.
     999901    1    3    3    0    0 -0.10831995330E+00  0.50553989088E-01 -0.16809700392E-02  0.88808318516E+00  0.88000000000E+00 0.  1.
        -11    1    4    4    0    0  0.77725550088E-01 -0.49673824683E-01  0.69633070664E-02  0.92506749815E-01  0.51100000000E-03 0. -1.
         11    1    4    4    0    0  0.29918978100E-01 -0.24204039147E-01 -0.94669794937E-02  0.39634146683E-01  0.51100000000E-03 0.  1.
</event>
<event>
 8    1  0.1054086E+005  0.1043930E+01  0.7957747E-01            NaN
         13   -1    0    0    0    0  0.00000000000E+00  0.00000000000E+00  0.74505805969E-08  0.10566000000E+00  0.10566000000E+00 0.  1.
     999900   -1    0    0    0    0 -0.00000000000E+00 -0.00000000000E+00 -0.74505805969E-08  0.93827000000E+00  0.93827000000E+00 0.  1.
     999902    2    1    2    0    0  0.16621141980E-01  0.10859393025E-01 -0.10195174398E-01  0.10216111658E+01  0.10213673403E+01 0.  0.
     999903    2    3    3    0    0  0.10139199348E+00  0.54777074378E-02  0.82904563046E-01  0.13263275163E+00  0.20197490218E-01 0.  0.
         14    1    1    2    0    0 -0.16621141980E-01 -0.10859393025E-01  0.10195174398E-01  0.22318834168E-01  0.00000000000E+00 0.  1.
     999901    1    3    3    0    0 -0.84770851498E-01  0.53816855875E-02 -0.93099737444E-01  0.88897841420E+00  0.88000000000E+00 0.  1.
        -11    1    4    4    0    0  0.41057982542E-01 -0.36108932133E-02  0.43878636048E-01  0.60202926031E-01  0.51100000000E-03 0.  1.
         11    1    4    4    0    0  0.60334010936E-01  0.90886006512E-02  0.39025926998E-01  0.72429825600E-01  0.51100000000E-03 0. -1.
</event>
<event>
 8    1  0.1054086E+005  0.1043930E+01  0.7957747E-01            NaN
         13   -1    0    0    0    0  0.00000000000E+00  0.00000000000E+00  0.74505805969E-08  0.10566000000E+00  0.10566000000E+00 0.  1.
     999900   -1    0    0    0    0 -0.00000000000E+00 -0.00000000000E+00 -0.74505805969E-08  0.93827000000E+00  0.93827000000E+00 0.  1.
     999902    2    1    2    0    0  0.22299313248E-01  0.52291981747E-03  0.72786027235E-02  0.10204670319E+01  0.10201972614E+01 0.  0.
     999903    2    3    3    0    0  0.12029258360E+00 -0.49173829438E-01  0.20003865161E-01  0.13354291998E+00  0.23349211673E-01 0.  0.
         14    1    1    2    0    0 -0.22299313248E-01 -0.52291981747E-03 -0.72786027235E-02  0.23462968143E-01  0.00000000000E+00 0.  1.
     999901    1    3    3    0    0 -0.97993270351E-01  0.49696749256E-01 -0.12725262437E-01  0.88692411187E+00  0.88000000000E+00 0. -1.
        -11    1    4    4    0    0  0.30571259529E-01 -0.20961269921E-02  0.28781950335E-02  0.30782150432E-01  0.51100000000E-03 0.  1.
         11    1    4    4    0    0  0.89721324069E-01 -0.47077702446E-01  0.17125670127E-01  0.10276076955E+00  0.51100000000E-03 0. -1.
</event>
<event>
 8    1  0.1054086E+005  0.1043930E+01  0.7957747E-01            NaN
         13   -1    0    0    0    0  0.00000000000E+00  0.00000000000E+00  0.74505805969E-08  0.10566000000E+00  0.10566000000E+00 0. -1.
     999900   -1    0    0    0    0 -0.00000000000E+00 -0.00000000000E+00 -0.74505805969E-08  0.93827000000E+00  0.93827000000E+00 0.  1.
     999902    2    1    2    0    0 -0.13565922591E-01 -0.17466559991E-02 -0.19142529324E-01  0.10204029625E+01  0.10201316996E+01 0.  0.
     999903    2    3    3    0    0  0.98036621881E-01 -0.76797575753E-01 -0.32232438977E-01  0.13008890883E+00  0.19368717227E-01 0.  0.
         14    1    1    2    0    0  0.13565922591E-01  0.17466559991E-02  0.19142529324E-01  0.23527037465E-01  0.00000000000E+00 0. -1.
     999901    1    3    3    0    0 -0.11160254447E+00  0.75050919754E-01  0.13089909653E-01  0.89031405370E+00  0.88000000000E+00 0.  1.
        -11    1    4    4    0    0  0.68019575313E-01 -0.63999959570E-01 -0.24067543874E-01  0.96447733203E-01  0.51100000000E-03 0. -1.
         11    1    4    4    0    0  0.30017046568E-01 -0.12797616183E-01 -0.81648951030E-02  0.33641175628E-01  0.51100000000E-03 0.  1.
</event>
<event>
 8    1  0.1054086E+005  0.1043930E+01  0.7957747E-01            NaN
         13   -1    0    0    0    0  0.00000000000E+00  0.00000000000E+00  0.74505805969E-08  0.10566000000E+00  0.10566000000E+00 0.  1.
     999900   -1    0    0    0    0 -0.00000000000E+00 -0.00000000000E+00 -0.74505805969E-08  0.93827000000E+00  0.93827000000E+00 0. -1.
     999902    2    1    2    0    0 -0.22973596585E-01 -0.21998077590E-02  0.25170181496E-02  0.10207144734E+01  0.10204504278E+01 0.  0.
     999903    2    3    3    0    0  0.60670641316E-01 -0.10772761744E+00  0.34414771515E-01  0.12990027067E+00  0.20088243887E-01 0.  0.
         14    1    1    2    0    0  0.22973596585E-01  0.21998077590E-02 -0.25170181496E-02  0.23215526585E-01  0.00000000000E+00 0. -1.
     999901    1    3    3    0    0 -0.83644237901E-01  0.10552780969E+00 -0.31897753366E-01  0.89081420275E+00  0.88000000000E+00 0. -1.
        -11    1    4    4    0    0  0.47250975329E-01 -0.67011447039E-01  0.17711369265E-01  0.83887677439E-01  0.51100000000E-03 0.  1.
         11    1    4    4    0    0  0.13419665987E-01 -0.40716170405E-01  0.16703402250E-01  0.46012593226E-01  0.51100000000E-03 0. -1.
</event>
<event>
 8    1  0.1054086E+005  0.1043930E+01  0.7957747E-01            NaN
         13   -1    0    0    0    0  0.00000000000E+00  0.00000000000E+00  0.74505805969E-08  0.10566000000E+00  0.10566000000E+00 0.  1.
     999900   -1    0    0    0    0 -0.00000000000E+00 -0.00000000000E+00 -0.74505805969E-08  0.93827000000E+00  0.93827000000E+00 0.  1.
     999902    2    1    2    0    0  0.40697307594E-02 -0.45821976180E-02 -0.25688215203E-01  0.10175208417E+01  0.10171780668E+01 0.  0.
     999903    2    3    3    0    0 -0.40738469114E-01 -0.87766054068E-02 -0.12267128269E+00  0.13104970102E+00  0.19726349671E-01 0.  0.
         14    1    1    2    0    0 -0.40697307594E-02  0.45821976180E-02  0.25688215203E-01  0.26409158331E-01  0.00000000000E+00 0.  1.
     999901    1    3    3    0    0  0.44808199874E-01  0.41944077888E-02  0.96983067486E-01  0.88647114065E+00  0.88000000000E+00 0. -1.
        -11    1    4    4    0    0 -0.34581327521E-01 -0.11312642684E-01 -0.80361682113E-01  0.88216240969E-01  0.51100000000E-03 0. -1.
         11    1    4    4    0    0 -0.61571415937E-02  0.25360372769E-02 -0.42309600576E-01  0.42833460046E-01  0.51100000000E-03 0.  1.
</event>
<event>
 8    1  0.1054086E+005  0.1043930E+01  0.7957747E-01            NaN
         13   -1    0    0    0    0  0.00000000000E+00  0.00000000000E+00  0.74505805969E-08  0.10566000000E+00  0.10566000000E+00 0.  1.
     999900   -1    0    0    0    0 -0.00000000000E+00 -0.00000000000E+00 -0.74505805969E-08  0.93827000000E+00  0.93827000000E+00 0. -1.
     999902    2    1    2    0    0 -0.14569318963E-02  0.86639183021E-02 -0.21898423639E-01  0.10203349351E+01  0.10200620827E+01 0.  0.
     999903    2    3    3    0    0  0.11511845478E+00  0.23608869172E-01 -0.56036943193E-01  0.13186512082E+00  0.20943584964E-01 0.  0.
         14    1    1    2    0    0  0.14569318963E-02 -0.86639183021E-02  0.21898423639E-01  0.23595064924E-01  0.00000000000E+00 0.  1.
     999901    1    3    3    0    0 -0.11657538667E+00 -0.14944950870E-01  0.34138519554E-01  0.88846981426E+00  0.88000000000E+00 0.  1.
        -11    1    4    4    0    0  0.82910421576E-01  0.15074500100E-01 -0.50033887696E-01  0.98005252911E-01  0.51100000000E-03 0. -1.
         11    1    4    4    0    0  0.32208033203E-01  0.85343690718E-02 -0.60030554973E-02  0.33859867905E-01  0.51100000000E-03 0.  1.
</event>
<event>
 8    1  0.1054086E+005  0.1043930E+01  0.7957747E-01            NaN
         13   -1    0    0    0    0  0.00000000000E+00  0.00000000000E+00  0.74505805969E-08  0.10566000000E+00  0.10566000000E+00 0. -1.
     999900   -1    0    0    0    0 -0.00000000000E+00 -0.00000000000E+00 -0.74505805969E-08  0.93827000000E+00  0.93827000000E+00 0.  1.
     999902    2    1    2    0    0  0.18043635891E-01  0.37768611376E-02  0.23229553429E-01  0.10142744840E+01  0.10138408550E+01 0.  0.
     999903    2    3    3    0    0  0.95637076339E-01  0.79646859849E-01  0.19366861998E-01  0.12759984295E+00  0.20410093672E-01 0.  0.
         14    1    1    2    0    0 -0.18043635891E-01 -0.37768611376E-02 -0.23229553429E-01  0.29655515992E-01  0.00000000000E+00 0.  1.
     999901    1    3    3    0    0 -0.77593440448E-01 -0.75869998711E-01  0.38626914307E-02  0.88667464106E+00  0.88000000000E+00 0. -1.
        -11    1    4    4    0    0  0.19641633405E-01  0.11368714863E-01  0.10621399794E-01  0.25062256384E-01  0.51100000000E-03 0.  1.
         11    1    4    4    0    0  0.75995442933E-01  0.68278144986E-01  0.87454622039E-02  0.10253758657E+00  0.51100000000E-03 0. -1.
</event>
<event>
 8    1  0.1054086E+005  0.1043930E+01  0.7957747E-01            NaN
         13   -1    0    0    0    0  0.00000000000E+00  0.00000000000E+00  0.74505805969E-08  0.10566000000E+00  0.10566000000E+00 0. -1.
     999900   -1    0    0    0    0 -0.00000000000E+00 -0.00000000000E+00 -0.74505805969E-08  0.93827000000E+00  0.93827000000E+00 0.  1.
     999902    2    1    2    0    0 -0.15006320767E-01 -0.14852067843E-01 -0.13084775339E-01  0.10190908187E+01  0.10187880603E+01 0.  0.
     999903    2    3    3    0    0 -0.19811142117E-01 -0.35885899629E-01  0.12043855751E+00  0.12875717966E+00  0.19816307247E-01 0.  0.
         14    1    1    2    0    0  0.15006320767E-01  0.14852067843E-01  0.13084775339E-01  0.24839181304E-01  0.00000000000E+00 0. -1.
     999901    1    3    3    0    0  0.48048213500E-02  0.21033831785E-01 -0.13352333285E+00  0.89033363904E+00  0.88000000000E+00 0.  1.
        -11    1    4    4    0    0 -0.23260407649E-01 -0.27700285226E-01  0.10322519978E+00  0.10938032435E+00  0.51100000000E-03 0.  1.
         11    1    4    4    0    0  0.34492655327E-02 -0.81856144026E-02  0.17213357738E-01  0.19376855304E-01  0.51100000000E-03 0. -1.
</event>
<event>
 8    1  0.1054086E+005  0.1043930E+01  0.7957747E-01            NaN
         13   -1    0    0    0    0  0.00000000000E+00  0.00000000000E+00  0.74505805969E-08  0.10566000000E+00  0.10566000000E+00 0.  1.
     999900   -1    0    0    0    0 -0.00000000000E+00 -0.00000000000E+00 -0.74505805969E-08  0.93827000000E+00  0.93827000000E+00 0. -1.
     999902    2    1    2    0    0 -0.51382989507E-02 -0.20142273483E-01 -0.97598817953E-02  0.10209654928E+01  0.10207071906E+01 0.  0.
     999903    2    3    3    0    0  0.12355349371E+00  0.22556511916E-01 -0.30493430236E-01  0.13033950858E+00  0.16860491484E-01 0.  0.
         14    1    1    2    0    0  0.51382989507E-02  0.20142273483E-01  0.97598817953E-02  0.22964507176E-01  0.00000000000E+00 0.  1.
     999901    1    3    3    0    0 -0.12869179266E+00 -0.42698785399E-01  0.20733548441E-01  0.89062598424E+00  0.88000000000E+00 0.  1.
        -11    1    4    4    0    0  0.93532072531E-01  0.14517557462E-01 -0.15818202346E-01  0.95966060215E-01  0.51100000000E-03 0. -1.
         11    1    4    4    0    0  0.30021421177E-01  0.80389544533E-02 -0.14675227890E-01  0.34373448369E-01  0.51100000000E-03 0.  1.
</event>
<event>
 8    1  0.1290278E+005  0.1043930E+01  0.7957747E-01            NaN
         13   -1    0    0    0    0  0.00000000000E+00  0.00000000000E+00  0.74505805969E-08  0.10566000000E+00  0.10566000000E+00 0.  1.
     999900   -1    0    0    0    0 -0.00000000000E+00 -0.00000000000E+00 -0.74505805969E-08  0.93827000000E+00  0.93827000000E+00 0.  1.
     999902    2    1    2    0    0  0.16609332793E-01  0.17170695749E-01  0.35093685193E-02  0.10197842261E+01  0.10194983323E+01 0.  0.
     999903    2    3    3    0    0  0.44112092185E-01 -0.11517755518E+00  0.31013712689E-01  0.12903793776E+00  0.21844750199E-01 0.  0.
         14    1    1    2    0    0 -0.16609332793E-01 -0.17170695749E-01 -0.35093685193E-02  0.24145773869E-01  0.00000000000E+00 0.  1.
     999901    1    3    3    0    0 -0.27502759392E-01  0.13234825093E+00 -0.27504344170E-01  0.89074628837E+00  0.88000000000E+00 0.  1.
        -11    1    4    4    0    0  0.14997950801E-01 -0.68672510691E-01  0.14942998176E-01  0.71863805690E-01  0.51100000000E-03 0.  1.
         11    1    4    4    0    0  0.29114141385E-01 -0.46505044494E-01  0.16070714513E-01  0.57174132069E-01  0.51100000000E-03 0. -1.
</event>
<event>
 8    1  0.1054086E+005  0.1043930E+01  0.7957747E-01            NaN
         13   -1    0    0    0    0  0.00000000000E+00  0.00000000000E+00  0.74505805969E-08  0.10566000000E+00  0.10566000000E+00 0.  1.
     999900   -1    0    0    0    0 -0.00000000000E+00 -0.00000000000E+00 -0.74505805969E-08  0.93827000000E+00  0.93827000000E+00 0. -1.
     999902    2    1    2    0    0 -0.22759631350E-01  0.50036933363E-02 -0.45407815645E-03  0.10206224057E+01  0.10203562373E+01 0.  0.
     999903    2    3    3    0    0  0.97509687153E-01  0.20632770675E-01  0.78316208154E-01  0.12881876415E+00  0.22956376533E-01 0.  0.
         14    1    1    2    0    0  0.22759631350E-01 -0.50036933363E-02  0.45407815645E-03  0.23307594324E-01  0.00000000000E+00 0.  1.
     999901    1    3    3    0    0 -0.12026931850E+00 -0.15629077339E-01 -0.78770286311E-01  0.89180364152E+00  0.88000000000E+00 0. -1.
        -11    1    4    4    0    0  0.32777936012E-01  0.17041999367E-01  0.34641089670E-01  0.50646708148E-01  0.51100000000E-03 0. -1.
         11    1    4    4    0    0  0.64731751140E-01  0.35907713081E-02  0.43675118485E-01  0.78172056004E-01  0.51100000000E-03 0.  1.
</event>
<event>
 8    1  0.1054086E+005  0.1043930E+01  0.7957747E-01            NaN
         13   -1    0    0    0    0  0.00000000000E+00  0.00000000000E+00  0.74505805969E-08  0.10566000000E+00  0.10566000000E+00 0. -1.
     999900   -1    0    0    0    0 -0.00000000000E+00 -0.00000000000E+00 -0.74505805969E-08  0.93827000000E+00  0.93827000000E+00 0. -1.
     999902    2    1    2    0    0  0.20621870410E-01  0.60693764913E-02 -0.10979401990E-01  0.10197919359E+01  0.10195062268E+01 0.  0.
     999903    2    3    3    0    0  0.73158282207E-01  0.10330680693E+00  0.31264793352E-01  0.13187315331E+00  0.19713209948E-01 0.  0.
         14    1    1    2    0    0 -0.20621870410E-01 -0.60693764913E-02  0.10979401990E-01  0.24138064095E-01  0.00000000000E+00 0. -1.
     999901    1    3    3    0    0 -0.52536411797E-01 -0.97237430443E-01 -0.42244195342E-01  0.88791878259E+00  0.88000000000E+00 0.  1.
        -11    1    4    4    0    0  0.57486913192E-01  0.79784949197E-01  0.32518326009E-01  0.10357647394E+00  0.51100000000E-03 0. -1.
         11    1    4    4    0    0  0.15671369015E-01  0.23521857737E-01 -0.12535326577E-02  0.28296679369E-01  0.51100000000E-03 0.  1.
</event>
<event>
 8    1  0.1054086E+005  0.1043930E+01  0.7957747E-01            NaN
         13   -1    0    0    0    0  0.00000000000E+00  0.00000000000E+00  0.74505805969E-08  0.10566000000E+00  0.10566000000E+00 0.  1.
     999900   -1    0    0    0    0 -0.00000000000E+00 -0.00000000000E+00 -0.74505805969E-08  0.93827000000E+00  0.93827000000E+00 0. -1.
     999902    2    1    2    0    0 -0.80087275663E-02  0.96935704834E-02  0.19699714302E-01  0.10205594251E+01  0.10202917997E+01 0.  0.
     999903    2    3    3    0    0  0.20224644308E-01  0.64514636208E-02 -0.12516041841E+00  0.12826345821E+00  0.18322847922E-01 0.  0.
         14    1    1    2    0    0  0.80087275663E-02 -0.96935704834E-02 -0.19699714302E-01  0.23370574865E-01  0.00000000000E+00 0. -1.
     999901    1    3    3    0    0 -0.28233371875E-01  0.32421068627E-02  0.14486013271E+00  0.89229596693E+00  0.88000000000E+00 0.  1.
        -11    1    4    4    0    0  0.11560454532E-01  0.31362294973E-02 -0.10872277178E+00  0.10938181873E+00  0.51100000000E-03 0.  1.
         11    1    4    4    0    0  0.86641897767E-02  0.33152341235E-02 -0.16437646628E-01  0.18881639479E-01  0.51100000000E-03 0. -1.
</event>
<event>
 8    1  0.1054086E+005  0.1043930E+01  0.7957747E-01            NaN
         13   -1    0    0    0    0  0.00000000000E+00  0.00000000000E+00  0.74505805969E-08  0.10566000000E+00  0.10566000000E+00 0.  1.
     999900   -1    0    0    0    0 -0.00000000000E+00 -0.00000000000E+00 -0.74505805969E-08  0.93827000000E+00  0.93827000000E+00 0. -1.
     999902    2    1    2    0    0  0.16777080837E-01  0.15052217823E-01 -0.49292697437E-02  0.10208575618E+01  0.10205967980E+01 0.  0.
     999903    2    3    3    0    0  0.91619505511E-01 -0.86202663385E-01 -0.32787943495E-01  0.13145886316E+00  0.19528197552E-01 0.  0.
         14    1    1    2    0    0 -0.16777080837E-01 -0.15052217823E-01  0.49292697437E-02  0.23072438168E-01  0.00000000000E+00 0. -1.
     999901    1    3    3    0    0 -0.74842424674E-01  0.10125488121E+00  0.27858673752E-01  0.88939869867E+00  0.88000000000E+00 0.  1.
        -11    1    4    4    0    0  0.19044957894E-01 -0.13213332463E-01 -0.13203527304E-01  0.26681394833E-01  0.51100000000E-03 0.  1.
         11    1    4    4    0    0  0.72574547617E-01 -0.72989330922E-01 -0.19584416191E-01  0.10477746833E+00  0.51100000000E-03 0. -1.
</event>
<event>
 8    1  0.1054086E+005  0.1043930E+01  0.7957747E-01            NaN
         13   -1    0    0    0    0  0.00000000000E+00  0.00000000000E+00  0.74505805969E-08  0.10566000000E+00  0.10566000000E+00 0. -1.
     999900   -1    0    0    0    0 -0.00000000000E+00 -0.00000000000E+00 -0.74505805969E-08  0.93827000000E+00  0.93827000000E+00 0. -1.
     999902    2    1    2    0    0 -0.16535160310E-01 -0.13179289145E-01  0.11443315647E-01  0.10198872327E+01  0.10196038018E+01 0.  0.
     999903    2    3    3    0    0  0.76056037877E-02 -0.11850805377E+00  0.54533379111E-01  0.13223094854E+00  0.20226969557E-01 0.  0.
         14    1    1    2    0    0  0.16535160310E-01  0.13179289145E-01 -0.11443315647E-01  0.24042767350E-01  0.00000000000E+00 0.  1.
     999901    1    3    3    0    0 -0.24140764097E-01  0.10532876463E+00 -0.43090063464E-01  0.88765628411E+00  0.88000000000E+00 0. -1.
        -11    1    4    4    0    0  0.13451285704E-01 -0.93092611497E-01  0.38653488521E-01  0.10169328738E+00  0.51100000000E-03 0. -1.
         11    1    4    4    0    0 -0.58456819165E-02 -0.25415442273E-01  0.15879890590E-01  0.30537661161E-01  0.51100000000E-03 0.  1.
</event>
<event>
 8    1  0.1054086E+005  0.1043930E+01  0.7957747E-01            NaN
         13   -1    0    0    0    0  0.00000000000E+00  0.00000000000E+00  0.74505805969E-08  0.10566000000E+00  0.10566000000E+00 0.  1.
     999900   -1    0    0    0    0 -0.00000000000E+00 -0.00000000000E+00 -0.74505805969E-08  0.93827000000E+00  0.93827000000E+00 0.  1.
     999902    2    1    2    0    0  0.18841306194E-01  0.17089946931E-01 -0.78118937952E-02  0.10173200998E+01  0.10169720245E+01 0.  0.
     999903    2    3    3    0    0  0.25325023190E-01  0.83600435077E-01 -0.94880937606E-01  0.13050179707E+00  0.19948362685E-01 0.  0.
         14    1    1    2    0    0 -0.18841306194E-01 -0.17089946931E-01  0.78118937952E-02  0.26609900223E-01  0.00000000000E+00 0. -1.
     999901    1    3    3    0    0 -0.64837169955E-02 -0.66510488146E-01  0.87069043811E-01  0.88681830270E+00  0.88000000000E+00 0. -1.
        -11    1    4    4    0    0  0.11589828454E-01  0.29387930653E-01 -0.21408703929E-01  0.38165014301E-01  0.51100000000E-03 0.  1.
         11    1    4    4    0    0  0.13735194736E-01  0.54212504424E-01 -0.73472233677E-01  0.92336782773E-01  0.51100000000E-03 0. -1.
</event>
<event>
 8    1  0.1723444E+005  0.1043930E+01  0.7957747E-01            NaN
         13   -1    0    0    0    0  0.00000000000E+00  0.00000000000E+00  0.74505805969E-08  0.10566000000E+00  0.10566000000E+00 0.  1.
     999900   -1    0    0    0    0 -0.00000000000E+00 -0.00000000000E+00 -0.74505805969E-08  0.93827000000E+00  0.93827000000E+00 0.  1.
     999902    2    1    2    0    0 -0.22298036269E-01 -0.53114237770E-02 -0.61642788067E-02  0.10201936992E+01  0.10199175319E+01 0.  0.
     999903    2    3    3    0    0  0.14846977463E-01 -0.54033589303E-01 -0.11690814455E+00  0.13113925468E+00  0.19746603375E-01 0.  0.
         14    1    1    2    0    0  0.22298036269E-01  0.53114237770E-02  0.61642788067E-02  0.23736300832E-01  0.00000000000E+00 0. -1.
     999901    1    3    3    0    0 -0.37145013732E-01  0.48722165526E-01  0.11074386574E+00  0.88905444448E+00  0.88000000000E+00 0. -1.
        -11    1    4    4    0    0  0.17339175829E-01 -0.28152603053E-01 -0.72319664524E-01  0.79521136027E-01  0.51100000000E-03 0. -1.
         11    1    4    4    0    0 -0.24921983654E-02 -0.25880986250E-01 -0.44588480022E-01  0.51618118656E-01  0.51100000000E-03 0.  1.
</event>
<event>
 8    1  0.1054086E+005  0.1043930E+01  0.7957747E-01            NaN
         13   -1    0    0    0    0  0.00000000000E+00  0.00000000000E+00  0.74505805969E-08  0.10566000000E+00  0.10566000000E+00 0. -1.
     999900   -1    0    0    0    0 -0.00000000000E+00 -0.00000000000E+00 -0.74505805969E-08  0.93827000000E+00  0.93827000000E+00 0.  1.
     999902    2    1    2    0    0 -0.12417828730E-01 -0.19904666995E-01  0.42008500486E-02  0.10200962974E+01  0.10198178321E+01 0.  0.
     999903    2    3    3    0    0 -0.10821218751E-01  0.11316256969E+00 -0.55900531795E-01  0.12806400272E+00  0.18779067703E-01 0.  0.
         14    1    1    2    0    0  0.12417828730E-01  0.19904666995E-01 -0.42008500486E-02  0.23833702601E-01  0.00000000000E+00 0. -1.
     999901    1    3    3    0    0 -0.15966099794E-02 -0.13306723669E+00  0.60101381844E-01  0.89203229467E+00  0.88000000000E+00 0. -1.
        -11    1    4    4    0    0 -0.13401917086E-01  0.84113136458E-01 -0.48318521851E-01  0.97926358971E-01  0.51100000000E-03 0. -1.
         11    1    4    4    0    0  0.25806983351E-02  0.29049433236E-01 -0.75820099440E-02  0.30137643753E-01  0.51100000000E-03 0.  1.
</event>
<event>
 8    1  0.1054086E+005  0.1043930E+01  0.7957747E-01            NaN
         13   -1    0    0    0    0  0.00000000000E+00  0.00000000000E+00  0.74505805969E-08  0.10566000000E+00  0.10566000000E+00 0.  1.
     999900   -1    0    0    0    0 -0.00000000000E+00 -0.00000000000E+00 -0.74505805969E-08  0.93827000000E+00  0.93827000000E+00 0. -1.
     999902    2    1    2    0    0 -0.22617839387E-01 -0.36227041567E-02  0.11631726550E-02  0.10209943593E+01  0.10207367134E+01 0.  0.
     999903    2    3    3    0    0 -0.45706011157E-01 -0.94145005932E-01 -0.78403865128E-01  0.13247971997E+00  0.21245906386E-01 0.  0.
         14    1    1    2    0    0  0.22617839387E-01  0.36227041567E-02 -0.11631726550E-02  0.22935640706E-01  0.00000000000E+00 0. -1.
     999901    1    3    3    0    0  0.23088171770E-01  0.90522301776E-01  0.79567037783E-01  0.88851463933E+00  0.88000000000E+00 0. -1.
        -11    1    4    4    0    0 -0.38194149991E-02 -0.91277940598E-02 -0.72000248396E-03  0.99339861038E-02  0.51100000000E-03 0. -1.
         11    1    4    4    0    0 -0.41886596158E-01 -0.85017211873E-01 -0.77683862644E-01  0.12254573387E+00  0.51100000000E-03 0.  1.
</event>
<event>
 8    1  0.1054086E+005  0.1043930E+01  0.7957747E-01            NaN
         13   -1    0    0    0    0  0.00000000000E+00  0.00000000000E+00  0.74505805969E-08  0.10566000000E+00  0.10566000000E+00 0. -1.
     999900   -1    0    0    0    0 -0.00000000000E+00 -0.00000000000E+00 -0.74505805969E-08  0.93827000000E+00  0.93827000000E+00 0. -1.
     999902    2    1    2    0    0  0.18248734702E-01  0.61761432117E-02  0.14823996389E-01  0.10196213198E+01  0.10193315083E+01 0.  0.
     999903    2    3    3    0    0 -0.35253485242E-02 -0.12701576744E+00  0.17794200122E-01  0.12932753804E+00  0.16234077672E-01 0.  0.
         14    1    1    2    0    0 -0.18248734702E-01 -0.61761432117E-02 -0.14823996389E-01  0.24308680181E-01  0.00000000000E+00 0. -1.
     999901    1    3    3    0    0  0.21774083226E-01  0.13319191065E+00 -0.29702037329E-02  0.89029378178E+00  0.88000000000E+00 0.  1.
        -11    1    4    4    0    0 -0.32047430479E-03 -0.39343065999E-01  0.13093196626E-01  0.41468933732E-01  0.51100000000E-03 0. -1.
         11    1    4    4    0    0 -0.32048742194E-02 -0.87672701439E-01  0.47010034959E-02  0.87858604309E-01  0.51100000000E-03 0.  1.
</event>
<event>
 8    1  0.1054086E+005  0.1043930E+01  0.7957747E-01            NaN
         13   -1    0    0    0    0  0.00000000000E+00  0.00000000000E+00  0.74505805969E-08  0.10566000000E+00  0.10566000000E+00 0.  1.
     999900   -1    0    0    0    0 -0.00000000000E+00 -0.00000000000E+00 -0.74505805969E-08  0.93827000000E+00  0.93827000000E+00 0.  1.
     999902    2    1    2    0    0  0.71107277066E-02 -0.15635867704E-01 -0.16683598086E-01  0.10199845359E+01  0.10197034217E+01 0.  0.
     999903    2    3    3    0    0  0.11520653354E+00 -0.25416964208E-01  0.52464933683E-01  0.13062415192E+00  0.19787176658E-01 0.  0.
         14    1    1    2    0    0 -0.71107277066E-02  0.15635867704E-01  0.16683598086E-01  0.23945464132E-01  0.00000000000E+00 0.  1.
     999901    1    3    3    0    0 -0.10809580583E+00  0.97810965033E-02 -0.69148531770E-01  0.88936038395E+00  0.88000000000E+00 0.  1.
        -11    1    4    4    0    0  0.90635485305E-01 -0.11464711464E-01  0.40579472415E-01  0.99965921733E-01  0.51100000000E-03 0.  1.
         11    1    4    4    0    0  0.24571048231E-01 -0.13952252743E-01  0.11885461269E-01  0.30658230189E-01  0.51100000000E-03 0. -1.
</event>
<event>
 8    1  0.1054086E+005  0.1043930E+01  0.7957747E-01            NaN
         13   -1    0    0    0    0  0.00000000000E+00  0.00000000000E+00  0.74505805969E-08  0.10566000000E+00  0.10566000000E+00 0. -1.
     999900   -1    0    0    0    0 -0.00000000000E+00 -0.00000000000E+00 -0.74505805969E-08  0.93827000000E+00  0.93827000000E+00 0. -1.
     999902    2    1    2    0    0  0.66900848235E-02  0.19955753325E-01  0.11585679244E-01  0.10199046532E+01  0.10196216378E+01 0.  0.
     999903    2    3    3    0    0 -0.62245007383E-01 -0.10785554517E+00 -0.19293479135E-01  0.12746905474E+00  0.19205780657E-01 0.  0.
         14    1    1    2    0    0 -0.66900848235E-02 -0.19955753325E-01 -0.11585679244E-01  0.24025346809E-01  0.00000000000E+00 0.  1.
     999901    1    3    3    0    0  0.68935092207E-01  0.12781129850E+00  0.30879158379E-01  0.89243559845E+00  0.88000000000E+00 0. -1.
        -11    1    4    4    0    0 -0.33644142341E-01 -0.41187275460E-01 -0.40467062954E-02  0.53338137636E-01  0.51100000000E-03 0.  1.
         11    1    4    4    0    0 -0.28600865042E-01 -0.66668269712E-01 -0.15246772839E-01  0.74130917103E-01  0.51100000000E-03 0. -1.
</event>
<event>
 8    1  0.1054086E+005  0.1043930E+01  0.7957747E-01            NaN
         13   -1    0    0    0    0  0.00000000000E+00  0.00000000000E+00  0.74505805969E-08  0.10566000000E+00  0.10566000000E+00 0.  1.
     999900   -1    0    0    0    0 -0.00000000000E+00 -0.00000000000E+00 -0.74505805969E-08  0.93827000000E+00  0.93827000000E+00 0.  1.
     999902    2    1    2    0    0 -0.10223344233E-01 -0.17081205359E-01 -0.73879790432E-02  0.10226963809E+01  0.10224759269E+01 0.  0.
     999903    2    3    3    0    0 -0.25273496138E-01 -0.38179768393E-01  0.12292832491E+00  0.13272222654E+00  0.20183459345E-01 0.  0.
         14    1    1    2    0    0  0.10223344233E-01  0.17081205359E-01  0.73879790432E-02  0.21233619055E-01  0.00000000000E+00 0.  1.
     999901    1    3    3    0    0  0.15050151906E-01  0.21098563034E-01 -0.13031630395E+00  0.88997415441E+00  0.88000000000E+00 0.  1.
        -11    1    4    4    0    0 -0.74143476445E-02 -0.23621735812E-01  0.83049994256E-01  0.86663265693E-01  0.51100000000E-03 0.  1.
         11    1    4    4    0    0 -0.17859148494E-01 -0.14558032581E-01  0.39878330653E-01  0.46058960846E-01  0.51100000000E-03 0. -1.
</event>
<event>
 8    1  0.1054086E+005  0.1043930E+01  0.7957747E-01            NaN
         13   -1    0    0    0    0  0.00000000000E+00  0.00000000000E+00  0.74505805969E-08  0.10566000000E+00  0.10566000000E+00 0. -1.
     999900   -1    0    0    0    0 -0.00000000000E+00 -0.00000000000E+00 -0.74505805969E-08  0.93827000000E+00  0.93827000000E+00 0. -1.
     999902    2    1    2    0    0 -0.92535792406E-02 -0.13364080003E-01 -0.16790097961E-01  0.10205604738E+01  0.10202928727E+01 0.  0.
     999903    2    3    3    0    0 -0.11591697191E+00  0.37867323320E-02 -0.61615682466E-01  0.13282145661E+00  0.19848508519E-01 0.  0.
         14    1    1    2    0    0  0.92535792406E-02  0.13364080003E-01  0.16790097961E-01  0.23369526153E-01  0.00000000000E+00 0. -1.
     999901    1    3    3    0    0  0.10666339267E+00 -0.17150812335E-01  0.44825584505E-01  0.88773901724E+00  0.88000000000E+00 0.  1.
        -11    1    4    4    0    0 -0.23231720859E-01 -0.69250556832E-02 -0.15112158813E-01  0.28571099301E-01  0.51100000000E-03 0. -1.
         11    1    4    4    0    0 -0.92685251055E-01  0.10711788015E-01 -0.46503523654E-01  0.10425035731E+00  0.51100000000E-03 0.  1.
</event>
<event>
 8    1  0.1054086E+005  0.1043930E+01  0.7957747E-01            NaN
         13   -1    0    0    0    0  0.00000000000E+00  0.00000000000E+00  0.74505805969E-08  0.10566000000E+00  0.10566000000E+00 0.  1.
     999900   -1    0    0    0    0 -0.00000000000E+00 -0.00000000000E+00 -0.74505805969E-08  0.93827000000E+00  0.93827000000E+00 0. -1.
     999902    2    1    2    0    0  0.22011098863E-01 -0.76383279587E-02 -0.82943196440E-02  0.10191988806E+01  0.10188987830E+01 0.  0.
     999903    2    3    3    0    0 -0.10359361576E+00  0.19855444737E-01  0.67298673099E-01  0.12664818043E+00  0.19615664448E-01 0.  0.
         14    1    1    2    0    0 -0.22011098863E-01  0.76383279587E-02  0.82943196440E-02  0.24731119375E-01  0.00000000000E+00 0. -1.
     999901    1    3    3    0    0  0.12560471463E+00 -0.27493772696E-01 -0.75592992743E-01  0.89255070020E+00  0.88000000000E+00 0. -1.
        -11    1    4    4    0    0 -0.10707694413E-01  0.63983163954E-02  0.13822698647E-01  0.18625823236E-01  0.51100000000E-03 0. -1.
         11    1    4    4    0    0 -0.92885921350E-01  0.13457128342E-01  0.53475974453E-01  0.10802235719E+00  0.51100000000E-03 0.  1.
</event>
<event>
 8    1  0.1054086E+005  0.1043930E+01  0.7957747E-01            NaN
         13   -1    0    0    0    0  0.00000000000E+00  0.00000000000E+00  0.74505805969E-08  0.10566000000E+00  0.10566000000E+00 0. -1.
     999900   -1    0    0    0    0 -0.00000000000E+00 -0.00000000000E+00 -0.74505805969E-08  0.93827000000E+00  0.93827000000E+00 0. -1.
     999902    2    1    2    0    0 -0.55980283554E-03  0.22412258633E-01 -0.64542271678E-02  0.10206001958E+01  0.10203335140E+01 0.  0.
     999903    2    3    3    0    0  0.14545358153E-01 -0.13768879345E-01 -0.12820157522E+00  0.13135351607E+00  0.20419422430E-01 0.  0.
         14    1    1    2    0    0  0.55980283554E-03 -0.22412258633E-01  0.64542271678E-02  0.23329804212E-01  0.00000000000E+00 0.  1.
     999901    1    3    3    0    0 -0.15105160988E-01  0.36181137978E-01  0.12174734805E+00  0.88924667972E+00  0.88000000000E+00 0.  1.
        -11    1    4    4    0    0  0.10084048613E-01  0.11390463911E-02 -0.81362467353E-01  0.81994497851E-01  0.51100000000E-03 0. -1.
         11    1    4    4    0    0  0.44613095400E-02 -0.14907925736E-01 -0.46839107868E-01  0.49359018218E-01  0.51100000000E-03 0.  1.
</event>
<event>
 8    1  0.1054086E+005  0.1043930E+01  0.7957747E-01            NaN
         13   -1    0    0    0    0  0.00000000000E+00  0.00000000000E+00  0.74505805969E-08  0.10566000000E+00  0.10566000000E+00 0.  1.
     999900   -1    0    0    0    0 -0.00000000000E+00 -0.00000000000E+00 -0.74505805969E-08  0.93827000000E+00  0.93827000000E+00 0. -1.
     999902    2    1    2    0    0  0.22235589378E-01  0.68295295678E-02 -0.24239323818E-02  0.10205432654E+01  0.10202752654E+01 0.  0.
     999903    2    3    3    0    0  0.31210181674E-01  0.29286074468E-01 -0.12324807164E+00  0.13195825966E+00  0.19777399503E-01 0.  0.
         14    1    1    2    0    0 -0.22235589378E-01 -0.68295295678E-02  0.24239323818E-02  0.23386734644E-01  0.00000000000E+00 0. -1.
     999901    1    3    3    0    0 -0.89745922958E-02 -0.22456544901E-01  0.12082413926E+00  0.88858500569E+00  0.88000000000E+00 0.  1.
        -11    1    4    4    0    0  0.13206439614E-01  0.18311348199E-01 -0.38585899349E-01  0.44708480959E-01  0.51100000000E-03 0. -1.
         11    1    4    4    0    0  0.18003742060E-01  0.10974726269E-01 -0.84662172296E-01  0.87249778703E-01  0.51100000000E-03 0.  1.
</event>
<event>
 8    1  0.1054086E+005  0.1043930E+01  0.7957747E-01            NaN
         13   -1    0    0    0    0  0.00000000000E+00  0.00000000000E+00  0.74505805969E-08  0.10566000000E+00  0.10566000000E+00 0. -1.
     999900   -1    0    0    0    0 -0.00000000000E+00 -0.00000000000E+00 -0.74505805969E-08  0.93827000000E+00  0.93827000000E+00 0.  1.
     999902    2    1    2    0    0 -0.11686045196E-01 -0.20528887194E-01  0.11840712466E-01  0.10175065004E+01  0.10171633482E+01 0.  0.
     999903    2    3    3    0    0 -0.81345968782E-01 -0.79443722140E-01  0.62718996163E-01  0.13132815347E+00  0.19619882536E-01 0.  0.
         14    1    1    2    0    0  0.11686045196E-01  0.20528887194E-01 -0.11840712466E-01  0.26423499644E-01  0.00000000000E+00 0.  1.
     999901    1    3    3    0    0  0.69659923586E-01  0.58914834946E-01 -0.50878283697E-01  0.88617834688E+00  0.88000000000E+00 0.  1.
        -11    1    4    4    0    0 -0.35960595756E-01 -0.36987072884E-01  0.39528915651E-01  0.64992340327E-01  0.51100000000E-03 0. -1.
         11    1    4    4    0    0 -0.45385373026E-01 -0.42456649256E-01  0.23190080512E-01  0.66335813147E-01  0.51100000000E-03 0.  1.
</event>
<event>
 8    1  0.1054086E+005  0.1043930E+01  0.7957747E-01            NaN
         13   -1    0    0    0    0  0.00000000000E+00  0.00000000000E+00  0.74505805969E-08  0.10566000000E+00  0.10566000000E+00 0.  1.
     999900   -1    0    0    0    0 -0.00000000000E+00 -0.00000000000E+00 -0.74505805969E-08  0.93827000000E+00  0.93827000000E+00 0. -1.
     999902    2    1    2    0    0 -0.18948620471E-01  0.14095388926E-01  0.25848083571E-03  0.10203122732E+01  0.10200388904E+01 0.  0.
     999903    2    3    3    0    0 -0.14740753139E-01 -0.37080926805E-01  0.12255449248E+00  0.13037236742E+00  0.19623089045E-01 0.  0.
         14    1    1    2    0    0  0.18948620471E-01 -0.14095388926E-01 -0.25848083571E-03  0.23617726797E-01  0.00000000000E+00 0. -1.
     999901    1    3    3    0    0 -0.42078673316E-02  0.51176315731E-01 -0.12229601165E+00  0.88993990578E+00  0.88000000000E+00 0. -1.
        -11    1    4    4    0    0 -0.18066086202E-02 -0.20413670109E-01  0.83513933484E-01  0.85993139081E-01  0.51100000000E-03 0.  1.
         11    1    4    4    0    0 -0.12934144519E-01 -0.16667256696E-01  0.39040558997E-01  0.44379228340E-01  0.51100000000E-03 0. -1.
</event>
<event>
 8    1  0.1054086E+005  0.1043930E+01  0.7957747E-01            NaN
         13   -1    0    0    0    0  0.00000000000E+00  0.00000000000E+00  0.74505805969E-08  0.10566000000E+00  0.10566000000E+00 0.  1.
     999900   -1    0    0    0    0 -0.00000000000E+00 -0.00000000000E+00 -0.74505805969E-08  0.93827000000E+00  0.93827000000E+00 0. -1.
     999902    2    1    2    0    0  0.62103013368E-02  0.14038513017E-01  0.17949395845E-01  0.10203116067E+01  0.10200382082E+01 0.  0.
     999903    2    3    3    0    0 -0.45215953397E-01 -0.37042571634E-01  0.11644822070E+00  0.13185454225E+00  0.20218745134E-01 0.  0.
         14    1    1    2    0    0 -0.62103013368E-02 -0.14038513017E-01 -0.17949395845E-01  0.23618393290E-01  0.00000000000E+00 0. -1.
     999901    1    3    3    0    0  0.51426254734E-01  0.51081084651E-01 -0.98498824852E-01  0.88845706446E+00  0.88000000000E+00 0. -1.
        -11    1    4    4    0    0 -0.35357537096E-01 -0.33304203242E-01  0.10768952885E+00  0.11813814426E+00  0.51100000000E-03 0. -1.
         11    1    4    4    0    0 -0.98584163011E-02 -0.37383683915E-02  0.87586918453E-02  0.13716397998E-01  0.51100000000E-03 0.  1.
</event>
<event>
 8    1  0.1054086E+005  0.1043930E+01  0.7957747E-01            NaN
         13   -1    0    0    0    0  0.00000000000E+00  0.00000000000E+00  0.74505805969E-08  0.10566000000E+00  0.10566000000E+00 0. -1.
     999900   -1    0    0    0    0 -0.00000000000E+00 -0.00000000000E+00 -0.74505805969E-08  0.93827000000E+00  0.93827000000E+00 0. -1.
     999902    2    1    2    0    0  0.16112636546E-01 -0.58367574408E-02  0.15977599402E-01  0.10204999237E+01  0.10202309179E+01 0.  0.
     999903    2    3    3    0    0  0.75599993763E-01 -0.37402978355E-01 -0.97310155197E-01  0.13068573672E+00  0.22252047771E-01 0.  0.
         14    1    1    2    0    0 -0.16112636546E-01  0.58367574408E-02 -0.15977599402E-01  0.23430076323E-01  0.00000000000E+00 0.  1.
     999901    1    3    3    0    0 -0.59487357218E-01  0.31566220914E-01  0.11328775460E+00  0.88981418696E+00  0.88000000000E+00 0.  1.
        -11    1    4    4    0    0  0.34699306693E-01 -0.29508084611E-01 -0.52262378987E-01  0.69328106282E-01  0.51100000000E-03 0.  1.
         11    1    4    4    0    0  0.40900687071E-01 -0.78948937442E-02 -0.45047776211E-01  0.61357630435E-01  0.51100000000E-03 0. -1.
</event>
<event>
 8    1  0.1054086E+005  0.1043930E+01  0.7957747E-01            NaN
         13   -1    0    0    0    0  0.00000000000E+00  0.00000000000E+00  0.74505805969E-08  0.10566000000E+00  0.10566000000E+00 0. -1.
     999900   -1    0    0    0    0 -0.00000000000E+00 -0.00000000000E+00 -0.74505805969E-08  0.93827000000E+00  0.93827000000E+00 0. -1.
     999902    2    1    2    0    0  0.30559648462E-03 -0.23140285897E-01  0.44734347824E-03  0.10207833731E+01  0.10205209104E+01 0.  0.
     999903    2    3    3    0    0 -0.31818717995E-01  0.65662245424E-01 -0.10512359237E+00  0.12945678669E+00  0.19599200416E-01 0.  0.
         14    1    1    2    0    0 -0.30559648462E-03  0.23140285897E-01 -0.44734347824E-03  0.23146626899E-01  0.00000000000E+00 0. -1.
     999901    1    3    3    0    0  0.32124314480E-01 -0.88802531321E-01  0.10557093585E+00  0.89132658641E+00  0.88000000000E+00 0. -1.
        -11    1    4    4    0    0 -0.23142691253E-02  0.24430051523E-01 -0.28999009237E-01  0.37991932258E-01  0.51100000000E-03 0. -1.
         11    1    4    4    0    0 -0.29504448870E-01  0.41232193901E-01 -0.76124583137E-01  0.91464854429E-01  0.51100000000E-03 0.  1.
</event>
<event>
 8    1  0.1054086E+005  0.1043930E+01  0.7957747E-01            NaN
         13   -1    0    0    0    0  0.00000000000E+00  0.00000000000E+00  0.74505805969E-08  0.10566000000E+00  0.10566000000E+00 0. -1.
     999900   -1    0    0    0    0 -0.00000000000E+00 -0.00000000000E+00 -0.74505805969E-08  0.93827000000E+00  0.93827000000E+00 0.  1.
     999902    2    1    2    0    0 -0.58141017729E-02 -0.43451126365E-02 -0.23153939192E-01  0.10196650318E+01  0.10193762742E+01 0.  0.
     999903    2    3    3    0    0  0.13579556121E-01  0.92886566264E-01  0.84062094746E-01  0.12763062028E+00  0.20268717833E-01 0.  0.
         14    1    1    2    0    0  0.58141017729E-02  0.43451126365E-02  0.23153939192E-01  0.24264968233E-01  0.00000000000E+00 0. -1.
     999901    1    3    3    0    0 -0.19393657894E-01 -0.97231678900E-01 -0.10721603394E+00  0.89203441149E+00  0.88000000000E+00 0.  1.
        -11    1    4    4    0    0  0.13987032399E-01  0.78349529441E-01  0.60650431050E-01  0.10006508755E+00  0.51100000000E-03 0.  1.
         11    1    4    4    0    0 -0.40747627802E-03  0.14537036822E-01  0.23411663695E-01  0.27565532726E-01  0.51100000000E-03 0. -1.
</event>
<event>
 8    1  0.1054086E+005  0.1043930E+01  0.7957747E-01            NaN
         13   -1    0    0    0    0  0.00000000000E+00  0.00000000000E+00  0.74505805969E-08  0.10566000000E+00  0.10566000000E+00 0. -1.
     999900   -1    0    0    0    0 -0.00000000000E+00 -0.00000000000E+00 -0.74505805969E-08  0.93827000000E+00  0.93827000000E+00 0. -1.
     999902    2    1    2    0    0  0.10133387016E-01  0.91025283192E-02 -0.18855258868E-01  0.10206692532E+01  0.10204041661E+01 0.  0.
     999903    2    3    3    0    0  0.86666639258E-01  0.55789041315E-01 -0.82815963926E-01  0.13380514807E+00  0.20538020309E-01 0.  0.
         14    1    1    2    0    0 -0.10133387016E-01 -0.91025283192E-02  0.18855258868E-01  0.23260746789E-01  0.00000000000E+00 0. -1.
     999901    1    3    3    0    0 -0.76533252241E-01 -0.46686512996E-01  0.63960705058E-01  0.88686410514E+00  0.88000000000E+00 0.  1.
        -11    1    4    4    0    0  0.60278145136E-01  0.33745712956E-01 -0.65931363405E-01  0.95495726215E-01  0.51100000000E-03 0. -1.
         11    1    4    4    0    0  0.26388494122E-01  0.22043328358E-01 -0.16884600520E-01  0.38309421855E-01  0.51100000000E-03 0.  1.
</event>
<event>
 8    1  0.1054086E+005  0.1043930E+01  0.7957747E-01            NaN
         13   -1    0    0    0    0  0.00000000000E+00  0.00000000000E+00  0.74505805969E-08  0.10566000000E+00  0.10566000000E+00 0. -1.
     999900   -1    0    0    0    0 -0.00000000000E+00 -0.00000000000E+00 -0.74505805969E-08  0.93827000000E+00  0.93827000000E+00 0.  1.
     999902    2    1    2    0    0 -0.13733924705E-01 -0.30667277788E-02 -0.18371687258E-01  0.10207881678E+01  0.10205258150E+01 0.  0.
     999903    2    3    3    0    0 -0.62447514373E-01  0.41355421884E-01 -0.10912971374E+00  0.13366734139E+00  0.18646735957E-01 0.  0.
         14    1    1    2    0    0  0.13733924705E-01  0.30667277788E-02  0.18371687258E-01  0.23141832248E-01  0.00000000000E+00 0. -1.
     999901    1    3    3    0    0  0.48713589668E-01 -0.44422149662E-01  0.90758026484E-01  0.88712082636E+00  0.88000000000E+00 0. -1.
        -11    1    4    4    0    0 -0.59627239591E-01  0.35059560679E-01 -0.91316144877E-01  0.11455775806E+00  0.51100000000E-03 0. -1.
         11    1    4    4    0    0 -0.28202747819E-02  0.62958612043E-02 -0.17813568864E-01  0.19109583324E-01  0.51100000000E-03 0.  1.
</event>
<event>
 8    1  0.1054086E+005  0.1043930E+01  0.7957747E-01            NaN
         13   -1    0    0    0    0  0.00000000000E+00  0.00000000000E+00  0.74505805969E-08  0.10566000000E+00  0.10566000000E+00 0. -1.
     999900   -1    0    0    0    0 -0.00000000000E+00 -0.00000000000E+00 -0.74505805969E-08  0.93827000000E+00  0.93827000000E+00 0.  1.
     999902    2    1    2    0    0  0.12301693758E-01  0.49037830019E-02  0.19063102235E-01  0.10207183515E+01  0.10204543951E+01 0.  0.
     999903    2    3    3    0    0 -0.14662543582E-01 -0.80121258235E-01 -0.97344507143E-01  0.12858211797E+00  0.20567007236E-01 0.  0.
         14    1    1    2    0    0 -0.12301693758E-01 -0.49037830019E-02 -0.19063102235E-01  0.23211648452E-01  0.00000000000E+00 0.  1.
     999901    1    3    3    0    0  0.26964237340E-01  0.85025041236E-01  0.11640760938E+00  0.89213623357E+00  0.88000000000E+00 0. -1.
        -11    1    4    4    0    0 -0.19391421278E-01 -0.72064323997E-01 -0.87422001120E-01  0.11494416650E+00  0.51100000000E-03 0.  1.
         11    1    4    4    0    0  0.47288776957E-02 -0.80569342374E-02 -0.99225060222E-02  0.13637951471E-01  0.51100000000E-03 0. -1.
</event>
<event>
 8    1  0.1054086E+005  0.1043930E+01  0.7957747E-01            NaN
         13   -1    0    0    0    0  0.00000000000E+00  0.00000000000E+00  0.74505805969E-08  0.10566000000E+00  0.10566000000E+00 0. -1.
     999900   -1    0    0    0    0 -0.00000000000E+00 -0.00000000000E+00 -0.74505805969E-08  0.93827000000E+00  0.93827000000E+00 0. -1.
     999902    2    1    2    0    0  0.61211354248E-02 -0.16636102645E-01 -0.13904518015E-01  0.10214008227E+01  0.10211523279E+01 0.  0.
     999903    2    3    3    0    0  0.11097770626E+00 -0.48279276587E-01 -0.53092701540E-01  0.13374553787E+00  0.20544929006E-01 0.  0.
         14    1    1    2    0    0 -0.61211354248E-02  0.16636102645E-01  0.13904518015E-01  0.22529177334E-01  0.00000000000E+00 0. -1.
     999901    1    3    3    0    0 -0.10485657084E+00  0.31643173942E-01  0.39188183525E-01  0.88765528480E+00  0.88000000000E+00 0.  1.
        -11    1    4    4    0    0  0.49577580624E-01 -0.16120054532E-01 -0.13234622701E-01  0.53788558427E-01  0.51100000000E-03 0. -1.
         11    1    4    4    0    0  0.61400125637E-01 -0.32159222055E-01 -0.39858078839E-01  0.79956979440E-01  0.51100000000E-03 0.  1.
</event>
<event>
 8    1  0.1326806E+005  0.1043930E+01  0.7957747E-01            NaN
         13   -1    0    0    0    0  0.00000000000E+00  0.00000000000E+00  0.74505805969E-08  0.10566000000E+00  0.10566000000E+00 0. -1.
     999900   -1    0    0    0    0 -0.00000000000E+00 -0.00000000000E+00 -0.74505805969E-08  0.93827000000E+00  0.93827000000E+00 0.  1.
     999902    2    1    2    0    0  0.13540840619E-01  0.34357097315E-02  0.29754564572E-01  0.10110591531E+01  0.10105246748E+01 0.  0.
     999903    2    3    3    0    0  0.10277321769E+00 -0.41007813740E-01 -0.47355570295E-01  0.12208017873E+00  0.20421678114E-01 0.  0.
         14    1    1    2    0    0 -0.13540840619E-01 -0.34357097315E-02 -0.29754564572E-01  0.32870846946E-01  0.00000000000E+00 0.  1.
     999901    1    3    3    0    0 -0.89232377075E-01  0.44443523472E-01  0.77110134867E-01  0.88897897433E+00  0.88000000000E+00 0. -1.
        -11    1    4    4    0    0  0.45407796133E-01 -0.19229895157E-01 -0.10240705242E-01  0.50366556188E-01  0.51100000000E-03 0.  1.
         11    1    4    4    0    0  0.57365421562E-01 -0.21777918583E-01 -0.37114865052E-01  0.71713622539E-01  0.51100000000E-03 0. -1.
</event>
<event>
 8    1  0.1054086E+005  0.1043930E+01  0.7957747E-01            NaN
         13   -1    0    0    0    0  0.00000000000E+00  0.00000000000E+00  0.74505805969E-08  0.10566000000E+00  0.10566000000E+00 0. -1.
     999900   -1    0    0    0    0 -0.00000000000E+00 -0.00000000000E+00 -0.74505805969E-08  0.93827000000E+00  0.93827000000E+00 0. -1.
     999902    2    1    2    0    0  0.47171116229E-02  0.17316225470E-01  0.15906072184E-01  0.10199486335E+01  0.10196666657E+01 0.  0.
     999903    2    3    3    0    0 -0.68944094093E-01 -0.82608746582E-01  0.69557774833E-01  0.12961752742E+00  0.19619537525E-01 0.  0.
         14    1    1    2    0    0 -0.47171116229E-02 -0.17316225470E-01 -0.15906072184E-01  0.23981366494E-01  0.00000000000E+00 0.  1.
     999901    1    3    3    0    0  0.73661205715E-01  0.99924972052E-01 -0.53651702649E-01  0.89033110609E+00  0.88000000000E+00 0. -1.
        -11    1    4    4    0    0 -0.54638891313E-01 -0.64951606431E-01  0.44683691952E-01  0.95921911309E-01  0.51100000000E-03 0.  1.
         11    1    4    4    0    0 -0.14305202780E-01 -0.17657140151E-01  0.24874082881E-01  0.33695616111E-01  0.51100000000E-03 0. -1.
</event>
<event>
 8    1  0.1054086E+005  0.1043930E+01  0.7957747E-01            NaN
         13   -1    0    0    0    0  0.00000000000E+00  0.00000000000E+00  0.74505805969E-08  0.10566000000E+00  0.10566000000E+00 0. -1.
     999900   -1    0    0    0    0 -0.00000000000E+00 -0.00000000000E+00 -0.74505805969E-08  0.93827000000E+00  0.93827000000E+00 0. -1.
     999902    2    1    2    0    0  0.27757586965E-02 -0.16389034228E-01 -0.16272000392E-01  0.10206688032E+01  0.10204037057E+01 0.  0.
     999903    2    3    3    0    0 -0.50680322132E-01 -0.94021436360E-01  0.73614037839E-01  0.13108247108E+00  0.18843091890E-01 0.  0.
         14    1    1    2    0    0 -0.27757586965E-02  0.16389034228E-01  0.16272000392E-01  0.23261196788E-01  0.00000000000E+00 0. -1.
     999901    1    3    3    0    0  0.53456080828E-01  0.77632402133E-01 -0.89886038231E-01  0.88958633213E+00  0.88000000000E+00 0. -1.
        -11    1    4    4    0    0 -0.43602966978E-01 -0.65229710270E-01  0.48659515838E-01  0.92326287881E-01  0.51100000000E-03 0. -1.
         11    1    4    4    0    0 -0.70773551538E-02 -0.28791726091E-01  0.24954522001E-01  0.38756183204E-01  0.51100000000E-03 0.  1.
</event>
<event>
 8    1  0.1054086E+005  0.1043930E+01  0.7957747E-01            NaN
         13   -1    0    0    0    0  0.00000000000E+00  0.00000000000E+00  0.74505805969E-08  0.10566000000E+00  0.10566000000E+00 0. -1.
     999900   -1    0    0    0    0 -0.00000000000E+00 -0.00000000000E+00 -0.74505805969E-08  0.93827000000E+00  0.93827000000E+00 0.  1.
     999902    2    1    2    0    0 -0.21446772444E-02 -0.22683693696E-01  0.67463141125E-02  0.10201673748E+01  0.10198905874E+01 0.  0.
     999903    2    3    3    0    0 -0.11474554089E+00  0.41726090489E-01 -0.38411597628E-01  0.12951210383E+00  0.19756731125E-01 0.  0.
         14    1    1    2    0    0  0.21446772444E-02  0.22683693696E-01 -0.67463141125E-02  0.23762625156E-01  0.00000000000E+00 0. -1.
     999901    1    3    3    0    0  0.11260086364E+00 -0.64409784185E-01  0.45157911741E-01  0.89065527101E+00  0.88000000000E+00 0. -1.
        -11    1    4    4    0    0 -0.80329555604E-01  0.37875403563E-01 -0.31211187626E-01  0.94137043997E-01  0.51100000000E-03 0. -1.
         11    1    4    4    0    0 -0.34415985286E-01  0.38506869258E-02 -0.72004100026E-02  0.35375059833E-01  0.51100000000E-03 0.  1.
</event>
<event>
 8    1  0.1054086E+005  0.1043930E+01  0.7957747E-01            NaN
         13   -1    0    0    0    0  0.00000000000E+00  0.00000000000E+00  0.74505805969E-08  0.10566000000E+00  0.10566000000E+00 0. -1.
     999900   -1    0    0    0    0 -0.00000000000E+00 -0.00000000000E+00 -0.74505805969E-08  0.93827000000E+00  0.93827000000E+00 0.  1.
     999902    2    1    2    0    0  0.24267982205E-01 -0.39156123833E-02  0.66462838314E-02  0.10184655136E+01  0.10181471221E+01 0.  0.
     999903    2    3    3    0    0  0.36249352630E-02  0.80620724758E-01 -0.98406776728E-01  0.12795516931E+00  0.13258590872E-01 0.  0.
         14    1    1    2    0    0 -0.24267982205E-01  0.39156123833E-02 -0.66462838314E-02  0.25464486436E-01  0.00000000000E+00 0.  1.
     999901    1    3    3    0    0  0.20643046942E-01 -0.84536337141E-01  0.10505306056E+00  0.89051034425E+00  0.88000000000E+00 0. -1.
        -11    1    4    4    0    0  0.26901600225E-02  0.55753090085E-01 -0.77131087076E-01  0.95210869808E-01  0.51100000000E-03 0. -1.
         11    1    4    4    0    0  0.93477524044E-03  0.24867634673E-01 -0.21275689652E-01  0.32744299506E-01  0.51100000000E-03 0.  1.
</event>
<event>
 8    1  0.1054086E+005  0.1043930E+01  0.7957747E-01            NaN
         13   -1    0    0    0    0  0.00000000000E+00  0.00000000000E+00  0.74505805969E-08  0.10566000000E+00  0.10566000000E+00 0. -1.
     999900   -1    0    0    0    0 -0.00000000000E+00 -0.00000000000E+00 -0.74505805969E-08  0.93827000000E+00  0.93827000000E+00 0.  1.
     999902    2    1    2    0    0 -0.13330555918E-01  0.17849501664E-01 -0.43497138200E-02  0.10212313560E+01  0.10209790664E+01 0.  0.
     999903    2    3    3    0    0 -0.10149388147E+00 -0.76699411101E-01  0.25423060446E-01  0.13128827522E+00  0.20161140068E-01 0.  0.
         14    1    1    2    0    0  0.13330555918E-01 -0.17849501664E-01  0.43497138200E-02  0.22698644035E-01  0.00000000000E+00 0. -1.
     999901    1    3    3    0    0  0.88163325551E-01  0.94548912765E-01 -0.29772774266E-01  0.88994308074E+00  0.88000000000E+00 0. -1.
        -11    1    4    4    0    0 -0.75822509323E-01 -0.45732937857E-01  0.18747679005E-01  0.90511276171E-01  0.51100000000E-03 0.  1.
         11    1    4    4    0    0 -0.25671372147E-01 -0.30966473244E-01  0.66753814413E-02  0.40776999049E-01  0.51100000000E-03 0. -1.
</event>
<event>
 8    1  0.1054086E+005  0.1043930E+01  0.7957747E-01            NaN
         13   -1    0    0    0    0  0.00000000000E+00  0.00000000000E+00  0.74505805969E-08  0.10566000000E+00  0.10566000000E+00 0.  1.
     999900   -1    0    0    0    0 -0.00000000000E+00 -0.00000000000E+00 -0.74505805969E-08  0.93827000000E+00  0.93827000000E+00 0. -1.
     999902    2    1    2    0    0  0.15259369063E-01  0.10498819194E-01  0.14689931268E-01  0.10202896187E+01  0.10200157049E+01 0.  0.
     999903    2    3    3    0    0  0.91142861545E-01  0.50024269442E-01  0.81430228148E-01  0.13362461267E+00  0.20376611842E-01 0.  0.
         14    1    1    2    0    0 -0.15259369063E-01 -0.10498819194E-01 -0.14689931268E-01  0.23640381327E-01  0.00000000000E+00 0.  1.
     999901    1    3    3    0    0 -0.75883492482E-01 -0.39525450249E-01 -0.66740296880E-01  0.88666500601E+00  0.88000000000E+00 0. -1.
        -11    1    4    4    0    0  0.81293506804E-01  0.40163582409E-01  0.62570450902E-01  0.11016837136E+00  0.51100000000E-03 0. -1.
         11    1    4    4    0    0  0.98493547406E-02  0.98606870335E-02  0.18859777246E-01  0.23456241309E-01  0.51100000000E-03 0.  1.
</event>
<event>
 8    1  0.1054086E+005  0.1043930E+01  0.7957747E-01            NaN
         13   -1    0    0    0    0  0.00000000000E+00  0.00000000000E+00  0.74505805969E-08  0.10566000000E+00  0.10566000000E+00 0. -1.
     999900   -1    0    0    0    0 -0.00000000000E+00 -0.00000000000E+00 -0.74505805969E-08  0.93827000000E+00  0.93827000000E+00 0. -1.
     999902    2    1    2    0    0 -0.21337645550E-02 -0.48371396381E-02 -0.22927713267E-01  0.10204006373E+01  0.10201293201E+01 0.  0.
     999903    2    3    3    0    0  0.18793800212E-01 -0.12740269700E+00 -0.14686808845E-01  0.13162159207E+00  0.22888578267E-01 0.  0.
         14    1    1    2    0    0  0.21337645550E-02  0.48371396381E-02  0.22927713267E-01  0.23529362650E-01  0.00000000000E+00 0. -1.
     999901    1    3    3    0    0 -0.20927564767E-01  0.12256555737E+00 -0.82409044228E-02  0.88877904528E+00  0.88000000000E+00 0. -1.
        -11    1    4    4    0    0  0.87751508243E-02 -0.28279795634E-01 -0.12008230706E-01  0.31956358346E-01  0.51100000000E-03 0.  1.
         11    1    4    4    0    0  0.10018649388E-01 -0.99122901371E-01 -0.26785781385E-02  0.99665233725E-01  0.51100000000E-03 0. -1.
</event>
<event>
 8    1  0.1054086E+005  0.1043930E+01  0.7957747E-01            NaN
         13   -1    0    0    0    0  0.00000000000E+00  0.00000000000E+00  0.74505805969E-08  0.10566000000E+00  0.10566000000E+00 0. -1.
     999900   -1    0    0    0    0 -0.00000000000E+00 -0.00000000000E+00 -0.74505805969E-08  0.93827000000E+00  0.93827000000E+00 0.  1.
     999902    2    1    2    0    0 -0.22385653900E-01 -0.77422534078E-02  0.24814131545E-03  0.10202419954E+01  0.10199669640E+01 0.  0.
     999903    2    3    3    0    0 -0.10053803935E+00 -0.85409186139E-01  0.82648275611E-03  0.13337093245E+00  0.19608572536E-01 0.  0.
         14    1    1    2    0    0  0.22385653900E-01  0.77422534078E-02 -0.24814131545E-03  0.23688004612E-01  0.00000000000E+00 0. -1.
     999901    1    3    3    0    0  0.78152385449E-01  0.77666932731E-01 -0.57834144066E-03  0.88687106293E+00  0.88000000000E+00 0. -1.
        -11    1    4    4    0    0 -0.59686532860E-01 -0.54256255106E-01 -0.86564854098E-02  0.81125947043E-01  0.51100000000E-03 0. -1.
         11    1    4    4    0    0 -0.40851506490E-01 -0.31152931032E-01  0.94829681659E-02  0.52244985411E-01  0.51100000000E-03 0.  1.
</event>
<event>
 8    1  0.1054086E+005  0.1043930E+01  0.7957747E-01            NaN
         13   -1    0    0    0    0  0.00000000000E+00  0.00000000000E+00  0.74505805969E-08  0.10566000000E+00  0.10566000000E+00 0. -1.
     999900   -1    0    0    0    0 -0.00000000000E+00 -0.00000000000E+00 -0.74505805969E-08  0.93827000000E+00  0.93827000000E+00 0. -1.
     999902    2    1    2    0    0  0.19707583757E-02  0.32531375479E-02  0.23685384011E-01  0.10199411649E+01  0.10196590193E+01 0.  0.
     999903    2    3    3    0    0  0.70315589965E-02 -0.12658117360E+00  0.19808806985E-01  0.13039207246E+00  0.23183343018E-01 0.  0.
         14    1    1    2    0    0 -0.19707583757E-02 -0.32531375479E-02 -0.23685384011E-01  0.23988835074E-01  0.00000000000E+00 0.  1.
     999901    1    3    3    0    0 -0.50608006209E-02  0.12983431115E+00  0.38765770261E-02  0.88954909246E+00  0.88000000000E+00 0.  1.
        -11    1    4    4    0    0 -0.76409162170E-02 -0.22909345753E-01  0.45423920301E-02  0.24578774783E-01  0.51100000000E-03 0. -1.
         11    1    4    4    0    0  0.14672475214E-01 -0.10367182785E+00  0.15266414954E-01  0.10581329768E+00  0.51100000000E-03 0.  1.
</event>
<event>
 8    1  0.1054086E+005  0.1043930E+01  0.7957747E-01            NaN
         13   -1    0    0    0    0  0.00000000000E+00  0.00000000000E+00  0.74505805969E-08  0.10566000000E+00  0.10566000000E+00 0.  1.
     999900   -1    0    0    0    0 -0.00000000000E+00 -0.00000000000E+00 -0.74505805969E-08  0.93827000000E+00  0.93827000000E+00 0.  1.
     999902    2    1    2    0    0  0.14991421039E-01  0.16264696972E-01 -0.92607135193E-02  0.10199499273E+01  0.10196679902E+01 0.  0.
     999903    2    3    3    0    0 -0.89148357541E-01 -0.87997348321E-01  0.12004526932E-01  0.12744341301E+00  0.20168090889E-01 0.  0.
         14    1    1    2    0    0 -0.14991421039E-01 -0.16264696972E-01  0.92607135193E-02  0.23980072711E-01  0.00000000000E+00 0.  1.
     999901    1    3    3    0    0  0.10413977858E+00  0.10426204529E+00 -0.21265240451E-01  0.89250651427E+00  0.88000000000E+00 0.  1.
        -11    1    4    4    0    0 -0.26098435209E-01 -0.25009600676E-01 -0.56458901355E-02  0.36588873210E-01  0.51100000000E-03 0. -1.
         11    1    4    4    0    0 -0.63049922332E-01 -0.62987747645E-01  0.17650417067E-01  0.90854539804E-01  0.51100000000E-03 0.  1.
</event>
<event>
 8    1  0.1054086E+005  0.1043930E+01  0.7957747E-01            NaN
         13   -1    0    0    0    0  0.00000000000E+00  0.00000000000E+00  0.74505805969E-08  0.10566000000E+00  0.10566000000E+00 0.  1.
     999900   -1    0    0    0    0 -0.00000000000E+00 -0.00000000000E+00 -0.74505805969E-08  0.93827000000E+00  0.93827000000E+00 0.  1.
     999902    2    1    2    0    0  0.13186594921E-01  0.16321543534E-01 -0.11246537725E-01  0.10201232010E+01  0.10198453714E+01 0.  0.
     999903    2    3    3    0    0  0.89492763864E-01 -0.73598539024E-01 -0.57854500880E-01  0.13103346709E+00  0.19923014232E-01 0.  0.
         14    1    1    2    0    0 -0.13186594921E-01 -0.16321543534E-01  0.11246537725E-01  0.23806799023E-01  0.00000000000E+00 0.  1.
     999901    1    3    3    0    0 -0.76306168943E-01  0.89920082558E-01  0.46607963155E-01  0.88908973388E+00  0.88000000000E+00 0. -1.
        -11    1    4    4    0    0  0.47800783110E-01 -0.41283588562E-01 -0.42365381409E-01  0.76054823735E-01  0.51100000000E-03 0.  1.
         11    1    4    4    0    0  0.41691980755E-01 -0.32314950462E-01 -0.15489119471E-01  0.54978643359E-01  0.51100000000E-03 0. -1.
</event>
<event>
 8    1  0.1054086E+005  0.1043930E+01  0.7957747E-01            NaN
         13   -1    0    0    0    0  0.00000000000E+00  0.00000000000E+00  0.74505805969E-08  0.10566000000E+00  0.10566000000E+00 0.  1.
     999900   -1    0    0    0    0 -0.00000000000E+00 -0.00000000000E+00 -0.74505805969E-08  0.93827000000E+00  0.93827000000E+00 0. -1.
     999902    2    1    2    0    0 -0.21341641779E-01 -0.29194159244E-02 -0.44059438045E-02  0.10219436178E+01  0.10217070798E+01 0.  0.
     999903    2    3    3    0    0 -0.26721608764E-02 -0.34770648709E-02  0.12997281898E+00  0.13154678916E+00  0.19808928319E-01 0.  0.
         14    1    1    2    0    0  0.21341641779E-01  0.29194159244E-02  0.44059438045E-02  0.21986382239E-01  0.00000000000E+00 0. -1.
     999901    1    3    3    0    0 -0.18669480902E-01  0.55764894654E-03 -0.13437876279E+00  0.89039682860E+00  0.88000000000E+00 0. -1.
        -11    1    4    4    0    0 -0.10849295676E-01 -0.36582052116E-02  0.91204679706E-01  0.91921947342E-01  0.51100000000E-03 0.  1.
         11    1    4    4    0    0  0.81771347998E-02  0.18114034072E-03  0.38768139276E-01  0.39624841820E-01  0.51100000000E-03 0. -1.
</event>
<event>
 8    1  0.1054086E+005  0.1043930E+01  0.7957747E-01            NaN
         13   -1    0    0    0    0  0.00000000000E+00  0.00000000000E+00  0.74505805969E-08  0.10566000000E+00  0.10566000000E+00 0.  1.
     999900   -1    0    0    0    0 -0.00000000000E+00 -0.00000000000E+00 -0.74505805969E-08  0.93827000000E+00  0.93827000000E+00 0. -1.
     999902    2    1    2    0    0 -0.29823207404E-02  0.27009517886E-01 -0.51741692521E-02  0.10162681071E+01  0.10158915715E+01 0.  0.
     999903    2    3    3    0    0 -0.14021905965E-01  0.13744692998E-01  0.12358253848E+00  0.12673108265E+00  0.20064721724E-01 0.  0.
         14    1    1    2    0    0  0.29823207404E-02 -0.27009517886E-01  0.51741692521E-02  0.27661892937E-01  0.00000000000E+00 0.  1.
     999901    1    3    3    0    0  0.11039585224E-01  0.13264824888E-01 -0.12875670774E+00  0.88953702442E+00  0.88000000000E+00 0. -1.
        -11    1    4    4    0    0 -0.67784136382E-02  0.14271595807E-01  0.42883358451E-01  0.45704145231E-01  0.51100000000E-03 0. -1.
         11    1    4    4    0    0 -0.72434923266E-02 -0.52690280883E-03  0.80699180034E-01  0.81026937414E-01  0.51100000000E-03 0.  1.
</event>
<event>
 8    1  0.1054086E+005  0.1043930E+01  0.7957747E-01            NaN
         13   -1    0    0    0    0  0.00000000000E+00  0.00000000000E+00  0.74505805969E-08  0.10566000000E+00  0.10566000000E+00 0. -1.
     999900   -1    0    0    0    0 -0.00000000000E+00 -0.00000000000E+00 -0.74505805969E-08  0.93827000000E+00  0.93827000000E+00 0.  1.
     999902    2    1    2    0    0  0.10647947685E-01  0.21071372884E-01 -0.22552080421E-02  0.10202136025E+01  0.10199379037E+01 0.  0.
     999903    2    3    3    0    0 -0.81582484786E-01  0.29764635959E-01 -0.92577007266E-01  0.13075306215E+00  0.31372370167E-01 0.  0.
         14    1    1    2    0    0 -0.10647947685E-01 -0.21071372884E-01  0.22552080421E-02  0.23716397459E-01  0.00000000000E+00 0. -1.
     999901    1    3    3    0    0  0.92230432471E-01 -0.86932630751E-02  0.90321799224E-01  0.88946054039E+00  0.88000000000E+00 0. -1.
        -11    1    4    4    0    0 -0.48721396847E-01  0.20265074616E-02 -0.56355425552E-01  0.74525675800E-01  0.51100000000E-03 0. -1.
         11    1    4    4    0    0 -0.32861087939E-01  0.27738128497E-01 -0.36221581714E-01  0.56227386351E-01  0.51100000000E-03 0.  1.
</event>
<event>
 8    1  0.1054086E+005  0.1043930E+01  0.7957747E-01            NaN
         13   -1    0    0    0    0  0.00000000000E+00  0.00000000000E+00  0.74505805969E-08  0.10566000000E+00  0.10566000000E+00 0.  1.
     999900   -1    0    0    0    0 -0.00000000000E+00 -0.00000000000E+00 -0.74505805969E-08  0.93827000000E+00  0.93827000000E+00 0.  1.
     999902    2    1    2    0    0 -0.14323862871E-01  0.19048509076E-01 -0.43770655265E-02  0.10196982554E+01  0.10194102974E+01 0.  0.
     999903    2    3    3    0    0  0.10872408948E+00 -0.52415838394E-01 -0.36523904970E-01  0.12768851841E+00  0.20050295513E-01 0.  0.
         14    1    1    2    0    0  0.14323862871E-01 -0.19048509076E-01  0.43770655265E-02  0.24231744638E-01  0.00000000000E+00 0. -1.
     999901    1    3    3    0    0 -0.12304795235E+00  0.71464347471E-01  0.32146839444E-01  0.89200973696E+00  0.88000000000E+00 0. -1.
        -11    1    4    4    0    0  0.69151728740E-01 -0.26924776463E-01 -0.14067480229E-01  0.75531849549E-01  0.51100000000E-03 0.  1.
         11    1    4    4    0    0  0.39572360742E-01 -0.25491061932E-01 -0.22456424741E-01  0.52156668857E-01  0.51100000000E-03 0. -1.
</event>
<event>
 8    1  0.1054086E+005  0.1043930E+01  0.7957747E-01            NaN
         13   -1    0    0    0    0  0.00000000000E+00  0.00000000000E+00  0.74505805969E-08  0.10566000000E+00  0.10566000000E+00 0. -1.
     999900   -1    0    0    0    0 -0.00000000000E+00 -0.00000000000E+00 -0.74505805969E-08  0.93827000000E+00  0.93827000000E+00 0.  1.
     999902    2    1    2    0    0 -0.14911380952E-01 -0.90423360879E-02 -0.10872254202E-01  0.10233795977E+01  0.10231732414E+01 0.  0.
     999903    2    3    3    0    0  0.12429019922E+00  0.36764290047E-01 -0.22109819970E-02  0.13121910509E+00  0.20344494411E-01 0.  0.
         14    1    1    2    0    0  0.14911380952E-01  0.90423360879E-02  0.10872254202E-01  0.20550402314E-01  0.00000000000E+00 0.  1.
     999901    1    3    3    0    0 -0.13920158017E+00 -0.45806626135E-01 -0.86612722045E-02  0.89216049260E+00  0.88000000000E+00 0. -1.
        -11    1    4    4    0    0  0.13867029676E-01  0.33005095625E-02 -0.66773310919E-02  0.15749150673E-01  0.51100000000E-03 0. -1.
         11    1    4    4    0    0  0.11042316955E+00  0.33463780485E-01  0.44663490949E-02  0.11546995441E+00  0.51100000000E-03 0.  1.
</event>
<event>
 8    1  0.1054086E+005  0.1043930E+01  0.7957747E-01            NaN
         13   -1    0    0    0    0  0.00000000000E+00  0.00000000000E+00  0.74505805969E-08  0.10566000000E+00  0.10566000000E+00 0.  1.
     999900   -1    0    0    0    0 -0.00000000000E+00 -0.00000000000E+00 -0.74505805969E-08  0.93827000000E+00  0.93827000000E+00 0. -1.
     999902    2    1    2    0    0 -0.12846972742E-01 -0.14639875752E-02 -0.21368705667E-01  0.10189538203E+01  0.10186476714E+01 0.  0.
     999903    2    3    3    0    0 -0.87086963676E-01  0.37018451461E-01  0.84782444346E-01  0.12863896535E+00  0.20134933506E-01 0.  0.
         14    1    1    2    0    0  0.12846972742E-01  0.14639875752E-02  0.21368705667E-01  0.24976179655E-01  0.00000000000E+00 0.  1.
     999901    1    3    3    0    0  0.74239990933E-01 -0.38482439036E-01 -0.10615115001E+00  0.89031485499E+00  0.88000000000E+00 0. -1.
        -11    1    4    4    0    0 -0.22927624161E-01  0.63648282930E-03  0.21822263059E-01  0.31663122810E-01  0.51100000000E-03 0.  1.
         11    1    4    4    0    0 -0.64159339515E-01  0.36381968632E-01  0.62960181287E-01  0.96975842544E-01  0.51100000000E-03 0. -1.
</event>
<event>
 8    1  0.1054086E+005  0.1043930E+01  0.7957747E-01            NaN
         13   -1    0    0    0    0  0.00000000000E+00  0.00000000000E+00  0.74505805969E-08  0.10566000000E+00  0.10566000000E+00 0.  1.
     999900   -1    0    0    0    0 -0.00000000000E+00 -0.00000000000E+00 -0.74505805969E-08  0.93827000000E+00  0.93827000000E+00 0. -1.
     999902    2    1    2    0    0  0.18625329238E-01 -0.77200502481E-02 -0.10612133447E-01  0.10211458072E+01  0.10208915908E+01 0.  0.
     999903    2    3    3    0    0 -0.12539471974E+00 -0.18870822367E-02  0.21641888585E-01  0.12883637659E+00  0.20075950135E-01 0.  0.
         14    1    1    2    0    0 -0.18625329238E-01  0.77200502481E-02  0.10612133447E-01  0.22784192796E-01  0.00000000000E+00 0.  1.
     999901    1    3    3    0    0  0.14402004898E+00 -0.58329680114E-02 -0.32254022032E-01  0.89230943061E+00  0.88000000000E+00 0. -1.
        -11    1    4    4    0    0 -0.11666340935E+00  0.29373677192E-02  0.22351172382E-01  0.11882262090E+00  0.51100000000E-03 0. -1.
         11    1    4    4    0    0 -0.87313103884E-02 -0.48244499559E-02 -0.70928379673E-03  0.10013755688E-01  0.51100000000E-03 0.  1.
</event>
<event>
 8    1  0.1054086E+005  0.1043930E+01  0.7957747E-01            NaN
         13   -1    0    0    0    0  0.00000000000E+00  0.00000000000E+00  0.74505805969E-08  0.10566000000E+00  0.10566000000E+00 0.  1.
     999900   -1    0    0    0    0 -0.00000000000E+00 -0.00000000000E+00 -0.74505805969E-08  0.93827000000E+00  0.93827000000E+00 0.  1.
     999902    2    1    2    0    0  0.12300255353E-01  0.16374452144E-01  0.20108939407E-01  0.10152282856E+01  0.10148224887E+01 0.  0.
     999903    2    3    3    0    0 -0.32264706016E-01  0.16124715510E-01  0.12134751990E+00  0.12830362797E+00  0.20870617130E-01 0.  0.
         14    1    1    2    0    0 -0.12300255353E-01 -0.16374452144E-01 -0.20108939407E-01  0.28701714389E-01  0.00000000000E+00 0. -1.
     999901    1    3    3    0    0  0.44564961369E-01  0.24973663412E-03 -0.10123858050E+00  0.88692465764E+00  0.88000000000E+00 0.  1.
        -11    1    4    4    0    0 -0.18168443427E-01 -0.18684194406E-02  0.43861535509E-01  0.47515037051E-01  0.51100000000E-03 0.  1.
         11    1    4    4    0    0 -0.14096262589E-01  0.17993134951E-01  0.77485984394E-01  0.80788590920E-01  0.51100000000E-03 0. -1.
</event>
<event>
 8    1  0.1054086E+005  0.1043930E+01  0.7957747E-01            NaN
         13   -1    0    0    0    0  0.00000000000E+00  0.00000000000E+00  0.74505805969E-08  0.10566000000E+00  0.10566000000E+00 0. -1.
     999900   -1    0    0    0    0 -0.00000000000E+00 -0.00000000000E+00 -0.74505805969E-08  0.93827000000E+00  0.93827000000E+00 0. -1.
     999902    2    1    2    0    0  0.68154559870E-02  0.22294515225E-01 -0.72151889023E-02  0.10195260085E+01  0.10192338923E+01 0.  0.
     999903    2    3    3    0    0  0.61554035184E-01  0.11560822268E+00  0.90779430749E-02  0.13275138878E+00  0.19656087464E-01 0.  0.
         14    1    1    2    0    0 -0.68154559870E-02 -0.22294515225E-01  0.72151889023E-02  0.24403991483E-01  0.00000000000E+00 0. -1.
     999901    1    3    3    0    0 -0.54738579197E-01 -0.93313707458E-01 -0.16293131977E-01  0.88677461973E+00  0.88000000000E+00 0.  1.
        -11    1    4    4    0    0  0.27504660203E-01  0.56586769648E-01  0.13913865428E-01  0.64439317223E-01  0.51100000000E-03 0.  1.
         11    1    4    4    0    0  0.34049374981E-01  0.59021453035E-01 -0.48359223531E-02  0.68312071561E-01  0.51100000000E-03 0. -1.
</event>
<event>
 8    1  0.1054086E+005  0.1043930E+01  0.7957747E-01            NaN
         13   -1    0    0    0    0  0.00000000000E+00  0.00000000000E+00  0.74505805969E-08  0.10566000000E+00  0.10566000000E+00 0.  1.
     999900   -1    0    0    0    0 -0.00000000000E+00 -0.00000000000E+00 -0.74505805969E-08  0.93827000000E+00  0.93827000000E+00 0.  1.
     999902    2    1    2    0    0 -0.52086385540E-02  0.13046724417E-01  0.12954410105E-01  0.10248207437E+01  0.10246425685E+01 0.  0.
     999903    2    3    3    0    0  0.10530551787E+00 -0.16931762583E-01 -0.76632356063E-01  0.13289144322E+00  0.20289923808E-01 0.  0.
         14    1    1    2    0    0  0.52086385540E-02 -0.13046724417E-01 -0.12954410105E-01  0.19109256259E-01  0.00000000000E+00 0. -1.
     999901    1    3    3    0    0 -0.11051415642E+00  0.29978487000E-01  0.89586766167E-01  0.89192930052E+00  0.88000000000E+00 0. -1.
        -11    1    4    4    0    0  0.17305782533E-01 -0.10268968623E-01 -0.17359943455E-01  0.26581395437E-01  0.51100000000E-03 0.  1.
         11    1    4    4    0    0  0.87999735336E-01 -0.66627939600E-02 -0.59272412608E-01  0.10631004778E+00  0.51100000000E-03 0. -1.
</event>
<event>
 8    1  0.1054086E+005  0.1043930E+01  0.7957747E-01            NaN
         13   -1    0    0    0    0  0.00000000000E+00  0.00000000000E+00  0.74505805969E-08  0.10566000000E+00  0.10566000000E+00 0. -1.
     999900   -1    0    0    0    0 -0.00000000000E+00 -0.00000000000E+00 -0.74505805969E-08  0.93827000000E+00  0.93827000000E+00 0.  1.
     999902    2    1    2    0    0 -0.13396177221E-01 -0.99137099641E-02  0.16203979935E-01  0.10206854700E+01  0.10204207566E+01 0.  0.
     999903    2    3    3    0    0 -0.10165000784E+00 -0.51963182319E-01  0.67019812514E-01  0.13381504790E+00  0.19542655002E-01 0.  0.
         14    1    1    2    0    0  0.13396177221E-01  0.99137099641E-02 -0.16203979935E-01  0.23244530005E-01  0.00000000000E+00 0.  1.
     999901    1    3    3    0    0  0.88253830620E-01  0.42049472355E-01 -0.50815832579E-01  0.88687042209E+00  0.88000000000E+00 0.  1.
        -11    1    4    4    0    0 -0.67933482310E-01 -0.33835787162E-01  0.33615839594E-01  0.83006652168E-01  0.51100000000E-03 0. -1.
         11    1    4    4    0    0 -0.33716525532E-01 -0.18127395157E-01  0.33403972920E-01  0.50808395733E-01  0.51100000000E-03 0.  1.
</event>
<event>
 8    1  0.1054086E+005  0.1043930E+01  0.7957747E-01            NaN
         13   -1    0    0    0    0  0.00000000000E+00  0.00000000000E+00  0.74505805969E-08  0.10566000000E+00  0.10566000000E+00 0.  1.
     999900   -1    0    0    0    0 -0.00000000000E+00 -0.00000000000E+00 -0.74505805969E-08  0.93827000000E+00  0.93827000000E+00 0.  1.
     999902    2    1    2    0    0  0.10985940464E-01 -0.17554815337E-01  0.97743502411E-02  0.10210302107E+01  0.10207733787E+01 0.  0.
     999903    2    3    3    0    0 -0.14048158753E-01  0.85147352971E-02 -0.12718602501E+00  0.12970284544E+00  0.19408546489E-01 0.  0.
         14    1    1    2    0    0 -0.10985940464E-01  0.17554815337E-01 -0.97743502411E-02  0.22899789345E-01  0.00000000000E+00 0. -1.
     999901    1    3    3    0    0  0.25034099218E-01 -0.26069550634E-01  0.13696037525E+00  0.89132736522E+00  0.88000000000E+00 0. -1.
        -11    1    4    4    0    0 -0.99196451925E-02  0.14826698490E-01 -0.86868916999E-01  0.88683145019E-01  0.51100000000E-03 0. -1.
         11    1    4    4    0    0 -0.41285135607E-02 -0.63119631929E-02 -0.40317108007E-01  0.41019700421E-01  0.51100000000E-03 0.  1.
</event>
<event>
 8    1  0.1054086E+005  0.1043930E+01  0.7957747E-01            NaN
         13   -1    0    0    0    0  0.00000000000E+00  0.00000000000E+00  0.74505805969E-08  0.10566000000E+00  0.10566000000E+00 0.  1.
     999900   -1    0    0    0    0 -0.00000000000E+00 -0.00000000000E+00 -0.74505805969E-08  0.93827000000E+00  0.93827000000E+00 0.  1.
     999902    2    1    2    0    0  0.27861417017E-02  0.23434885343E-01 -0.23002599915E-02  0.10202182385E+01  0.10199426487E+01 0.  0.
     999903    2    3    3    0    0 -0.52286686558E-01  0.12082845092E+00  0.18795044101E-02  0.13312410966E+00  0.19623554491E-01 0.  0.
         14    1    1    2    0    0 -0.27861417017E-02 -0.23434885343E-01  0.23002599915E-02  0.23711761484E-01  0.00000000000E+00 0.  1.
     999901    1    3    3    0    0  0.55072828259E-01 -0.97393565580E-01 -0.41797644015E-02  0.88709412886E+00  0.88000000000E+00 0.  1.
        -11    1    4    4    0    0 -0.43876228526E-01  0.93017806133E-01 -0.59778294668E-02  0.10302150869E+00  0.51100000000E-03 0.  1.
         11    1    4    4    0    0 -0.84104580318E-02  0.27810644791E-01  0.78573338769E-02  0.30102600961E-01  0.51100000000E-03 0. -1.
</event>
<event>
 8    1  0.1054086E+005  0.1043930E+01  0.7957747E-01            NaN
         13   -1    0    0    0    0  0.00000000000E+00  0.00000000000E+00  0.74505805969E-08  0.10566000000E+00  0.10566000000E+00 0.  1.
     999900   -1    0    0    0    0 -0.00000000000E+00 -0.00000000000E+00 -0.74505805969E-08  0.93827000000E+00  0.93827000000E+00 0.  1.
     999902    2    1    2    0    0  0.25030988822E-01 -0.61193478265E-02  0.46991845364E-02  0.10177368873E+01  0.10173997703E+01 0.  0.
     999903    2    3    3    0    0  0.30049036731E-01  0.96001695757E-01 -0.76825437237E-01  0.12807394418E+00  0.19532464644E-01 0.  0.
         14    1    1    2    0    0 -0.25030988822E-01  0.61193478265E-02 -0.46991845364E-02  0.26193112730E-01  0.00000000000E+00 0. -1.
     999901    1    3    3    0    0 -0.50180479099E-02 -0.10212104358E+00  0.81524621773E-01  0.88966294309E+00  0.88000000000E+00 0. -1.
        -11    1    4    4    0    0  0.77364522528E-04  0.79701177094E-02 -0.13088781890E-01  0.15333169729E-01  0.51100000000E-03 0.  1.
         11    1    4    4    0    0  0.29971672209E-01  0.88031578048E-01 -0.63736655346E-01  0.11274077445E+00  0.51100000000E-03 0. -1.
</event>
<event>
 8    1  0.1054086E+005  0.1043930E+01  0.7957747E-01            NaN
         13   -1    0    0    0    0  0.00000000000E+00  0.00000000000E+00  0.74505805969E-08  0.10566000000E+00  0.10566000000E+00 0.  1.
     999900   -1    0    0    0    0 -0.00000000000E+00 -0.00000000000E+00 -0.74505805969E-08  0.93827000000E+00  0.93827000000E+00 0. -1.
     999902    2    1    2    0    0 -0.14723506700E-01  0.34520656975E-02 -0.18155462824E-01  0.10203012201E+01  0.10200275783E+01 0.  0.
     999903    2    3    3    0    0 -0.11927066717E+00  0.16598866799E-01 -0.55320776890E-01  0.13323628018E+00  0.13802303266E-01 0.  0.
         14    1    1    2    0    0  0.14723506700E-01 -0.34520656975E-02  0.18155462824E-01  0.23628779856E-01  0.00000000000E+00 0.  1.
     999901    1    3    3    0    0  0.10454716047E+00 -0.13146801101E-01  0.37165314066E-01  0.88706493996E+00  0.88000000000E+00 0.  1.
        -11    1    4    4    0    0 -0.20979758010E-01 -0.35600712390E-03 -0.52764011988E-02  0.21642054381E-01  0.51100000000E-03 0.  1.
         11    1    4    4    0    0 -0.98290909157E-01  0.16954873922E-01 -0.50044375691E-01  0.11159422580E+00  0.51100000000E-03 0. -1.
</event>
<event>
 8    1  0.1054086E+005  0.1043930E+01  0.7957747E-01            NaN
         13   -1    0    0    0    0  0.00000000000E+00  0.00000000000E+00  0.74505805969E-08  0.10566000000E+00  0.10566000000E+00 0.  1.
     999900   -1    0    0    0    0 -0.00000000000E+00 -0.00000000000E+00 -0.74505805969E-08  0.93827000000E+00  0.93827000000E+00 0.  1.
     999902    2    1    2    0    0 -0.35377290509E-02  0.19165916694E-01  0.21537505903E-01  0.10148832782E+01  0.10144675235E+01 0.  0.
     999903    2    3    3    0    0 -0.29897568713E-01  0.11881325519E+00  0.34349733439E-01  0.12877460175E+00  0.19812613290E-01 0.  0.
         14    1    1    2    0    0  0.35377290509E-02 -0.19165916694E-01 -0.21537505903E-01  0.29046721847E-01  0.00000000000E+00 0. -1.
     999901    1    3    3    0    0  0.26359839662E-01 -0.99647338497E-01 -0.12812227536E-01  0.88610867640E+00  0.88000000000E+00 0.  1.
        -11    1    4    4    0    0 -0.50188871923E-02  0.60474244077E-01  0.16702239317E-01  0.62940840037E-01  0.51100000000E-03 0. -1.
         11    1    4    4    0    0 -0.24878681520E-01  0.58339011114E-01  0.17647494122E-01  0.65833761716E-01  0.51100000000E-03 0.  1.
</event>
<event>
 8    1  0.1054086E+005  0.1043930E+01  0.7957747E-01            NaN
         13   -1    0    0    0    0  0.00000000000E+00  0.00000000000E+00  0.74505805969E-08  0.10566000000E+00  0.10566000000E+00 0. -1.
     999900   -1    0    0    0    0 -0.00000000000E+00 -0.00000000000E+00 -0.74505805969E-08  0.93827000000E+00  0.93827000000E+00 0. -1.
     999902    2    1    2    0    0  0.17704169565E-01 -0.23464166527E-02  0.12821292266E-01  0.10219452592E+01  0.10217087570E+01 0.  0.
     999903    2    3    3    0    0 -0.38064111117E-01 -0.11607450855E+00 -0.43136489986E-01  0.13111673847E+00  0.20215693095E-01 0.  0.
         14    1    1    2    0    0 -0.17704169565E-01  0.23464166527E-02 -0.12821292266E-01  0.21984740764E-01  0.00000000000E+00 0.  1.
     999901    1    3    3    0    0  0.55768280681E-01  0.11372809190E+00  0.55957782252E-01  0.89082852077E+00  0.88000000000E+00 0.  1.
        -11    1    4    4    0    0 -0.73638514402E-02 -0.35252049150E-01 -0.21670891630E-01  0.42033581127E-01  0.51100000000E-03 0.  1.
         11    1    4    4    0    0 -0.30700259676E-01 -0.80822459404E-01 -0.21465598356E-01  0.89083157342E-01  0.51100000000E-03 0. -1.
</event>
<event>
 8    1  0.1127956E+005  0.1043930E+01  0.7957747E-01            NaN
         13   -1    0    0    0    0  0.00000000000E+00  0.00000000000E+00  0.74505805969E-08  0.10566000000E+00  0.10566000000E+00 0.  1.
     999900   -1    0    0    0    0 -0.00000000000E+00 -0.00000000000E+00 -0.74505805969E-08  0.93827000000E+00  0.93827000000E+00 0.  1.
     999902    2    1    2    0    0  0.18711456214E-01  0.59128714169E-02  0.21724015116E-01  0.10146552075E+01  0.10142328020E+01 0.  0.
     999903    2    3    3    0    0  0.38073076192E-01 -0.51916080512E-01  0.10924150353E+00  0.12821379897E+00  0.18979821020E-01 0.  0.
         14    1    1    2    0    0 -0.18711456214E-01 -0.59128714169E-02 -0.21724015116E-01  0.29274792481E-01  0.00000000000E+00 0. -1.
     999901    1    3    3    0    0 -0.19361619978E-01  0.57828951929E-01 -0.87517488418E-01  0.88644140855E+00  0.88000000000E+00 0.  1.
        -11    1    4    4    0    0  0.20486344644E-01 -0.27458792832E-01  0.75907562874E-01  0.83282019927E-01  0.51100000000E-03 0. -1.
         11    1    4    4    0    0  0.17586731547E-01 -0.24457287680E-01  0.33333940659E-01  0.44931779044E-01  0.51100000000E-03 0.  1.
</event>
<event>
 8    1  0.1054086E+005  0.1043930E+01  0.7957747E-01            NaN
         13   -1    0    0    0    0  0.00000000000E+00  0.00000000000E+00  0.74505805969E-08  0.10566000000E+00  0.10566000000E+00 0. -1.
     999900   -1    0    0    0    0 -0.00000000000E+00 -0.00000000000E+00 -0.74505805969E-08  0.93827000000E+00  0.93827000000E+00 0. -1.
     999902    2    1    2    0    0 -0.19787012569E-01 -0.12595024536E-01 -0.10998928560E-03  0.10204742415E+01  0.10202046388E+01 0.  0.
     999903    2    3    3    0    0 -0.63760654839E-01  0.54192478450E-01 -0.99065792943E-01  0.13132492735E+00  0.20735462022E-01 0.  0.
         14    1    1    2    0    0  0.19787012569E-01  0.12595024536E-01  0.10998928560E-03  0.23455758506E-01  0.00000000000E+00 0. -1.
     999901    1    3    3    0    0  0.43973642270E-01 -0.66787502986E-01  0.98955803658E-01  0.88914931415E+00  0.88000000000E+00 0. -1.
        -11    1    4    4    0    0 -0.23856878541E-01  0.18455366535E-01 -0.21440735458E-01  0.37009694211E-01  0.51100000000E-03 0.  1.
         11    1    4    4    0    0 -0.39903776297E-01  0.35737111916E-01 -0.77625057485E-01  0.94315233136E-01  0.51100000000E-03 0. -1.
</event>
<event>
 8    1  0.1054086E+005  0.1043930E+01  0.7957747E-01            NaN
         13   -1    0    0    0    0  0.00000000000E+00  0.00000000000E+00  0.74505805969E-08  0.10566000000E+00  0.10566000000E+00 0.  1.
     999900   -1    0    0    0    0 -0.00000000000E+00 -0.00000000000E+00 -0.74505805969E-08  0.93827000000E+00  0.93827000000E+00 0. -1.
     999902    2    1    2    0    0 -0.91093185497E-02  0.70409341834E-02 -0.20320672297E-01  0.10205743976E+01  0.10203071189E+01 0.  0.
     999903    2    3    3    0    0  0.11414030338E+00  0.55341749463E-01 -0.24163911202E-01  0.13066529636E+00  0.19970152233E-01 0.  0.
         14    1    1    2    0    0  0.91093185497E-02 -0.70409341834E-02  0.20320672297E-01  0.23355602352E-01  0.00000000000E+00 0.  1.
     999901    1    3    3    0    0 -0.12324962193E+00 -0.48300815279E-01  0.38432389048E-02  0.88990910128E+00  0.88000000000E+00 0. -1.
        -11    1    4    4    0    0  0.93661571876E-01  0.53367639666E-01 -0.21347690703E-01  0.10989349403E+00  0.51100000000E-03 0.  1.
         11    1    4    4    0    0  0.20478731504E-01  0.19741097962E-02 -0.28162204982E-02  0.20771802338E-01  0.51100000000E-03 0. -1.
</event>
<event>
 8    1  0.1054086E+005  0.1043930E+01  0.7957747E-01            NaN
         13   -1    0    0    0    0  0.00000000000E+00  0.00000000000E+00  0.74505805969E-08  0.10566000000E+00  0.10566000000E+00 0. -1.
     999900   -1    0    0    0    0 -0.00000000000E+00 -0.00000000000E+00 -0.74505805969E-08  0.93827000000E+00  0.93827000000E+00 0. -1.
     999902    2    1    2    0    0  0.18331869390E-01 -0.11856973681E-01  0.67207488108E-02  0.10210867576E+01  0.10208312068E+01 0.  0.
     999903    2    3    3    0    0 -0.65657401640E-02  0.12355939178E+00  0.34631630860E-01  0.12994339069E+00  0.19388210002E-01 0.  0.
         14    1    1    2    0    0 -0.18331869390E-01  0.11856973681E-01 -0.67207488108E-02  0.22843242432E-01  0.00000000000E+00 0.  1.
     999901    1    3    3    0    0  0.24897609554E-01 -0.13541636546E+00 -0.27910882049E-01  0.89114336688E+00  0.88000000000E+00 0. -1.
        -11    1    4    4    0    0  0.34098740558E-02  0.33988976720E-01  0.24754270817E-02  0.34252980013E-01  0.51100000000E-03 0. -1.
         11    1    4    4    0    0 -0.99756142198E-02  0.89570415059E-01  0.32156203778E-01  0.95690410676E-01  0.51100000000E-03 0.  1.
</event>
<event>
 8    1  0.1054086E+005  0.1043930E+01  0.7957747E-01            NaN
         13   -1    0    0    0    0  0.00000000000E+00  0.00000000000E+00  0.74505805969E-08  0.10566000000E+00  0.10566000000E+00 0. -1.
     999900   -1    0    0    0    0 -0.00000000000E+00 -0.00000000000E+00 -0.74505805969E-08  0.93827000000E+00  0.93827000000E+00 0. -1.
     999902    2    1    2    0    0 -0.78686774074E-03 -0.19769913668E-01 -0.12119509492E-01  0.10207276045E+01  0.10204638609E+01 0.  0.
     999903    2    3    3    0    0 -0.33377365598E-02 -0.11556682950E+00  0.61469317173E-01  0.13247152011E+00  0.20084673766E-01 0.  0.
         14    1    1    2    0    0  0.78686774074E-03  0.19769913668E-01  0.12119509492E-01  0.23202395515E-01  0.00000000000E+00 0. -1.
     999901    1    3    3    0    0  0.25508688190E-02  0.95796915836E-01 -0.73588826665E-01  0.88825608437E+00  0.88000000000E+00 0.  1.
        -11    1    4    4    0    0  0.29217492142E-02 -0.19787196694E-01  0.18708012746E-01  0.27391981187E-01  0.51100000000E-03 0.  1.
         11    1    4    4    0    0 -0.62594857740E-02 -0.95779632810E-01  0.42761304427E-01  0.10507953893E+00  0.51100000000E-03 0. -1.
</event>
<event>
 8    1  0.1054086E+005  0.1043930E+01  0.7957747E-01            NaN
         13   -1    0    0    0    0  0.00000000000E+00  0.00000000000E+00  0.74505805969E-08  0.10566000000E+00  0.10566000000E+00 0.  1.
     999900   -1    0    0    0    0 -0.00000000000E+00 -0.00000000000E+00 -0.74505805969E-08  0.93827000000E+00  0.93827000000E+00 0. -1.
     999902    2    1    2    0    0  0.16730084159E-01  0.66008547852E-02 -0.14868603450E-01  0.10205945684E+01  0.10203277565E+01 0.  0.
     999903    2    3    3    0    0  0.12047323366E+00  0.69253553555E-04  0.49884266197E-01  0.13211370928E+00  0.21255289737E-01 0.  0.
         14    1    1    2    0    0 -0.16730084159E-01 -0.66008547852E-02  0.14868603450E-01  0.23335431609E-01  0.00000000000E+00 0. -1.
     999901    1    3    3    0    0 -0.10374314950E+00  0.65316012317E-02 -0.64752869646E-01  0.88848085911E+00  0.88000000000E+00 0.  1.
        -11    1    4    4    0    0  0.11449310186E+00  0.42535865806E-02  0.49435606674E-01  0.12478342719E+00  0.51100000000E-03 0.  1.
         11    1    4    4    0    0  0.59801317968E-02 -0.41843330270E-02  0.44865952310E-03  0.73302820925E-02  0.51100000000E-03 0. -1.
</event>
<event>
 8    1  0.1054086E+005  0.1043930E+01  0.7957747E-01            NaN
         13   -1    0    0    0    0  0.00000000000E+00  0.00000000000E+00  0.74505805969E-08  0.10566000000E+00  0.10566000000E+00 0.  1.
     999900   -1    0    0    0    0 -0.00000000000E+00 -0.00000000000E+00 -0.74505805969E-08  0.93827000000E+00  0.93827000000E+00 0.  1.
     999902    2    1    2    0    0  0.10199179496E-01  0.21342433954E-01 -0.16410020669E-02  0.10202189132E+01  0.10199433392E+01 0.  0.
     999903    2    3    3    0    0 -0.22421760754E-01 -0.12411139394E+00 -0.45721412449E-02  0.12767785904E+00  0.19348326829E-01 0.  0.
         14    1    1    2    0    0 -0.10199179496E-01 -0.21342433954E-01  0.16410020669E-02  0.23711086800E-01  0.00000000000E+00 0. -1.
     999901    1    3    3    0    0  0.32620940251E-01  0.14545382789E+00  0.29311391780E-02  0.89254105416E+00  0.88000000000E+00 0. -1.
        -11    1    4    4    0    0 -0.27123599062E-02 -0.32656403465E-01 -0.90984791895E-02  0.34012365812E-01  0.51100000000E-03 0. -1.
         11    1    4    4    0    0 -0.19709400848E-01 -0.91454990475E-01  0.45263379446E-02  0.93665493223E-01  0.51100000000E-03 0.  1.
</event>
<event>
 7    1  0.1054086E+005  0.1043930E+01  0.7957747E-01            NaN
         13   -1    0    0    0    0  0.00000000000E+00  0.00000000000E+00  0.74505805969E-08  0.10566000000E+00  0.10566000000E+00 0.  1.
     999900   -1    0    0    0    0 -0.00000000000E+00 -0.00000000000E+00 -0.74505805969E-08  0.93827000000E+00  0.93827000000E+00 0.  1.
     999902    2    1    2    0    0  0.19864401319E-01  0.12759676335E-01 -0.11085940123E-01  0.10178474033E+01  0.10175131619E+01 0.  0.
         14    1    1    2    0    0 -0.19864401319E-01 -0.12759676335E-01  0.11085940123E-01  0.26082596657E-01  0.00000000000E+00 0.  1.
     999901    1    3    3    0    0 -0.34475350002E-01 -0.56969347212E-01  0.85758723021E-01  0.88667277778E+00  0.88000000000E+00 0. -1.
        -11    1    3    3    0    0  0.43749628874E-01  0.54643809144E-01 -0.75126826044E-01  0.10268533010E+00  0.51100000000E-03 0. -1.
         11    1    3    3    0    0  0.10590122447E-01  0.15085214403E-01 -0.21717837100E-01  0.28489295469E-01  0.51100000000E-03 0.  1.
</event>
<event>
 8    1  0.1054086E+005  0.1043930E+01  0.7957747E-01            NaN
         13   -1    0    0    0    0  0.00000000000E+00  0.00000000000E+00  0.74505805969E-08  0.10566000000E+00  0.10566000000E+00 0. -1.
     999900   -1    0    0    0    0 -0.00000000000E+00 -0.00000000000E+00 -0.74505805969E-08  0.93827000000E+00  0.93827000000E+00 0.  1.
     999902    2    1    2    0    0  0.81977576563E-02  0.17027929872E-02  0.27534966294E-01  0.10151501963E+01  0.10147421563E+01 0.  0.
     999903    2    3    3    0    0  0.79281489322E-01 -0.66772227093E-01 -0.66270887452E-01  0.12467770175E+00  0.20214201190E-01 0.  0.
         14    1    1    2    0    0 -0.81977576563E-02 -0.17027929872E-02 -0.27534966294E-01  0.28779803741E-01  0.00000000000E+00 0.  1.
     999901    1    3    3    0    0 -0.71083731665E-01  0.68475020080E-01  0.93805853746E-01  0.89047249451E+00  0.88000000000E+00 0. -1.
        -11    1    4    4    0    0  0.70882960650E-01 -0.57661142527E-01 -0.49815959345E-01  0.10407253429E+00  0.51100000000E-03 0.  1.
         11    1    4    4    0    0  0.83985286714E-02 -0.91110845660E-02 -0.16454928108E-01  0.20605167455E-01  0.51100000000E-03 0. -1.
</event>
<event>
 8    1  0.1054086E+005  0.1043930E+01  0.7957747E-01            NaN
         13   -1    0    0    0    0  0.00000000000E+00  0.00000000000E+00  0.74505805969E-08  0.10566000000E+00  0.10566000000E+00 0.  1.
     999900   -1    0    0    0    0 -0.00000000000E+00 -0.00000000000E+00 -0.74505805969E-08  0.93827000000E+00  0.93827000000E+00 0.  1.
     999902    2    1    2    0    0  0.22556122302E-01  0.18433668607E-02 -0.55902292270E-02  0.10206184724E+01  0.10203522132E+01 0.  0.
     999903    2    3    3    0    0  0.30412309709E-01  0.32437889842E-01 -0.12298030810E+00  0.13226146360E+00  0.19794274276E-01 0.  0.
         14    1    1    2    0    0 -0.22556122302E-01 -0.18433668607E-02  0.55902292270E-02  0.23311527566E-01  0.00000000000E+00 0.  1.
     999901    1    3    3    0    0 -0.78561874075E-02 -0.30594522981E-01  0.11739007888E+00  0.88835700883E+00  0.88000000000E+00 0. -1.
        -11    1    4    4    0    0  0.50257575579E-02  0.61676261777E-03 -0.34395665245E-01  0.34770124300E-01  0.51100000000E-03 0.  1.
         11    1    4    4    0    0  0.25386552151E-01  0.31821127224E-01 -0.88584642859E-01  0.97491339305E-01  0.51100000000E-03 0. -1.
</event>
<event>
 8    1  0.1054086E+005  0.1043930E+01  0.7957747E-01            NaN
         13   -1    0    0    0    0  0.00000000000E+00  0.00000000000E+00  0.74505805969E-08  0.10566000000E+00  0.10566000000E+00 0. -1.
     999900   -1    0    0    0    0 -0.00000000000E+00 -0.00000000000E+00 -0.74505805969E-08  0.93827000000E+00  0.93827000000E+00 0. -1.
     999902    2    1    2    0    0 -0.30536802468E-02 -0.19109826814E-01 -0.12736407968E-01  0.10207626408E+01  0.10204997023E+01 0.  0.
     999903    2    3    3    0    0 -0.11443891574E+00  0.58807039569E-01 -0.34192546351E-02  0.13027708893E+00  0.20146842466E-01 0.  0.
         14    1    1    2    0    0  0.30536802468E-02  0.19109826814E-01  0.12736407968E-01  0.23167359190E-01  0.00000000000E+00 0. -1.
     999901    1    3    3    0    0  0.11138523549E+00 -0.77916866383E-01 -0.93171533330E-02  0.89048555188E+00  0.88000000000E+00 0. -1.
        -11    1    4    4    0    0 -0.44414803485E-01  0.31464599809E-01  0.48509200411E-02  0.54648772685E-01  0.51100000000E-03 0.  1.
         11    1    4    4    0    0 -0.70024112251E-01  0.27342439760E-01 -0.82701746762E-02  0.75628316249E-01  0.51100000000E-03 0. -1.
</event>
<event>
 8    1  0.1054086E+005  0.1043930E+01  0.7957747E-01            NaN
         13   -1    0    0    0    0  0.00000000000E+00  0.00000000000E+00  0.74505805969E-08  0.10566000000E+00  0.10566000000E+00 0. -1.
     999900   -1    0    0    0    0 -0.00000000000E+00 -0.00000000000E+00 -0.74505805969E-08  0.93827000000E+00  0.93827000000E+00 0.  1.
     999902    2    1    2    0    0  0.25024814094E-02  0.19761324705E-01  0.13003692651E-01  0.10201420116E+01  0.10198646261E+01 0.  0.
     999903    2    3    3    0    0 -0.21721800164E-01 -0.83449904742E-01 -0.91971538166E-01  0.12758435369E+00  0.19577545019E-01 0.  0.
         14    1    1    2    0    0 -0.25024814094E-02 -0.19761324705E-01 -0.13003692651E-01  0.23787988353E-01  0.00000000000E+00 0.  1.
     999901    1    3    3    0    0  0.24224281573E-01  0.10321122945E+00  0.10497523082E+00  0.89255765796E+00  0.88000000000E+00 0.  1.
        -11    1    4    4    0    0  0.25889663581E-02 -0.29567103744E-02 -0.20081981125E-02  0.44428441004E-02  0.51100000000E-03 0.  1.
         11    1    4    4    0    0 -0.24310766522E-01 -0.80493194367E-01 -0.89963340053E-01  0.12314150958E+00  0.51100000000E-03 0. -1.
</event>
<event>
 8    1  0.1054086E+005  0.1043930E+01  0.7957747E-01            NaN
         13   -1    0    0    0    0  0.00000000000E+00  0.00000000000E+00  0.74505805969E-08  0.10566000000E+00  0.10566000000E+00 0.  1.
     999900   -1    0    0    0    0 -0.00000000000E+00 -0.00000000000E+00 -0.74505805969E-08  0.93827000000E+00  0.93827000000E+00 0. -1.
     999902    2    1    2    0    0  0.21805509145E-01 -0.84948013504E-02  0.13289411479E-02  0.10204905469E+01  0.10202213232E+01 0.  0.
     999903    2    3    3    0    0  0.63340949160E-01 -0.51009363927E-01  0.10288147095E+00  0.13265858240E+00  0.19991782590E-01 0.  0.
         14    1    1    2    0    0 -0.21805509145E-01  0.84948013504E-02 -0.13289411479E-02  0.23439453143E-01  0.00000000000E+00 0. -1.
     999901    1    3    3    0    0 -0.41535440014E-01  0.42514562577E-01 -0.10155252980E+00  0.88783196446E+00  0.88000000000E+00 0. -1.
        -11    1    4    4    0    0  0.45704520301E-01 -0.24399442070E-01  0.64531848264E-01  0.82757818426E-01  0.51100000000E-03 0. -1.
         11    1    4    4    0    0  0.17636428859E-01 -0.26609921857E-01  0.38349622681E-01  0.49900763971E-01  0.51100000000E-03 0.  1.
</event>
<event>
 8    1  0.1054086E+005  0.1043930E+01  0.7957747E-01            NaN
         13   -1    0    0    0    0  0.00000000000E+00  0.00000000000E+00  0.74505805969E-08  0.10566000000E+00  0.10566000000E+00 0.  1.
     999900   -1    0    0    0    0 -0.00000000000E+00 -0.00000000000E+00 -0.74505805969E-08  0.93827000000E+00  0.93827000000E+00 0. -1.
     999902    2    1    2    0    0 -0.11556299196E-01 -0.17241094189E-01 -0.99627686120E-02  0.10209069650E+01  0.10206473295E+01 0.  0.
     999903    2    3    3    0    0  0.42337383989E-01 -0.92850223640E-01 -0.82182059542E-01  0.13307990107E+00  0.23297017969E-01 0.  0.
         14    1    1    2    0    0  0.11556299196E-01  0.17241094189E-01  0.99627686120E-02  0.23023034951E-01  0.00000000000E+00 0.  1.
     999901    1    3    3    0    0 -0.53893683185E-01  0.75609129451E-01  0.72219290930E-01  0.88782706397E+00  0.88000000000E+00 0.  1.
        -11    1    4    4    0    0  0.28914474588E-01 -0.36522890332E-01 -0.40533129071E-01  0.61750822117E-01  0.51100000000E-03 0.  1.
         11    1    4    4    0    0  0.13422909401E-01 -0.56327333309E-01 -0.41648930470E-01  0.71329078957E-01  0.51100000000E-03 0. -1.
</event>
<event>
 8    1  0.1054086E+005  0.1043930E+01  0.7957747E-01            NaN
         13   -1    0    0    0    0  0.00000000000E+00  0.00000000000E+00  0.74505805969E-08  0.10566000000E+00  0.10566000000E+00 0. -1.
     999900   -1    0    0    0    0 -0.00000000000E+00 -0.00000000000E+00 -0.74505805969E-08  0.93827000000E+00  0.93827000000E+00 0. -1.
     999902    2    1    2    0    0  0.12025577007E-01  0.22485366414E-01  0.52774693549E-02  0.10178904553E+01  0.10175573306E+01 0.  0.
     999903    2    3    3    0    0 -0.46133839843E-01 -0.84225523562E-01  0.79817147613E-01  0.12641645375E+00  0.19699561634E-01 0.  0.
         14    1    1    2    0    0 -0.12025577007E-01 -0.22485366414E-01 -0.52774693549E-02  0.26039544695E-01  0.00000000000E+00 0.  1.
     999901    1    3    3    0    0  0.58159416850E-01  0.10671088998E+00 -0.74539678258E-01  0.89147400155E+00  0.88000000000E+00 0. -1.
        -11    1    4    4    0    0 -0.32423621971E-01 -0.68444289709E-01  0.70685612078E-01  0.10359840217E+00  0.51100000000E-03 0. -1.
         11    1    4    4    0    0 -0.13710217872E-01 -0.15781233852E-01  0.91315355351E-02  0.22818051587E-01  0.51100000000E-03 0.  1.
</event>
<event>
 8    1  0.1054086E+005  0.1043930E+01  0.7957747E-01            NaN
         13   -1    0    0    0    0  0.00000000000E+00  0.00000000000E+00  0.74505805969E-08  0.10566000000E+00  0.10566000000E+00 0. -1.
     999900   -1    0    0    0    0 -0.00000000000E+00 -0.00000000000E+00 -0.74505805969E-08  0.93827000000E+00  0.93827000000E+00 0.  1.
     999902    2    1    2    0    0 -0.22226169640E-01 -0.27528667729E-02  0.74929580469E-02  0.10203137913E+01  0.10200404440E+01 0.  0.
     999903    2    3    3    0    0 -0.11270393857E+00 -0.13320783961E-01  0.67376002839E-01  0.13358729087E+00  0.20649878166E-01 0.  0.
         14    1    1    2    0    0  0.22226169640E-01  0.27528667729E-02 -0.74929580469E-02  0.23616208684E-01  0.00000000000E+00 0. -1.
     999901    1    3    3    0    0  0.90477768930E-01  0.10567917188E-01 -0.59883044792E-01  0.88672650045E+00  0.88000000000E+00 0.  1.
        -11    1    4    4    0    0 -0.69266154335E-01  0.18445007723E-02  0.42359178146E-01  0.81214305474E-01  0.51100000000E-03 0. -1.
         11    1    4    4    0    0 -0.43437784235E-01 -0.15165284733E-01  0.25016824693E-01  0.52372985393E-01  0.51100000000E-03 0.  1.
</event>
<event>
 8    1  0.1054086E+005  0.1043930E+01  0.7957747E-01            NaN
         13   -1    0    0    0    0  0.00000000000E+00  0.00000000000E+00  0.74505805969E-08  0.10566000000E+00  0.10566000000E+00 0. -1.
     999900   -1    0    0    0    0 -0.00000000000E+00 -0.00000000000E+00 -0.74505805969E-08  0.93827000000E+00  0.93827000000E+00 0.  1.
     999902    2    1    2    0    0  0.17655893318E-01  0.58934795322E-02 -0.14054432319E-01  0.10206063910E+01  0.10203398525E+01 0.  0.
     999903    2    3    3    0    0 -0.40277685150E-01  0.56247104947E-01  0.10713770771E+00  0.12899026175E+00  0.19338316248E-01 0.  0.
         14    1    1    2    0    0 -0.17655893318E-01 -0.58934795322E-02  0.14054432319E-01  0.23323609019E-01  0.00000000000E+00 0. -1.
     999901    1    3    3    0    0  0.57933578468E-01 -0.50353625415E-01 -0.12119214003E+00  0.89161612924E+00  0.88000000000E+00 0.  1.
        -11    1    4    4    0    0 -0.90409246244E-02  0.20790870645E-02  0.14622544121E-01  0.17324573260E-01  0.51100000000E-03 0.  1.
         11    1    4    4    0    0 -0.31236760525E-01  0.54168017883E-01  0.92515163592E-01  0.11166568849E+00  0.51100000000E-03 0. -1.
</event>
<event>
 8    1  0.1054086E+005  0.1043930E+01  0.7957747E-01            NaN
         13   -1    0    0    0    0  0.00000000000E+00  0.00000000000E+00  0.74505805969E-08  0.10566000000E+00  0.10566000000E+00 0.  1.
     999900   -1    0    0    0    0 -0.00000000000E+00 -0.00000000000E+00 -0.74505805969E-08  0.93827000000E+00  0.93827000000E+00 0.  1.
     999902    2    1    2    0    0  0.31891188997E-02 -0.19115131618E-01 -0.12892819989E-01  0.10206537558E+01  0.10203883112E+01 0.  0.
     999903    2    3    3    0    0 -0.12276586187E+00 -0.40315216907E-01 -0.12930588369E-01  0.13143269094E+00  0.20262738620E-01 0.  0.
         14    1    1    2    0    0 -0.31891188997E-02  0.19115131618E-01  0.12892819989E-01  0.23276244186E-01  0.00000000000E+00 0.  1.
     999901    1    3    3    0    0  0.12595498077E+00  0.21200085289E-01  0.37768379975E-04  0.88922106488E+00  0.88000000000E+00 0.  1.
        -11    1    4    4    0    0 -0.62307415047E-01 -0.15034588866E-01 -0.15143127646E-01  0.65862191492E-01  0.51100000000E-03 0. -1.
         11    1    4    4    0    0 -0.60458446822E-01 -0.25280628041E-01  0.22125392774E-02  0.65570499444E-01  0.51100000000E-03 0.  1.
</event>
<event>
 8    1  0.1054086E+005  0.1043930E+01  0.7957747E-01            NaN
         13   -1    0    0    0    0  0.00000000000E+00  0.00000000000E+00  0.74505805969E-08  0.10566000000E+00  0.10566000000E+00 0.  1.
     999900   -1    0    0    0    0 -0.00000000000E+00 -0.00000000000E+00 -0.74505805969E-08  0.93827000000E+00  0.93827000000E+00 0.  1.
     999902    2    1    2    0    0 -0.12899490187E-01 -0.16968597510E-01  0.53496383497E-02  0.10219539044E+01  0.10217175901E+01 0.  0.
     999903    2    3    3    0    0 -0.11823068136E+00  0.56889936589E-01 -0.38028412624E-02  0.13255325743E+00  0.18464711051E-01 0.  0.
         14    1    1    2    0    0  0.12899490187E-01  0.16968597510E-01 -0.53496383497E-02  0.21976095627E-01  0.00000000000E+00 0. -1.
     999901    1    3    3    0    0  0.10533119117E+00 -0.73858534099E-01  0.91524796120E-02  0.88940064694E+00  0.88000000000E+00 0.  1.
        -11    1    4    4    0    0 -0.10733724711E+00  0.50906385330E-01 -0.88541301185E-02  0.11912766860E+00  0.51100000000E-03 0.  1.
         11    1    4    4    0    0 -0.10893434254E-01  0.59835512591E-02  0.50512888562E-02  0.13425588837E-01  0.51100000000E-03 0. -1.
</event>
<event>
 8    1  0.1054086E+005  0.1043930E+01  0.7957747E-01            NaN
         13   -1    0    0    0    0  0.00000000000E+00  0.00000000000E+00  0.74505805969E-08  0.10566000000E+00  0.10566000000E+00 0.  1.
     999900   -1    0    0    0    0 -0.00000000000E+00 -0.00000000000E+00 -0.74505805969E-08  0.93827000000E+00  0.93827000000E+00 0. -1.
     999902    2    1    2    0    0 -0.23129475177E-01  0.53433669447E-02 -0.79679941674E-02  0.10188897699E+01  0.10185820291E+01 0.  0.
     999903    2    3    3    0    0 -0.16828913246E-01  0.23137344858E-01  0.12409225534E+00  0.12883570849E+00  0.19524418038E-01 0.  0.
         14    1    1    2    0    0  0.23129475177E-01 -0.53433669447E-02  0.79679941674E-02  0.25040230097E-01  0.00000000000E+00 0.  1.
     999901    1    3    3    0    0 -0.63005619310E-02 -0.17793977913E-01 -0.13206024951E+00  0.89005406141E+00  0.88000000000E+00 0. -1.
        -11    1    4    4    0    0 -0.94071518464E-02 -0.54807017246E-03  0.43237594917E-01  0.44255458669E-01  0.51100000000E-03 0. -1.
         11    1    4    4    0    0 -0.74217613994E-02  0.23685415030E-01  0.80854660423E-01  0.84580249825E-01  0.51100000000E-03 0.  1.
</event>
<event>
 8    1  0.1054086E+005  0.1043930E+01  0.7957747E-01            NaN
         13   -1    0    0    0    0  0.00000000000E+00  0.00000000000E+00  0.74505805969E-08  0.10566000000E+00  0.10566000000E+00 0. -1.
     999900   -1    0    0    0    0 -0.00000000000E+00 -0.00000000000E+00 -0.74505805969E-08  0.93827000000E+00  0.93827000000E+00 0.  1.
     999902    2    1    2    0    0  0.20909102860E-01  0.78194439348E-02  0.29665706460E-02  0.10214103458E+01  0.10211620633E+01 0.  0.
     999903    2    3    3    0    0 -0.67940822697E-01  0.46170290757E-01 -0.98971656691E-01  0.13025575820E+00  0.20579664228E-01 0.  0.
         14    1    1    2    0    0 -0.20909102860E-01 -0.78194439348E-02 -0.29665706460E-02  0.22519654244E-01  0.00000000000E+00 0. -1.
     999901    1    3    3    0    0  0.88849925557E-01 -0.38350846822E-01  0.10193822734E+00  0.89115458755E+00  0.88000000000E+00 0.  1.
        -11    1    4    4    0    0 -0.26583436577E-01  0.30146685038E-01 -0.50665812570E-01  0.64674472579E-01  0.51100000000E-03 0.  1.
         11    1    4    4    0    0 -0.41357386121E-01  0.16023605719E-01 -0.48305844121E-01  0.65581285625E-01  0.51100000000E-03 0. -1.
</event>
<event>
 8    1  0.1054086E+005  0.1043930E+01  0.7957747E-01            NaN
         13   -1    0    0    0    0  0.00000000000E+00  0.00000000000E+00  0.74505805969E-08  0.10566000000E+00  0.10566000000E+00 0.  1.
     999900   -1    0    0    0    0 -0.00000000000E+00 -0.00000000000E+00 -0.74505805969E-08  0.93827000000E+00  0.93827000000E+00 0. -1.
     999902    2    1    2    0    0 -0.49738716771E-02 -0.90593334069E-02 -0.17388200560E-01  0.10237022854E+01  0.10235024224E+01 0.  0.
     999903    2    3    3    0    0  0.74589559968E-01  0.10566586839E+00  0.17503848029E-01  0.13201306447E+00  0.19803694006E-01 0.  0.
         14    1    1    2    0    0  0.49738716771E-02  0.90593334069E-02  0.17388200560E-01  0.20227714650E-01  0.00000000000E+00 0.  1.
     999901    1    3    3    0    0 -0.79563431645E-01 -0.11472520179E+00 -0.34892048589E-01  0.89168922088E+00  0.88000000000E+00 0. -1.
        -11    1    4    4    0    0  0.50070828691E-01  0.84915656590E-01  0.10537119209E-01  0.99141558502E-01  0.51100000000E-03 0.  1.
         11    1    4    4    0    0  0.24518731277E-01  0.20750211796E-01  0.69667288196E-02  0.32871505966E-01  0.51100000000E-03 0. -1.
</event>
<event>
 8    1  0.1054086E+005  0.1043930E+01  0.7957747E-01            NaN
         13   -1    0    0    0    0  0.00000000000E+00  0.00000000000E+00  0.74505805969E-08  0.10566000000E+00  0.10566000000E+00 0. -1.
     999900   -1    0    0    0    0 -0.00000000000E+00 -0.00000000000E+00 -0.74505805969E-08  0.93827000000E+00  0.93827000000E+00 0.  1.
     999902    2    1    2    0    0  0.14542154908E-01 -0.34603801972E-02  0.13757487178E-01  0.10236145637E+01  0.10234129460E+01 0.  0.
     999903    2    3    3    0    0  0.61155955201E-01  0.10670438918E+00  0.51348946613E-01  0.13472635887E+00  0.19712938089E-01 0.  0.
         14    1    1    2    0    0 -0.14542154908E-01  0.34603801972E-02 -0.13757487178E-01  0.20315436346E-01  0.00000000000E+00 0.  1.
     999901    1    3    3    0    0 -0.46613800293E-01 -0.11016476938E+00 -0.37591459435E-01  0.88888820479E+00  0.88000000000E+00 0.  1.
        -11    1    4    4    0    0  0.43032117373E-01  0.70460440500E-01  0.43943456359E-01  0.93529274983E-01  0.51100000000E-03 0.  1.
         11    1    4    4    0    0  0.18123837828E-01  0.36243948680E-01  0.74054902536E-02  0.41197083883E-01  0.51100000000E-03 0. -1.
</event>
<event>
 8    1  0.1054086E+005  0.1043930E+01  0.7957747E-01            NaN
         13   -1    0    0    0    0  0.00000000000E+00  0.00000000000E+00  0.74505805969E-08  0.10566000000E+00  0.10566000000E+00 0.  1.
     999900   -1    0    0    0    0 -0.00000000000E+00 -0.00000000000E+00 -0.74505805969E-08  0.93827000000E+00  0.93827000000E+00 0. -1.
     999902    2    1    2    0    0 -0.17752419788E-01  0.38239985966E-02  0.17168783983E-01  0.10189392314E+01  0.10186327202E+01 0.  0.
     999903    2    3    3    0    0  0.85531159460E-01  0.68938001864E-01  0.65356791155E-01  0.12920364413E+00  0.18816061375E-01 0.  0.
         14    1    1    2    0    0  0.17752419788E-01 -0.38239985966E-02 -0.17168783983E-01  0.24990768636E-01  0.00000000000E+00 0. -1.
     999901    1    3    3    0    0 -0.10328357925E+00 -0.65114003267E-01 -0.48188007173E-01  0.88973558724E+00  0.88000000000E+00 0. -1.
        -11    1    4    4    0    0  0.52681730331E-01  0.30461332735E-01  0.35189293738E-01  0.70297973068E-01  0.51100000000E-03 0.  1.
         11    1    4    4    0    0  0.32849429129E-01  0.38476669129E-01  0.30167497417E-01  0.58905671058E-01  0.51100000000E-03 0. -1.
</event>
<event>
 8    1  0.1054086E+005  0.1043930E+01  0.7957747E-01            NaN
         13   -1    0    0    0    0  0.00000000000E+00  0.00000000000E+00  0.74505805969E-08  0.10566000000E+00  0.10566000000E+00 0.  1.
     999900   -1    0    0    0    0 -0.00000000000E+00 -0.00000000000E+00 -0.74505805969E-08  0.93827000000E+00  0.93827000000E+00 0.  1.
     999902    2    1    2    0    0 -0.16918443602E-02  0.16240759401E-01 -0.17605511615E-01  0.10199179480E+01  0.10196352495E+01 0.  0.
     999903    2    3    3    0    0 -0.86839352890E-01  0.88139209359E-01 -0.42394795185E-01  0.13254317152E+00  0.21465791853E-01 0.  0.
         14    1    1    2    0    0  0.16918443602E-02 -0.16240759401E-01  0.17605511615E-01  0.24012052025E-01  0.00000000000E+00 0.  1.
     999901    1    3    3    0    0  0.85147508530E-01 -0.71898449958E-01  0.24789283570E-01  0.88737477646E+00  0.88000000000E+00 0. -1.
        -11    1    4    4    0    0 -0.18292127400E-01  0.81581839969E-02 -0.96166805977E-02  0.22223851099E-01  0.51100000000E-03 0.  1.
         11    1    4    4    0    0 -0.68547225490E-01  0.79981025362E-01 -0.32778114588E-01  0.11031932042E+00  0.51100000000E-03 0. -1.
</event>
<event>
 8    1  0.1054086E+005  0.1043930E+01  0.7957747E-01            NaN
         13   -1    0    0    0    0  0.00000000000E+00  0.00000000000E+00  0.74505805969E-08  0.10566000000E+00  0.10566000000E+00 0. -1.
     999900   -1    0    0    0    0 -0.00000000000E+00 -0.00000000000E+00 -0.74505805969E-08  0.93827000000E+00  0.93827000000E+00 0.  1.
     999902    2    1    2    0    0 -0.10969934335E-01  0.15524161034E-01  0.16325477120E-01  0.10188728605E+01  0.10185646988E+01 0.  0.
     999903    2    3    3    0    0  0.41010834921E-01 -0.32256188622E-01  0.11772961700E+00  0.13024033706E+00  0.19491854565E-01 0.  0.
         14    1    1    2    0    0  0.10969934335E-01 -0.15524161034E-01 -0.16325477120E-01  0.25057139468E-01  0.00000000000E+00 0.  1.
     999901    1    3    3    0    0 -0.51980769256E-01  0.47780349656E-01 -0.10140413988E+00  0.88863252347E+00  0.88000000000E+00 0.  1.
        -11    1    4    4    0    0  0.19669507453E-01 -0.75661392297E-02  0.63910128075E-01  0.67297114186E-01  0.51100000000E-03 0. -1.
         11    1    4    4    0    0  0.21341327469E-01 -0.24690049393E-01  0.53819488922E-01  0.62943222875E-01  0.51100000000E-03 0.  1.
</event>
<event>
 8    1  0.1217641E+005  0.1043930E+01  0.7957747E-01            NaN
         13   -1    0    0    0    0  0.00000000000E+00  0.00000000000E+00  0.74505805969E-08  0.10566000000E+00  0.10566000000E+00 0. -1.
     999900   -1    0    0    0    0 -0.00000000000E+00 -0.00000000000E+00 -0.74505805969E-08  0.93827000000E+00  0.93827000000E+00 0.  1.
     999902    2    1    2    0    0  0.22088153415E-02 -0.12917184133E-01  0.19942287825E-01  0.10200673230E+01  0.10197881721E+01 0.  0.
     999903    2    3    3    0    0  0.11774696596E-01 -0.12827963514E+00  0.24118709370E-01  0.13247651428E+00  0.19339245615E-01 0.  0.
         14    1    1    2    0    0 -0.22088153415E-02  0.12917184133E-01 -0.19942287825E-01  0.23862677026E-01  0.00000000000E+00 0. -1.
     999901    1    3    3    0    0 -0.95658812543E-02  0.11536245101E+00 -0.41764215446E-02  0.88759080870E+00  0.88000000000E+00 0. -1.
        -11    1    4    4    0    0 -0.14104418299E-02 -0.83719669783E-01  0.13633058431E-01  0.84835687407E-01  0.51100000000E-03 0.  1.
         11    1    4    4    0    0  0.13185138426E-01 -0.44559965360E-01  0.10485650939E-01  0.47640826869E-01  0.51100000000E-03 0. -1.
</event>
<event>
 8    1  0.1054086E+005  0.1043930E+01  0.7957747E-01            NaN
         13   -1    0    0    0    0  0.00000000000E+00  0.00000000000E+00  0.74505805969E-08  0.10566000000E+00  0.10566000000E+00 0. -1.
     999900   -1    0    0    0    0 -0.00000000000E+00 -0.00000000000E+00 -0.74505805969E-08  0.93827000000E+00  0.93827000000E+00 0.  1.
     999902    2    1    2    0    0 -0.16676361598E-01  0.16524324964E-01  0.54503832911E-03  0.10204469972E+01  0.10201767605E+01 0.  0.
     999903    2    3    3    0    0  0.69027719743E-01  0.85286284777E-01 -0.68563476759E-01  0.13092500003E+00  0.20045668425E-01 0.  0.
         14    1    1    2    0    0  0.16676361598E-01 -0.16524324964E-01 -0.54503832911E-03  0.23483002756E-01  0.00000000000E+00 0.  1.
     999901    1    3    3    0    0 -0.85704081341E-01 -0.68761959813E-01  0.69108515088E-01  0.88952199722E+00  0.88000000000E+00 0. -1.
        -11    1    4    4    0    0  0.50119250871E-01  0.62178464455E-01 -0.59898683801E-01  0.99830928033E-01  0.51100000000E-03 0. -1.
         11    1    4    4    0    0  0.18908468872E-01  0.23107820322E-01 -0.86647929580E-02  0.31094071993E-01  0.51100000000E-03 0.  1.
</event>
<event>
 8    1  0.1054086E+005  0.1043930E+01  0.7957747E-01            NaN
         13   -1    0    0    0    0  0.00000000000E+00  0.00000000000E+00  0.74505805969E-08  0.10566000000E+00  0.10566000000E+00 0.  1.
     999900   -1    0    0    0    0 -0.00000000000E+00 -0.00000000000E+00 -0.74505805969E-08  0.93827000000E+00  0.93827000000E+00 0. -1.
     999902    2    1    2    0    0 -0.80060899496E-02  0.92650612850E-02 -0.19976753763E-01  0.10204990477E+01  0.10202300215E+01 0.  0.
     999903    2    3    3    0    0  0.48153742376E-01 -0.92594854321E-01 -0.75692342164E-01  0.13109835282E+00  0.23766730935E-01 0.  0.
         14    1    1    2    0    0  0.80060899496E-02 -0.92650612850E-02  0.19976753763E-01  0.23430952345E-01  0.00000000000E+00 0.  1.
     999901    1    3    3    0    0 -0.56159832326E-01  0.10185991561E+00  0.55715588401E-01  0.88940069483E+00  0.88000000000E+00 0. -1.
        -11    1    4    4    0    0  0.15354995727E-01 -0.31975818339E-01 -0.40051998268E-01  0.53503761910E-01  0.51100000000E-03 0.  1.
         11    1    4    4    0    0  0.32798746649E-01 -0.60619035982E-01 -0.35640343896E-01  0.77594590914E-01  0.51100000000E-03 0. -1.
</event>
<event>
 8    1  0.1054086E+005  0.1043930E+01  0.7957747E-01            NaN
         13   -1    0    0    0    0  0.00000000000E+00  0.00000000000E+00  0.74505805969E-08  0.10566000000E+00  0.10566000000E+00 0. -1.
     999900   -1    0    0    0    0 -0.00000000000E+00 -0.00000000000E+00 -0.74505805969E-08  0.93827000000E+00  0.93827000000E+00 0. -1.
     999902    2    1    2    0    0  0.65372139798E-02  0.48494468842E-02  0.22885920913E-01  0.10196397205E+01  0.10193503529E+01 0.  0.
     999903    2    3    3    0    0  0.68493388342E-01 -0.65735934751E-01  0.89726862006E-01  0.13212150940E+00  0.19814795402E-01 0.  0.
         14    1    1    2    0    0 -0.65372139798E-02 -0.48494468842E-02 -0.22885920913E-01  0.24290279491E-01  0.00000000000E+00 0.  1.
     999901    1    3    3    0    0 -0.61956174362E-01  0.70585381635E-01 -0.66840941093E-01  0.88751821111E+00  0.88000000000E+00 0. -1.
        -11    1    4    4    0    0  0.41319496664E-01 -0.51990126194E-01  0.58536418436E-01  0.88527099978E-01  0.51100000000E-03 0.  1.
         11    1    4    4    0    0  0.27173891678E-01 -0.13745808556E-01  0.31190443570E-01  0.43594409423E-01  0.51100000000E-03 0. -1.
</event>
<event>
 8    1  0.1054086E+005  0.1043930E+01  0.7957747E-01            NaN
         13   -1    0    0    0    0  0.00000000000E+00  0.00000000000E+00  0.74505805969E-08  0.10566000000E+00  0.10566000000E+00 0. -1.
     999900   -1    0    0    0    0 -0.00000000000E+00 -0.00000000000E+00 -0.74505805969E-08  0.93827000000E+00  0.93827000000E+00 0. -1.
     999902    2    1    2    0    0 -0.11986237227E-01 -0.15106995871E-01  0.16020928213E-01  0.10188588742E+01  0.10185503641E+01 0.  0.
     999903    2    3    3    0    0  0.56017305608E-01  0.63867485509E-01 -0.91220450392E-01  0.12624352378E+00  0.19981553870E-01 0.  0.
         14    1    1    2    0    0  0.11986237227E-01  0.15106995871E-01 -0.16020928213E-01  0.25071125781E-01  0.00000000000E+00 0.  1.
     999901    1    3    3    0    0 -0.68003542835E-01 -0.78974481380E-01  0.10724137860E+00  0.89261535044E+00  0.88000000000E+00 0.  1.
        -11    1    4    4    0    0  0.86599249084E-02  0.23393010768E-01 -0.27389391152E-01  0.37049522546E-01  0.51100000000E-03 0.  1.
         11    1    4    4    0    0  0.47357380699E-01  0.40474474741E-01 -0.63831059239E-01  0.89194001238E-01  0.51100000000E-03 0. -1.
</event>
<event>
 8    1  0.1054086E+005  0.1043930E+01  0.7957747E-01            NaN
         13   -1    0    0    0    0  0.00000000000E+00  0.00000000000E+00  0.74505805969E-08  0.10566000000E+00  0.10566000000E+00 0.  1.
     999900   -1    0    0    0    0 -0.00000000000E+00 -0.00000000000E+00 -0.74505805969E-08  0.93827000000E+00  0.93827000000E+00 0. -1.
     999902    2    1    2    0    0 -0.76464574864E-02 -0.85928252853E-02 -0.19152407002E-01  0.10215890141E+01  0.10213446989E+01 0.  0.
     999903    2    3    3    0    0 -0.42958489744E-01 -0.82773543507E-01 -0.94655741457E-01  0.13454308961E+00  0.21100763630E-01 0.  0.
         14    1    1    2    0    0  0.76464574864E-02  0.85928252853E-02  0.19152407002E-01  0.22340985933E-01  0.00000000000E+00 0.  1.
     999901    1    3    3    0    0  0.35312032258E-01  0.74180718222E-01  0.75503334454E-01  0.88704592445E+00  0.88000000000E+00 0.  1.
        -11    1    4    4    0    0 -0.15070592232E-01 -0.33879711974E-01 -0.52225380029E-01  0.64052393194E-01  0.51100000000E-03 0. -1.
         11    1    4    4    0    0 -0.27887897512E-01 -0.48893831533E-01 -0.42430361428E-01  0.70490696418E-01  0.51100000000E-03 0.  1.
</event>
<event>
 8    1  0.1054086E+005  0.1043930E+01  0.7957747E-01            NaN
         13   -1    0    0    0    0  0.00000000000E+00  0.00000000000E+00  0.74505805969E-08  0.10566000000E+00  0.10566000000E+00 0.  1.
     999900   -1    0    0    0    0 -0.00000000000E+00 -0.00000000000E+00 -0.74505805969E-08  0.93827000000E+00  0.93827000000E+00 0. -1.
     999902    2    1    2    0    0  0.64312634023E-03  0.49092683049E-02 -0.23315831153E-01  0.10200942598E+01  0.10198157463E+01 0.  0.
     999903    2    3    3    0    0  0.11570227425E+00 -0.17726512323E-01  0.51020700515E-01  0.12920879805E+00  0.19762492399E-01 0.  0.
         14    1    1    2    0    0 -0.64312634023E-03 -0.49092683049E-02  0.23315831153E-01  0.23835740164E-01  0.00000000000E+00 0.  1.
     999901    1    3    3    0    0 -0.11505914791E+00  0.22635780628E-01 -0.74336531668E-01  0.89088546179E+00  0.88000000000E+00 0. -1.
        -11    1    4    4    0    0  0.29589635640E-01 -0.13312297811E-01  0.12633646006E-01  0.34822893945E-01  0.51100000000E-03 0.  1.
         11    1    4    4    0    0  0.86112638614E-01 -0.44142145124E-02  0.38387054509E-01  0.94385904105E-01  0.51100000000E-03 0. -1.
</event>
<event>
 8    1  0.1054086E+005  0.1043930E+01  0.7957747E-01            NaN
         13   -1    0    0    0    0  0.00000000000E+00  0.00000000000E+00  0.74505805969E-08  0.10566000000E+00  0.10566000000E+00 0.  1.
     999900   -1    0    0    0    0 -0.00000000000E+00 -0.00000000000E+00 -0.74505805969E-08  0.93827000000E+00  0.93827000000E+00 0. -1.
     999902    2    1    2    0    0 -0.13596975423E-01 -0.14012309642E-01 -0.14716168004E-01  0.10194802932E+01  0.10191870682E+01 0.  0.
     999903    2    3    3    0    0  0.85694849398E-01 -0.73961211119E-01  0.58464615903E-01  0.12885794652E+00  0.19297437775E-01 0.  0.
         14    1    1    2    0    0  0.13596975423E-01  0.14012309642E-01  0.14716168004E-01  0.24449706806E-01  0.00000000000E+00 0. -1.
     999901    1    3    3    0    0 -0.99291824821E-01  0.59948901477E-01 -0.73180783908E-01  0.89062234668E+00  0.88000000000E+00 0. -1.
        -11    1    4    4    0    0  0.37711597907E-01 -0.37242265253E-01  0.37392109217E-01  0.64865876164E-01  0.51100000000E-03 0.  1.
         11    1    4    4    0    0  0.47983251492E-01 -0.36718945866E-01  0.21072506687E-01  0.63992070354E-01  0.51100000000E-03 0. -1.
</event>
<event>
 8    1  0.1054086E+005  0.1043930E+01  0.7957747E-01            NaN
         13   -1    0    0    0    0  0.00000000000E+00  0.00000000000E+00  0.74505805969E-08  0.10566000000E+00  0.10566000000E+00 0.  1.
     999900   -1    0    0    0    0 -0.00000000000E+00 -0.00000000000E+00 -0.74505805969E-08  0.93827000000E+00  0.93827000000E+00 0.  1.
     999902    2    1    2    0    0  0.13183950696E-01  0.15885974481E-01  0.11277913855E-01  0.10204061380E+01  0.10201349491E+01 0.  0.
     999903    2    3    3    0    0 -0.10046345615E+00  0.63094092828E-01 -0.48778576430E-01  0.12981581608E+00  0.19975635502E-01 0.  0.
         14    1    1    2    0    0 -0.13183950696E-01 -0.15885974481E-01 -0.11277913855E-01  0.23523861972E-01  0.00000000000E+00 0. -1.
     999901    1    3    3    0    0  0.11364740685E+00 -0.47208118347E-01  0.60056490285E-01  0.89059032195E+00  0.88000000000E+00 0. -1.
        -11    1    4    4    0    0 -0.48425308632E-01  0.35833452256E-01 -0.15134252805E-01  0.62115646545E-01  0.51100000000E-03 0. -1.
         11    1    4    4    0    0 -0.52038147522E-01  0.27260640572E-01 -0.33644323624E-01  0.67700169535E-01  0.51100000000E-03 0.  1.
</event>
<event>
 8    1  0.1054086E+005  0.1043930E+01  0.7957747E-01            NaN
         13   -1    0    0    0    0  0.00000000000E+00  0.00000000000E+00  0.74505805969E-08  0.10566000000E+00  0.10566000000E+00 0.  1.
     999900   -1    0    0    0    0 -0.00000000000E+00 -0.00000000000E+00 -0.74505805969E-08  0.93827000000E+00  0.93827000000E+00 0. -1.
     999902    2    1    2    0    0  0.27523989599E-01 -0.23892603898E-02  0.50131509137E-02  0.10158513560E+01  0.10154632279E+01 0.  0.
     999903    2    3    3    0    0  0.71241073012E-01  0.99934507982E-01 -0.31812801894E-01  0.12808027750E+00  0.18174343217E-01 0.  0.
         14    1    1    2    0    0 -0.27523989599E-01  0.23892603898E-02 -0.50131509137E-02  0.28078644033E-01  0.00000000000E+00 0.  1.
     999901    1    3    3    0    0 -0.43717083413E-01 -0.10232376837E+00  0.36825952808E-01  0.88777107846E+00  0.88000000000E+00 0.  1.
        -11    1    4    4    0    0  0.12827508879E-01  0.28770279017E-01 -0.31961034061E-02  0.31666230227E-01  0.51100000000E-03 0.  1.
         11    1    4    4    0    0  0.58413564133E-01  0.71164228965E-01 -0.28616698488E-01  0.96414047277E-01  0.51100000000E-03 0. -1.
</event>
<event>
 8    1  0.1054086E+005  0.1043930E+01  0.7957747E-01            NaN
         13   -1    0    0    0    0  0.00000000000E+00  0.00000000000E+00  0.74505805969E-08  0.10566000000E+00  0.10566000000E+00 0. -1.
     999900   -1    0    0    0    0 -0.00000000000E+00 -0.00000000000E+00 -0.74505805969E-08  0.93827000000E+00  0.93827000000E+00 0. -1.
     999902    2    1    2    0    0 -0.92956368886E-03  0.81291223327E-03 -0.23639363836E-01  0.10202584044E+01  0.10199837584E+01 0.  0.
     999903    2    3    3    0    0  0.80231224284E-01  0.79958664665E-01  0.58845943959E-01  0.12916079493E+00  0.19728872773E-01 0.  0.
         14    1    1    2    0    0  0.92956368886E-03 -0.81291223327E-03  0.23639363836E-01  0.23671595585E-01  0.00000000000E+00 0. -1.
     999901    1    3    3    0    0 -0.81160787973E-01 -0.79145752432E-01 -0.82485307795E-01  0.89109760949E+00  0.88000000000E+00 0. -1.
        -11    1    4    4    0    0  0.30068993858E-01  0.43626867725E-01  0.25245669034E-01  0.58694573047E-01  0.51100000000E-03 0. -1.
         11    1    4    4    0    0  0.50162230426E-01  0.36331796939E-01  0.33600274925E-01  0.70466221881E-01  0.51100000000E-03 0.  1.
</event>
<event>
 8    1  0.1054086E+005  0.1043930E+01  0.7957747E-01            NaN
         13   -1    0    0    0    0  0.00000000000E+00  0.00000000000E+00  0.74505805969E-08  0.10566000000E+00  0.10566000000E+00 0.  1.
     999900   -1    0    0    0    0 -0.00000000000E+00 -0.00000000000E+00 -0.74505805969E-08  0.93827000000E+00  0.93827000000E+00 0.  1.
     999902    2    1    2    0    0 -0.25595744836E-01  0.26971956406E-02  0.56096271821E-02  0.10175883042E+01  0.10172473013E+01 0.  0.
     999903    2    3    3    0    0  0.14889670904E-01 -0.22159826349E-01  0.12409582152E+00  0.12837746385E+00  0.19189583159E-01 0.  0.
         14    1    1    2    0    0  0.25595744836E-01 -0.26971956406E-02 -0.56096271821E-02  0.26341695753E-01  0.00000000000E+00 0.  1.
     999901    1    3    3    0    0 -0.40485415740E-01  0.24857021990E-01 -0.11848619434E+00  0.88921084040E+00  0.88000000000E+00 0.  1.
        -11    1    4    4    0    0  0.34154206887E-02 -0.11163074013E-01  0.90007383487E-01  0.90762709981E-01  0.51100000000E-03 0.  1.
         11    1    4    4    0    0  0.11474250216E-01 -0.10996752336E-01  0.34088438035E-01  0.37614753869E-01  0.51100000000E-03 0. -1.
</event>
<event>
 8    1  0.1054086E+005  0.1043930E+01  0.7957747E-01            NaN
         13   -1    0    0    0    0  0.00000000000E+00  0.00000000000E+00  0.74505805969E-08  0.10566000000E+00  0.10566000000E+00 0.  1.
     999900   -1    0    0    0    0 -0.00000000000E+00 -0.00000000000E+00 -0.74505805969E-08  0.93827000000E+00  0.93827000000E+00 0.  1.
     999902    2    1    2    0    0  0.16222262044E-02  0.23135164958E-01  0.47532953761E-02  0.10202559363E+01  0.10199812323E+01 0.  0.
     999903    2    3    3    0    0 -0.70856488167E-01  0.56164905810E-01 -0.92965935462E-01  0.13127158553E+00  0.20357442180E-01 0.  0.
         14    1    1    2    0    0 -0.16222262044E-02 -0.23135164958E-01 -0.47532953761E-02  0.23674063708E-01  0.00000000000E+00 0. -1.
     999901    1    3    3    0    0  0.72478714371E-01 -0.33029740852E-01  0.97719230839E-01  0.88898435076E+00  0.88000000000E+00 0. -1.
        -11    1    4    4    0    0 -0.21066325545E-01  0.13228408561E-01 -0.38763801393E-01  0.46061635712E-01  0.51100000000E-03 0.  1.
         11    1    4    4    0    0 -0.49790162621E-01  0.42936497250E-01 -0.54202134070E-01  0.85209949822E-01  0.51100000000E-03 0. -1.
</event>
<event>
 8    1  0.1054086E+005  0.1043930E+01  0.7957747E-01            NaN
         13   -1    0    0    0    0  0.00000000000E+00  0.00000000000E+00  0.74505805969E-08  0.10566000000E+00  0.10566000000E+00 0.  1.
     999900   -1    0    0    0    0 -0.00000000000E+00 -0.00000000000E+00 -0.74505805969E-08  0.93827000000E+00  0.93827000000E+00 0. -1.
     999902    2    1    2    0    0  0.68763898047E-02  0.17091677986E-01  0.15965744035E-01  0.10195514197E+01  0.10192599189E+01 0.  0.
     999903    2    3    3    0    0  0.60379451177E-01 -0.73282554278E-01  0.87080189101E-01  0.13045786800E+00  0.20500856188E-01 0.  0.
         14    1    1    2    0    0 -0.68763898047E-02 -0.17091677986E-01 -0.15965744035E-01  0.24378580265E-01  0.00000000000E+00 0. -1.
     999901    1    3    3    0    0 -0.53503061372E-01  0.90374232263E-01 -0.71114445066E-01  0.88909355173E+00  0.88000000000E+00 0.  1.
        -11    1    4    4    0    0  0.27869401916E-01 -0.47922697379E-01  0.56192554006E-01  0.78937650927E-01  0.51100000000E-03 0.  1.
         11    1    4    4    0    0  0.32510049261E-01 -0.25359856899E-01  0.30887635095E-01  0.51520217077E-01  0.51100000000E-03 0. -1.
</event>
<event>
 8    1  0.1054086E+005  0.1043930E+01  0.7957747E-01            NaN
         13   -1    0    0    0    0  0.00000000000E+00  0.00000000000E+00  0.74505805969E-08  0.10566000000E+00  0.10566000000E+00 0. -1.
     999900   -1    0    0    0    0 -0.00000000000E+00 -0.00000000000E+00 -0.74505805969E-08  0.93827000000E+00  0.93827000000E+00 0.  1.
     999902    2    1    2    0    0  0.14159120312E-01 -0.12083873294E-01 -0.15034290267E-01  0.10200023891E+01  0.10197216989E+01 0.  0.
     999903    2    3    3    0    0 -0.11169381452E+00 -0.38768219455E-01  0.48300543417E-01  0.12839579605E+00  0.13192987043E-01 0.  0.
         14    1    1    2    0    0 -0.14159120312E-01  0.12083873294E-01  0.15034290267E-01  0.23927610947E-01  0.00000000000E+00 0. -1.
     999901    1    3    3    0    0  0.12585293483E+00  0.26684346161E-01 -0.63334833684E-01  0.89160659301E+00  0.88000000000E+00 0.  1.
        -11    1    4    4    0    0 -0.79959439435E-01 -0.32615926303E-01  0.38999862720E-01  0.94755269070E-01  0.51100000000E-03 0.  1.
         11    1    4    4    0    0 -0.31734375081E-01 -0.61522931517E-02  0.93006806973E-02  0.33640526976E-01  0.51100000000E-03 0. -1.
</event>
<event>
 8    1  0.1054086E+005  0.1043930E+01  0.7957747E-01            NaN
         13   -1    0    0    0    0  0.00000000000E+00  0.00000000000E+00  0.74505805969E-08  0.10566000000E+00  0.10566000000E+00 0. -1.
     999900   -1    0    0    0    0 -0.00000000000E+00 -0.00000000000E+00 -0.74505805969E-08  0.93827000000E+00  0.93827000000E+00 0.  1.
     999902    2    1    2    0    0 -0.12942743696E-01  0.17995360496E-01  0.97824567371E-02  0.10197010076E+01  0.10194131159E+01 0.  0.
     999903    2    3    3    0    0  0.90586322708E-01 -0.83520217873E-01  0.26956827193E-01  0.12767038073E+00  0.19787544777E-01 0.  0.
         14    1    1    2    0    0  0.12942743696E-01 -0.17995360496E-01 -0.97824567371E-02  0.24228992417E-01  0.00000000000E+00 0.  1.
     999901    1    3    3    0    0 -0.10352906640E+00  0.10151557837E+00 -0.17174370456E-01  0.89203062685E+00  0.88000000000E+00 0. -1.
        -11    1    4    4    0    0  0.76710685994E-01 -0.62101406851E-01  0.26273534540E-01  0.10213556588E+00  0.51100000000E-03 0. -1.
         11    1    4    4    0    0  0.13875636714E-01 -0.21418811022E-01  0.68329265262E-03  0.25534814855E-01  0.51100000000E-03 0.  1.
</event>
<event>
 8    1  0.1054086E+005  0.1043930E+01  0.7957747E-01            NaN
         13   -1    0    0    0    0  0.00000000000E+00  0.00000000000E+00  0.74505805969E-08  0.10566000000E+00  0.10566000000E+00 0.  1.
     999900   -1    0    0    0    0 -0.00000000000E+00 -0.00000000000E+00 -0.74505805969E-08  0.93827000000E+00  0.93827000000E+00 0.  1.
     999902    2    1    2    0    0 -0.11903945448E-01  0.17292115155E-02  0.11576539282E-01  0.10272353796E+01  0.10270997102E+01 0.  0.
     999903    2    3    3    0    0  0.12131690304E+00 -0.48038081694E-02  0.58256344916E-01  0.13596130327E+00  0.18729835269E-01 0.  0.
         14    1    1    2    0    0  0.11903945448E-01 -0.17292115155E-02 -0.11576539282E-01  0.16694620434E-01  0.00000000000E+00 0. -1.
     999901    1    3    3    0    0 -0.13322084849E+00  0.65330196849E-02 -0.46679805635E-01  0.89127407629E+00  0.88000000000E+00 0.  1.
        -11    1    4    4    0    0  0.69535221640E-01  0.62174951136E-02  0.35696898994E-01  0.78411313041E-01  0.51100000000E-03 0.  1.
         11    1    4    4    0    0  0.51781681397E-01 -0.11021303283E-01  0.22559445922E-01  0.57549990232E-01  0.51100000000E-03 0. -1.
</event>
<event>
 8    1  0.1054086E+005  0.1043930E+01  0.7957747E-01            NaN
         13   -1    0    0    0    0  0.00000000000E+00  0.00000000000E+00  0.74505805969E-08  0.10566000000E+00  0.10566000000E+00 0.  1.
     999900   -1    0    0    0    0 -0.00000000000E+00 -0.00000000000E+00 -0.74505805969E-08  0.93827000000E+00  0.93827000000E+00 0. -1.
     999902    2    1    2    0    0  0.22364817079E-01 -0.83639445746E-03 -0.83728742057E-02  0.10200346109E+01  0.10197546851E+01 0.  0.
     999903    2    3    3    0    0  0.63341524358E-02 -0.12869113333E+00  0.49668167927E-02  0.13055062350E+00  0.20427108003E-01 0.  0.
         14    1    1    2    0    0 -0.22364817079E-01  0.83639445746E-03  0.83728742057E-02  0.23895389119E-01  0.00000000000E+00 0.  1.
     999901    1    3    3    0    0  0.16030664643E-01  0.12785473887E+00 -0.13339690998E-01  0.88948398739E+00  0.88000000000E+00 0.  1.
        -11    1    4    4    0    0  0.11764717992E-01 -0.10181891655E+00  0.87510437001E-02  0.10287051202E+00  0.51100000000E-03 0. -1.
         11    1    4    4    0    0 -0.54305655566E-02 -0.26872216782E-01 -0.37842269074E-02  0.27680111476E-01  0.51100000000E-03 0.  1.
</event>
<event>
 8    1  0.1054086E+005  0.1043930E+01  0.7957747E-01            NaN
         13   -1    0    0    0    0  0.00000000000E+00  0.00000000000E+00  0.74505805969E-08  0.10566000000E+00  0.10566000000E+00 0.  1.
     999900   -1    0    0    0    0 -0.00000000000E+00 -0.00000000000E+00 -0.74505805969E-08  0.93827000000E+00  0.93827000000E+00 0.  1.
     999902    2    1    2    0    0  0.84108858637E-02  0.13571741754E-01  0.17309419533E-01  0.10203810896E+01  0.10201093161E+01 0.  0.
     999903    2    3    3    0    0 -0.76969753576E-01  0.30490289549E-01  0.10064054273E+00  0.13216930917E+00  0.22050095727E-01 0.  0.
         14    1    1    2    0    0 -0.84108858637E-02 -0.13571741754E-01 -0.17309419533E-01  0.23548910374E-01  0.00000000000E+00 0. -1.
     999901    1    3    3    0    0  0.85380639440E-01 -0.16918547794E-01 -0.83331123202E-01  0.88821178046E+00  0.88000000000E+00 0.  1.
        -11    1    4    4    0    0 -0.50209979227E-01  0.14541992904E-01  0.47840839485E-01  0.70862674344E-01  0.51100000000E-03 0.  1.
         11    1    4    4    0    0 -0.26759774349E-01  0.15948296644E-01  0.52799703250E-01  0.61306634823E-01  0.51100000000E-03 0. -1.
</event>
<event>
 8    1  0.1054086E+005  0.1043930E+01  0.7957747E-01            NaN
         13   -1    0    0    0    0  0.00000000000E+00  0.00000000000E+00  0.74505805969E-08  0.10566000000E+00  0.10566000000E+00 0. -1.
     999900   -1    0    0    0    0 -0.00000000000E+00 -0.00000000000E+00 -0.74505805969E-08  0.93827000000E+00  0.93827000000E+00 0.  1.
     999902    2    1    2    0    0 -0.22185051663E-01  0.89739686748E-02  0.55752686697E-02  0.10193578155E+01  0.10190616094E+01 0.  0.
     999903    2    3    3    0    0 -0.13320170909E-01 -0.19651869745E-01 -0.12516599426E+00  0.12919417740E+00  0.21470594251E-01 0.  0.
         14    1    1    2    0    0  0.22185051663E-01 -0.89739686748E-02 -0.55752686697E-02  0.24572184514E-01  0.00000000000E+00 0. -1.
     999901    1    3    3    0    0 -0.88648807534E-02  0.28625838420E-01  0.13074126293E+00  0.89016363808E+00  0.88000000000E+00 0. -1.
        -11    1    4    4    0    0 -0.85534489225E-02 -0.16842230489E-02 -0.78113938811E-01  0.78600551228E-01  0.51100000000E-03 0. -1.
         11    1    4    4    0    0 -0.47667219869E-02 -0.17967646696E-01 -0.47052055450E-01  0.50593626173E-01  0.51100000000E-03 0.  1.
</event>
<event>
 8    1  0.1054086E+005  0.1043930E+01  0.7957747E-01            NaN
         13   -1    0    0    0    0  0.00000000000E+00  0.00000000000E+00  0.74505805969E-08  0.10566000000E+00  0.10566000000E+00 0. -1.
     999900   -1    0    0    0    0 -0.00000000000E+00 -0.00000000000E+00 -0.74505805969E-08  0.93827000000E+00  0.93827000000E+00 0.  1.
     999902    2    1    2    0    0 -0.19122607547E-02  0.22623099313E-01 -0.82923781978E-02  0.10197592553E+01  0.10194727627E+01 0.  0.
     999903    2    3    3    0    0 -0.82279155451E-01  0.30957869356E-01 -0.96129756036E-01  0.13170311343E+00  0.19404406558E-01 0.  0.
         14    1    1    2    0    0  0.19122607547E-02 -0.22623099313E-01  0.82923781978E-02  0.24170744711E-01  0.00000000000E+00 0.  1.
     999901    1    3    3    0    0  0.80366894696E-01 -0.83347700431E-02  0.87837377838E-01  0.88805614186E+00  0.88000000000E+00 0. -1.
        -11    1    4    4    0    0 -0.19852682801E-01 -0.10167417952E-02 -0.21449529861E-01  0.29249038113E-01  0.51100000000E-03 0. -1.
         11    1    4    4    0    0 -0.62426472650E-01  0.31974611151E-01 -0.74680226175E-01  0.10245407531E+00  0.51100000000E-03 0.  1.
</event>
<event>
 8    1  0.1054086E+005  0.1043930E+01  0.7957747E-01            NaN
         13   -1    0    0    0    0  0.00000000000E+00  0.00000000000E+00  0.74505805969E-08  0.10566000000E+00  0.10566000000E+00 0.  1.
     999900   -1    0    0    0    0 -0.00000000000E+00 -0.00000000000E+00 -0.74505805969E-08  0.93827000000E+00  0.93827000000E+00 0. -1.
     999902    2    1    2    0    0  0.23144244328E-02 -0.64726038355E-02  0.23169996518E-01  0.10197618412E+01  0.10194754106E+01 0.  0.
     999903    2    3    3    0    0  0.10133485710E+00  0.47555720142E-01 -0.60293293723E-01  0.12864443778E+00  0.19591077613E-01 0.  0.
         14    1    1    2    0    0 -0.23144244328E-02  0.64726038355E-02 -0.23169996518E-01  0.24168158794E-01  0.00000000000E+00 0. -1.
     999901    1    3    3    0    0 -0.99020432663E-01 -0.54028323978E-01  0.83463290240E-01  0.89111740343E+00  0.88000000000E+00 0.  1.
        -11    1    4    4    0    0  0.80150074048E-01  0.44556889172E-01 -0.53603318463E-01  0.10622112602E+00  0.51100000000E-03 0. -1.
         11    1    4    4    0    0  0.21184783048E-01  0.29988309695E-02 -0.66899752602E-02  0.22423311752E-01  0.51100000000E-03 0.  1.
</event>
<event>
 8    1  0.1054086E+005  0.1043930E+01  0.7957747E-01            NaN
         13   -1    0    0    0    0  0.00000000000E+00  0.00000000000E+00  0.74505805969E-08  0.10566000000E+00  0.10566000000E+00 0. -1.
     999900   -1    0    0    0    0 -0.00000000000E+00 -0.00000000000E+00 -0.74505805969E-08  0.93827000000E+00  0.93827000000E+00 0.  1.
     999902    2    1    2    0    0  0.29023482435E-02 -0.47273454712E-02 -0.23025474505E-01  0.10202457458E+01  0.10199708025E+01 0.  0.
     999903    2    3    3    0    0 -0.11463915926E+00  0.25647467623E-02 -0.61538527442E-01  0.13156558071E+00  0.19333827994E-01 0.  0.
         14    1    1    2    0    0 -0.29023482435E-02  0.47273454712E-02  0.23025474505E-01  0.23684254194E-01  0.00000000000E+00 0. -1.
     999901    1    3    3    0    0  0.11754150750E+00 -0.72920922335E-02  0.38513052936E-01  0.88868016510E+00  0.88000000000E+00 0.  1.
        -11    1    4    4    0    0 -0.54042525561E-01 -0.63955089974E-02 -0.22270953882E-01  0.58802666710E-01  0.51100000000E-03 0.  1.
         11    1    4    4    0    0 -0.60596633699E-01  0.89602557597E-02 -0.39267573559E-01  0.72762913996E-01  0.51100000000E-03 0. -1.
</event>
<event>
 8    1  0.1054086E+005  0.1043930E+01  0.7957747E-01            NaN
         13   -1    0    0    0    0  0.00000000000E+00  0.00000000000E+00  0.74505805969E-08  0.10566000000E+00  0.10566000000E+00 0.  1.
     999900   -1    0    0    0    0 -0.00000000000E+00 -0.00000000000E+00 -0.74505805969E-08  0.93827000000E+00  0.93827000000E+00 0. -1.
     999902    2    1    2    0    0 -0.70782536517E-02  0.22688033138E-01  0.21040001735E-02  0.10200705084E+01  0.10197914330E+01 0.  0.
     999903    2    3    3    0    0  0.32506610902E-01  0.12684485260E+00  0.92959948331E-02  0.13301508210E+00  0.21454607028E-01 0.  0.
         14    1    1    2    0    0  0.70782536517E-02 -0.22688033138E-01 -0.21040001735E-02  0.23859491595E-01  0.00000000000E+00 0.  1.
     999901    1    3    3    0    0 -0.39584864554E-01 -0.10415681947E+00 -0.71919946596E-02  0.88705542630E+00  0.88000000000E+00 0.  1.
        -11    1    4    4    0    0  0.40351182319E-02  0.42610907232E-01 -0.44752951173E-02  0.43037901687E-01  0.51100000000E-03 0.  1.
         11    1    4    4    0    0  0.28471492671E-01  0.84233945372E-01  0.13771289950E-01  0.89977180416E-01  0.51100000000E-03 0. -1.
</event>
<event>
 8    1  0.1054086E+005  0.1043930E+01  0.7957747E-01            NaN
         13   -1    0    0    0    0  0.00000000000E+00  0.00000000000E+00  0.74505805969E-08  0.10566000000E+00  0.10566000000E+00 0.  1.
     999900   -1    0    0    0    0 -0.00000000000E+00 -0.00000000000E+00 -0.74505805969E-08  0.93827000000E+00  0.93827000000E+00 0. -1.
     999902    2    1    2    0    0 -0.11430787442E-01 -0.17623491533E-01 -0.91461732392E-02  0.10210192418E+01  0.10207621610E+01 0.  0.
     999903    2    3    3    0    0 -0.62922494176E-02 -0.99712099948E-02 -0.13052130442E+00  0.13264044623E+00  0.20461173918E-01 0.  0.
         14    1    1    2    0    0  0.11430787442E-01  0.17623491533E-01  0.91461732392E-02  0.22910758178E-01  0.00000000000E+00 0. -1.
     999901    1    3    3    0    0 -0.51385380243E-02 -0.76522815385E-02  0.12137513118E+00  0.88837879559E+00  0.88000000000E+00 0.  1.
        -11    1    4    4    0    0 -0.11415230114E-01 -0.32480342526E-02 -0.10669128063E+00  0.10735058308E+00  0.51100000000E-03 0.  1.
         11    1    4    4    0    0  0.51229806967E-02 -0.67231757422E-02 -0.23830023788E-01  0.25289863147E-01  0.51100000000E-03 0. -1.
</event>
<event>
 8    1  0.1054086E+005  0.1043930E+01  0.7957747E-01            NaN
         13   -1    0    0    0    0  0.00000000000E+00  0.00000000000E+00  0.74505805969E-08  0.10566000000E+00  0.10566000000E+00 0.  1.
     999900   -1    0    0    0    0 -0.00000000000E+00 -0.00000000000E+00 -0.74505805969E-08  0.93827000000E+00  0.93827000000E+00 0.  1.
     999902    2    1    2    0    0  0.11134732704E-01  0.19154693828E-01 -0.77745295902E-02  0.10204496278E+01  0.10201794524E+01 0.  0.
     999903    2    3    3    0    0 -0.22810551536E-01 -0.12036484840E+00 -0.33106028105E-01  0.12845205505E+00  0.19897320366E-01 0.  0.
         14    1    1    2    0    0 -0.11134732704E-01 -0.19154693828E-01  0.77745295902E-02  0.23480372194E-01  0.00000000000E+00 0. -1.
     999901    1    3    3    0    0  0.33945284240E-01  0.13951954223E+00  0.25331498515E-01  0.89199757276E+00  0.88000000000E+00 0.  1.
        -11    1    4    4    0    0 -0.31123750248E-02 -0.64311512469E-01 -0.21731229097E-01  0.67957081702E-01  0.51100000000E-03 0. -1.
         11    1    4    4    0    0 -0.19698176511E-01 -0.56053335932E-01 -0.11374799008E-01  0.60494973348E-01  0.51100000000E-03 0.  1.
</event>
<event>
 8    1  0.1054086E+005  0.1043930E+01  0.7957747E-01            NaN
         13   -1    0    0    0    0  0.00000000000E+00  0.00000000000E+00  0.74505805969E-08  0.10566000000E+00  0.10566000000E+00 0.  1.
     999900   -1    0    0    0    0 -0.00000000000E+00 -0.00000000000E+00 -0.74505805969E-08  0.93827000000E+00  0.93827000000E+00 0. -1.
     999902    2    1    2    0    0 -0.13786099687E-01 -0.79094619903E-02 -0.18263454706E-01  0.10197190539E+01  0.10194315960E+01 0.  0.
     999903    2    3    3    0    0 -0.98029806896E-01 -0.85852073328E-01 -0.10895053230E-01  0.13223590126E+00  0.19677648813E-01 0.  0.
         14    1    1    2    0    0  0.13786099687E-01  0.79094619903E-02  0.18263454706E-01  0.24210946106E-01  0.00000000000E+00 0.  1.
     999901    1    3    3    0    0  0.84243707209E-01  0.77942611338E-01 -0.73684014759E-02  0.88748315263E+00  0.88000000000E+00 0. -1.
        -11    1    4    4    0    0 -0.21120644330E-01 -0.30034067638E-01 -0.43984195146E-02  0.36982888624E-01  0.51100000000E-03 0. -1.
         11    1    4    4    0    0 -0.76909162566E-01 -0.55818005690E-01 -0.64966337155E-02  0.95253012637E-01  0.51100000000E-03 0.  1.
</event>
<event>
 8    1  0.1054086E+005  0.1043930E+01  0.7957747E-01            NaN
         13   -1    0    0    0    0  0.00000000000E+00  0.00000000000E+00  0.74505805969E-08  0.10566000000E+00  0.10566000000E+00 0. -1.
     999900   -1    0    0    0    0 -0.00000000000E+00 -0.00000000000E+00 -0.74505805969E-08  0.93827000000E+00  0.93827000000E+00 0. -1.
     999902    2    1    2    0    0  0.99927787605E-02 -0.20733304148E-01  0.32831397901E-02  0.10206812466E+01  0.10204164359E+01 0.  0.
     999903    2    3    3    0    0  0.38443208331E-01 -0.12625329199E+00 -0.74694773593E-02  0.13385572060E+00  0.21066248796E-01 0.  0.
         14    1    1    2    0    0 -0.99927787605E-02  0.20733304148E-01 -0.32831397901E-02  0.23248753410E-01  0.00000000000E+00 0.  1.
     999901    1    3    3    0    0 -0.28450429570E-01  0.10551998785E+00  0.10752617149E-01  0.88682552599E+00  0.88000000000E+00 0. -1.
        -11    1    4    4    0    0  0.11097974223E-01 -0.34705187411E-01 -0.11537638836E-01  0.38222942012E-01  0.51100000000E-03 0. -1.
         11    1    4    4    0    0  0.27345234108E-01 -0.91548104582E-01  0.40681614771E-02  0.95632778585E-01  0.51100000000E-03 0.  1.
</event>
<event>
 8    1  0.1054086E+005  0.1043930E+01  0.7957747E-01            NaN
         13   -1    0    0    0    0  0.00000000000E+00  0.00000000000E+00  0.74505805969E-08  0.10566000000E+00  0.10566000000E+00 0.  1.
     999900   -1    0    0    0    0 -0.00000000000E+00 -0.00000000000E+00 -0.74505805969E-08  0.93827000000E+00  0.93827000000E+00 0.  1.
     999902    2    1    2    0    0  0.21586030028E-01  0.38872644551E-02 -0.22123141246E-03  0.10219956329E+01  0.10217602249E+01 0.  0.
     999903    2    3    3    0    0  0.13058120188E+00  0.15294972412E-01 -0.22280664308E-01  0.13492365054E+00  0.20556677891E-01 0.  0.
         14    1    1    2    0    0 -0.21586030028E-01 -0.38872644551E-02  0.22123141246E-03  0.21934367113E-01  0.00000000000E+00 0.  1.
     999901    1    3    3    0    0 -0.10899517186E+00 -0.11407707957E-01  0.22059432896E-01  0.88707198235E+00  0.88000000000E+00 0. -1.
        -11    1    4    4    0    0  0.43576966310E-01 -0.27950079237E-02 -0.16860702338E-02  0.43702036748E-01  0.51100000000E-03 0.  1.
         11    1    4    4    0    0  0.87004235574E-01  0.18089980336E-01 -0.20594594074E-01  0.91221613790E-01  0.51100000000E-03 0. -1.
</event>
<event>
 7    1  0.2741870E+005  0.1043930E+01  0.7957747E-01            NaN
         13   -1    0    0    0    0  0.00000000000E+00  0.00000000000E+00  0.74505805969E-08  0.10566000000E+00  0.10566000000E+00 0. -1.
     999900   -1    0    0    0    0 -0.00000000000E+00 -0.00000000000E+00 -0.74505805969E-08  0.93827000000E+00  0.93827000000E+00 0.  1.
     999903    2    1    2    0    0  0.20719270969E-01  0.53814599215E-01 -0.69428603711E-01  0.92312664713E-01  0.19390662059E-01 0.  0.
         14    1    1    2    0    0  0.52141459949E-01 -0.34807685086E-01 -0.14735375668E-01  0.64400606229E-01  0.00000000000E+00 0.  1.
     999901    1    1    2    0    0 -0.72860730918E-01 -0.19006914129E-01  0.84163979378E-01  0.88721672906E+00  0.88000000000E+00 0. -1.
        -11    1    3    3    0    0  0.23276660132E-01  0.36335495107E-01 -0.48456683969E-01  0.64887459912E-01  0.51100000000E-03 0. -1.
         11    1    3    3    0    0 -0.25573891625E-02  0.17479104107E-01 -0.20971919742E-01  0.27425204801E-01  0.51100000000E-03 0.  1.
</event>
<event>
 8    1  0.1054086E+005  0.1043930E+01  0.7957747E-01            NaN
         13   -1    0    0    0    0  0.00000000000E+00  0.00000000000E+00  0.74505805969E-08  0.10566000000E+00  0.10566000000E+00 0.  1.
     999900   -1    0    0    0    0 -0.00000000000E+00 -0.00000000000E+00 -0.74505805969E-08  0.93827000000E+00  0.93827000000E+00 0. -1.
     999902    2    1    2    0    0  0.15580113227E-01  0.96101777711E-02  0.12934860477E-01  0.10215155836E+01  0.10212696420E+01 0.  0.
     999903    2    3    3    0    0 -0.61093083760E-01 -0.87441570324E-01 -0.69733551744E-01  0.12902923231E+00  0.20183692608E-01 0.  0.
         14    1    1    2    0    0 -0.15580113227E-01 -0.96101777711E-02 -0.12934860477E-01  0.22414416354E-01  0.00000000000E+00 0. -1.
     999901    1    3    3    0    0  0.76673196987E-01  0.97051748095E-01  0.82668412220E-01  0.89248635134E+00  0.88000000000E+00 0. -1.
        -11    1    4    4    0    0 -0.33334318042E-01 -0.41603357563E-01 -0.46013410516E-01  0.70423797030E-01  0.51100000000E-03 0.  1.
         11    1    4    4    0    0 -0.27758765718E-01 -0.45838212761E-01 -0.23720141228E-01  0.58605435278E-01  0.51100000000E-03 0. -1.
</event>
<event>
 8    1  0.1054086E+005  0.1043930E+01  0.7957747E-01            NaN
         13   -1    0    0    0    0  0.00000000000E+00  0.00000000000E+00  0.74505805969E-08  0.10566000000E+00  0.10566000000E+00 0. -1.
     999900   -1    0    0    0    0 -0.00000000000E+00 -0.00000000000E+00 -0.74505805969E-08  0.93827000000E+00  0.93827000000E+00 0.  1.
     999902    2    1    2    0    0  0.14863462676E-01  0.18701475031E-01 -0.17667023221E-02  0.10199761083E+01  0.10196947938E+01 0.  0.
     999903    2    3    3    0    0 -0.10454641169E+00  0.16587687854E-01  0.70876725800E-01  0.12894285759E+00  0.19941080173E-01 0.  0.
         14    1    1    2    0    0 -0.14863462676E-01 -0.18701475031E-01  0.17667023221E-02  0.23953891712E-01  0.00000000000E+00 0.  1.
     999901    1    3    3    0    0  0.11940987437E+00  0.21137871779E-02 -0.72643428122E-01  0.89103325069E+00  0.88000000000E+00 0.  1.
        -11    1    4    4    0    0 -0.65217448856E-01  0.29704009366E-02  0.35484823234E-01  0.74307285766E-01  0.51100000000E-03 0. -1.
         11    1    4    4    0    0 -0.39328962836E-01  0.13617286917E-01  0.35391902566E-01  0.54635571828E-01  0.51100000000E-03 0.  1.
</event>
<event>
 8    1  0.1054086E+005  0.1043930E+01  0.7957747E-01            NaN
         13   -1    0    0    0    0  0.00000000000E+00  0.00000000000E+00  0.74505805969E-08  0.10566000000E+00  0.10566000000E+00 0. -1.
     999900   -1    0    0    0    0 -0.00000000000E+00 -0.00000000000E+00 -0.74505805969E-08  0.93827000000E+00  0.93827000000E+00 0.  1.
     999902    2    1    2    0    0  0.20010750566E-01 -0.10504259132E-01  0.66320496037E-02  0.10203767905E+01  0.10201049166E+01 0.  0.
     999903    2    3    3    0    0 -0.62982931559E-01  0.10924203524E+00 -0.12619354866E-01  0.12818973447E+00  0.19305128220E-01 0.  0.
         14    1    1    2    0    0 -0.20010750566E-01  0.10504259132E-01 -0.66320496037E-02  0.23553209549E-01  0.00000000000E+00 0. -1.
     999901    1    3    3    0    0  0.82993682125E-01 -0.11974629437E+00  0.19251404470E-01  0.89218705598E+00  0.88000000000E+00 0.  1.
        -11    1    4    4    0    0 -0.17211390259E-01  0.45609230139E-01  0.26145269324E-03  0.48752059516E-01  0.51100000000E-03 0.  1.
         11    1    4    4    0    0 -0.45771541301E-01  0.63632805098E-01 -0.12880807559E-01  0.79437674954E-01  0.51100000000E-03 0. -1.
</event>
<event>
 8    1  0.1054086E+005  0.1043930E+01  0.7957747E-01            NaN
         13   -1    0    0    0    0  0.00000000000E+00  0.00000000000E+00  0.74505805969E-08  0.10566000000E+00  0.10566000000E+00 0. -1.
     999900   -1    0    0    0    0 -0.00000000000E+00 -0.00000000000E+00 -0.74505805969E-08  0.93827000000E+00  0.93827000000E+00 0. -1.
     999902    2    1    2    0    0  0.17859104884E-01 -0.10318858874E-01  0.10750821480E-01  0.10206704506E+01  0.10204053911E+01 0.  0.
     999903    2    3    3    0    0 -0.31327207693E-02  0.82102894212E-01  0.10016523815E+00  0.13107651228E+00  0.19931832844E-01 0.  0.
         14    1    1    2    0    0 -0.17859104884E-01  0.10318858874E-01 -0.10750821480E-01  0.23259549398E-01  0.00000000000E+00 0.  1.
     999901    1    3    3    0    0  0.20991825653E-01 -0.92421753085E-01 -0.89414416672E-01  0.88959393832E+00  0.88000000000E+00 0. -1.
        -11    1    4    4    0    0  0.59815950908E-02  0.32658063859E-01  0.50226861036E-01  0.60210690955E-01  0.51100000000E-03 0. -1.
         11    1    4    4    0    0 -0.91143158601E-02  0.49444830353E-01  0.49938377116E-01  0.70865821326E-01  0.51100000000E-03 0.  1.
</event>
<event>
 8    1  0.1054086E+005  0.1043930E+01  0.7957747E-01            NaN
         13   -1    0    0    0    0  0.00000000000E+00  0.00000000000E+00  0.74505805969E-08  0.10566000000E+00  0.10566000000E+00 0. -1.
     999900   -1    0    0    0    0 -0.00000000000E+00 -0.00000000000E+00 -0.74505805969E-08  0.93827000000E+00  0.93827000000E+00 0.  1.
     999902    2    1    2    0    0 -0.10332606099E-01 -0.10643198701E-01  0.19011744200E-01  0.10198159617E+01  0.10195308278E+01 0.  0.
     999903    2    3    3    0    0  0.10392785572E+00  0.72457433350E-01  0.81699284446E-02  0.12848060774E+00  0.19734234030E-01 0.  0.
         14    1    1    2    0    0  0.10332606099E-01  0.10643198701E-01 -0.19011744200E-01  0.24114038337E-01  0.00000000000E+00 0. -1.
     999901    1    3    3    0    0 -0.11426046182E+00 -0.83100632051E-01  0.10841815756E-01  0.89133535392E+00  0.88000000000E+00 0.  1.
        -11    1    4    4    0    0  0.65788925999E-01  0.55398768773E-01  0.56175404026E-03  0.86010365970E-01  0.51100000000E-03 0.  1.
         11    1    4    4    0    0  0.38138929720E-01  0.17058664576E-01  0.76081744044E-02  0.42470241771E-01  0.51100000000E-03 0. -1.
</event>
<event>
 8    1  0.1054086E+005  0.1043930E+01  0.7957747E-01            NaN
         13   -1    0    0    0    0  0.00000000000E+00  0.00000000000E+00  0.74505805969E-08  0.10566000000E+00  0.10566000000E+00 0. -1.
     999900   -1    0    0    0    0 -0.00000000000E+00 -0.00000000000E+00 -0.74505805969E-08  0.93827000000E+00  0.93827000000E+00 0. -1.
     999902    2    1    2    0    0  0.96280057570E-02  0.16208681081E-01 -0.14768642049E-01  0.10199814588E+01  0.10197002715E+01 0.  0.
     999903    2    3    3    0    0  0.62724874829E-01  0.10296637492E+00  0.50422232970E-01  0.13172697662E+00  0.16526055313E-01 0.  0.
         14    1    1    2    0    0 -0.96280057570E-02 -0.16208681081E-01  0.14768642049E-01  0.23948541192E-01  0.00000000000E+00 0. -1.
     999901    1    3    3    0    0 -0.53096869072E-01 -0.86757693841E-01 -0.65190875019E-01  0.88825448219E+00  0.88000000000E+00 0.  1.
        -11    1    4    4    0    0  0.19676597672E-01  0.47140936505E-01  0.18404329324E-01  0.54299326417E-01  0.51100000000E-03 0.  1.
         11    1    4    4    0    0  0.43048277156E-01  0.55825438418E-01  0.32017903646E-01  0.77427650200E-01  0.51100000000E-03 0. -1.
</event>
<event>
 8    1  0.1054086E+005  0.1043930E+01  0.7957747E-01            NaN
         13   -1    0    0    0    0  0.00000000000E+00  0.00000000000E+00  0.74505805969E-08  0.10566000000E+00  0.10566000000E+00 0. -1.
     999900   -1    0    0    0    0 -0.00000000000E+00 -0.00000000000E+00 -0.74505805969E-08  0.93827000000E+00  0.93827000000E+00 0.  1.
     999902    2    1    2    0    0  0.20198184505E-01 -0.47457673729E-02 -0.96245911456E-02  0.10210581457E+01  0.10208019471E+01 0.  0.
     999903    2    3    3    0    0  0.30778280412E-01 -0.75358252511E-01  0.10102471014E+00  0.13125966886E+00  0.19923349188E-01 0.  0.
         14    1    1    2    0    0 -0.20198184505E-01  0.47457673729E-02  0.96245911456E-02  0.22871854318E-01  0.00000000000E+00 0. -1.
     999901    1    3    3    0    0 -0.10580095907E-01  0.70612485138E-01 -0.11064930128E+00  0.88979847683E+00  0.88000000000E+00 0.  1.
        -11    1    4    4    0    0  0.23892159424E-01 -0.34404932320E-01  0.56989664119E-01  0.70729184834E-01  0.51100000000E-03 0. -1.
         11    1    4    4    0    0  0.68861209873E-02 -0.40953320191E-01  0.44035046020E-01  0.60530484022E-01  0.51100000000E-03 0.  1.
</event>
<event>
 8    1  0.1054086E+005  0.1043930E+01  0.7957747E-01            NaN
         13   -1    0    0    0    0  0.00000000000E+00  0.00000000000E+00  0.74505805969E-08  0.10566000000E+00  0.10566000000E+00 0. -1.
     999900   -1    0    0    0    0 -0.00000000000E+00 -0.00000000000E+00 -0.74505805969E-08  0.93827000000E+00  0.93827000000E+00 0. -1.
     999902    2    1    2    0    0 -0.41316421914E-02 -0.17968250016E-01  0.13823852042E-01  0.10208859691E+01  0.10206258543E+01 0.  0.
     999903    2    3    3    0    0  0.97040428460E-01  0.53656478624E-01 -0.62536866801E-01  0.12892361056E+00  0.20361119720E-01 0.  0.
         14    1    1    2    0    0  0.41316421914E-02  0.17968250016E-01 -0.13823852042E-01  0.23044030922E-01  0.00000000000E+00 0.  1.
     999901    1    3    3    0    0 -0.10117207065E+00 -0.71624728640E-01  0.76360718843E-01  0.89196235852E+00  0.88000000000E+00 0.  1.
        -11    1    4    4    0    0  0.28069168719E-01  0.24082571263E-01 -0.13996657764E-01  0.39547642418E-01  0.51100000000E-03 0.  1.
         11    1    4    4    0    0  0.68971259741E-01  0.29573907361E-01 -0.48540209038E-01  0.89375968142E-01  0.51100000000E-03 0. -1.
</event>
<event>
 8    1  0.1054086E+005  0.1043930E+01  0.7957747E-01            NaN
         13   -1    0    0    0    0  0.00000000000E+00  0.00000000000E+00  0.74505805969E-08  0.10566000000E+00  0.10566000000E+00 0.  1.
     999900   -1    0    0    0    0 -0.00000000000E+00 -0.00000000000E+00 -0.74505805969E-08  0.93827000000E+00  0.93827000000E+00 0.  1.
     999902    2    1    2    0    0  0.19672312109E-01 -0.55888854006E-02  0.10657532074E-01  0.10208688098E+01  0.10206083031E+01 0.  0.
     999903    2    3    3    0    0  0.50252456686E-01 -0.16475134247E-01 -0.11807022438E+00  0.13091123163E+00  0.20010827825E-01 0.  0.
         14    1    1    2    0    0 -0.19672312109E-01  0.55888854006E-02 -0.10657532074E-01  0.23061190204E-01  0.00000000000E+00 0. -1.
     999901    1    3    3    0    0 -0.30580144577E-01  0.10886248846E-01  0.12872775645E+00  0.88995757817E+00  0.88000000000E+00 0. -1.
        -11    1    4    4    0    0  0.17356839405E-01 -0.21081282171E-02 -0.61262125673E-01  0.63710385666E-01  0.51100000000E-03 0. -1.
         11    1    4    4    0    0  0.32895617281E-01 -0.14367006030E-01 -0.56808098705E-01  0.67200845963E-01  0.51100000000E-03 0.  1.
</event>
<event>
 8    1  0.1054086E+005  0.1043930E+01  0.7957747E-01            NaN
         13   -1    0    0    0    0  0.00000000000E+00  0.00000000000E+00  0.74505805969E-08  0.10566000000E+00  0.10566000000E+00 0.  1.
     999900   -1    0    0    0    0 -0.00000000000E+00 -0.00000000000E+00 -0.74505805969E-08  0.93827000000E+00  0.93827000000E+00 0. -1.
     999902    2    1    2    0    0 -0.19181935972E-01  0.11939706684E-01 -0.80487454068E-02  0.10199448887E+01  0.10196628317E+01 0.  0.
     999903    2    3    3    0    0 -0.79109863775E-01  0.62963718035E-01  0.82635019819E-01  0.13179042488E+00  0.17814860461E-01 0.  0.
         14    1    1    2    0    0  0.19181935972E-01 -0.11939706684E-01  0.80487454068E-02  0.23985111339E-01  0.00000000000E+00 0.  1.
     999901    1    3    3    0    0  0.59927927803E-01 -0.51024011350E-01 -0.90683765225E-01  0.88815446378E+00  0.88000000000E+00 0. -1.
        -11    1    4    4    0    0 -0.20421771179E-01  0.26904905389E-01  0.27522795352E-01  0.43573937819E-01  0.51100000000E-03 0. -1.
         11    1    4    4    0    0 -0.58688092596E-01  0.36058812646E-01  0.55112224466E-01  0.88216487057E-01  0.51100000000E-03 0.  1.
</event>
<event>
 8    1  0.1054086E+005  0.1043930E+01  0.7957747E-01            NaN
         13   -1    0    0    0    0  0.00000000000E+00  0.00000000000E+00  0.74505805969E-08  0.10566000000E+00  0.10566000000E+00 0.  1.
     999900   -1    0    0    0    0 -0.00000000000E+00 -0.00000000000E+00 -0.74505805969E-08  0.93827000000E+00  0.93827000000E+00 0.  1.
     999902    2    1    2    0    0  0.65112882504E-02 -0.17589687753E-01  0.12702238036E-01  0.10212773878E+01  0.10210261318E+01 0.  0.
     999903    2    3    3    0    0 -0.45452482662E-01  0.10239537061E+00 -0.60073576842E-01  0.12864478308E+00  0.19746024345E-01 0.  0.
         14    1    1    2    0    0 -0.65112882504E-02  0.17589687753E-01 -0.12702238036E-01  0.22652612235E-01  0.00000000000E+00 0. -1.
     999901    1    3    3    0    0  0.51963770912E-01 -0.11998505836E+00  0.72775814878E-01  0.89263260469E+00  0.88000000000E+00 0.  1.
        -11    1    4    4    0    0 -0.14498283805E-01  0.45775679936E-01 -0.34968517909E-01  0.59402621766E-01  0.51100000000E-03 0. -1.
         11    1    4    4    0    0 -0.30954198856E-01  0.56619690669E-01 -0.25105058933E-01  0.69242161313E-01  0.51100000000E-03 0.  1.
</event>
<event>
 8    1  0.1054086E+005  0.1043930E+01  0.7957747E-01            NaN
         13   -1    0    0    0    0  0.00000000000E+00  0.00000000000E+00  0.74505805969E-08  0.10566000000E+00  0.10566000000E+00 0. -1.
     999900   -1    0    0    0    0 -0.00000000000E+00 -0.00000000000E+00 -0.74505805969E-08  0.93827000000E+00  0.93827000000E+00 0.  1.
     999902    2    1    2    0    0  0.44897167124E-02  0.16836008054E-01  0.18130166342E-01  0.10187841921E+01  0.10184738182E+01 0.  0.
     999903    2    3    3    0    0 -0.28724488459E-01  0.90661814395E-01 -0.85369997947E-01  0.12902820470E+00  0.17764578010E-01 0.  0.
         14    1    1    2    0    0 -0.44897167124E-02 -0.16836008054E-01 -0.18130166342E-01  0.25145807900E-01  0.00000000000E+00 0.  1.
     999901    1    3    3    0    0  0.33214205171E-01 -0.73825806341E-01  0.10350016429E+00  0.88975598740E+00  0.88000000000E+00 0. -1.
        -11    1    4    4    0    0 -0.50096654299E-02  0.20487169499E-01 -0.29396404857E-01  0.36183291742E-01  0.51100000000E-03 0.  1.
         11    1    4    4    0    0 -0.23714823029E-01  0.70174644897E-01 -0.55973593090E-01  0.92844912958E-01  0.51100000000E-03 0. -1.
</event>
<event>
 8    1  0.1054086E+005  0.1043930E+01  0.7957747E-01            NaN
         13   -1    0    0    0    0  0.00000000000E+00  0.00000000000E+00  0.74505805969E-08  0.10566000000E+00  0.10566000000E+00 0. -1.
     999900   -1    0    0    0    0 -0.00000000000E+00 -0.00000000000E+00 -0.74505805969E-08  0.93827000000E+00  0.93827000000E+00 0.  1.
     999902    2    1    2    0    0 -0.15731256313E-01 -0.16374467495E-01  0.49057341137E-02  0.10206993771E+01  0.10204349840E+01 0.  0.
     999903    2    3    3    0    0 -0.60389732296E-01 -0.10635038836E+00  0.50538039310E-01  0.13381023352E+00  0.19843394515E-01 0.  0.
         14    1    1    2    0    0  0.15731256313E-01  0.16374467495E-01 -0.49057341137E-02  0.23230622853E-01  0.00000000000E+00 0.  1.
     999901    1    3    3    0    0  0.44658475983E-01  0.89975920863E-01 -0.45632305196E-01  0.88688914363E+00  0.88000000000E+00 0.  1.
        -11    1    4    4    0    0 -0.20660275870E-01 -0.55665039210E-01  0.21312924273E-01  0.63086808854E-01  0.51100000000E-03 0. -1.
         11    1    4    4    0    0 -0.39729456426E-01 -0.50685349148E-01  0.29225115037E-01  0.70723424663E-01  0.51100000000E-03 0.  1.
</event>
<event>
 8    1  0.1054086E+005  0.1043930E+01  0.7957747E-01            NaN
         13   -1    0    0    0    0  0.00000000000E+00  0.00000000000E+00  0.74505805969E-08  0.10566000000E+00  0.10566000000E+00 0.  1.
     999900   -1    0    0    0    0 -0.00000000000E+00 -0.00000000000E+00 -0.74505805969E-08  0.93827000000E+00  0.93827000000E+00 0.  1.
     999902    2    1    2    0    0  0.14811098361E-02  0.16659715132E-01  0.17851278857E-01  0.10194676217E+01  0.10191740890E+01 0.  0.
     999903    2    3    3    0    0 -0.33147497187E-01  0.12028678588E+00  0.40026516002E-01  0.13243354607E+00  0.19205590675E-01 0.  0.
         14    1    1    2    0    0 -0.14811098361E-02 -0.16659715132E-01 -0.17851278857E-01  0.24462378287E-01  0.00000000000E+00 0. -1.
     999901    1    3    3    0    0  0.34628607023E-01 -0.10362707075E+00 -0.22175237145E-01  0.88703407565E+00  0.88000000000E+00 0. -1.
        -11    1    4    4    0    0 -0.25624575541E-02  0.41573166738E-01  0.10342376466E-01  0.42919928393E-01  0.51100000000E-03 0.  1.
         11    1    4    4    0    0 -0.30585039633E-01  0.78713619142E-01  0.29684139536E-01  0.89513617673E-01  0.51100000000E-03 0. -1.
</event>
<event>
 8    1  0.1054086E+005  0.1043930E+01  0.7957747E-01            NaN
         13   -1    0    0    0    0  0.00000000000E+00  0.00000000000E+00  0.74505805969E-08  0.10566000000E+00  0.10566000000E+00 0.  1.
     999900   -1    0    0    0    0 -0.00000000000E+00 -0.00000000000E+00 -0.74505805969E-08  0.93827000000E+00  0.93827000000E+00 0.  1.
     999902    2    1    2    0    0 -0.43777994098E-03  0.15716972674E-01  0.17819957976E-01  0.10201651986E+01  0.10198883599E+01 0.  0.
     999903    2    3    3    0    0 -0.12713053483E+00  0.21219216542E-01 -0.32807935274E-02  0.13082467300E+00  0.22178895921E-01 0.  0.
         14    1    1    2    0    0  0.43777994098E-03 -0.15716972674E-01 -0.17819957976E-01  0.23764801358E-01  0.00000000000E+00 0. -1.
     999901    1    3    3    0    0  0.12669275489E+00 -0.55022438682E-02  0.21100751503E-01  0.88934052564E+00  0.88000000000E+00 0.  1.
        -11    1    4    4    0    0 -0.48283940834E-01  0.17601003374E-01  0.40495310000E-02  0.51553797964E-01  0.51100000000E-03 0.  1.
         11    1    4    4    0    0 -0.78846593993E-01  0.36182131686E-02 -0.73303245274E-02  0.79270875040E-01  0.51100000000E-03 0. -1.
</event>
<event>
 8    1  0.1054086E+005  0.1043930E+01  0.7957747E-01            NaN
         13   -1    0    0    0    0  0.00000000000E+00  0.00000000000E+00  0.74505805969E-08  0.10566000000E+00  0.10566000000E+00 0. -1.
     999900   -1    0    0    0    0 -0.00000000000E+00 -0.00000000000E+00 -0.74505805969E-08  0.93827000000E+00  0.93827000000E+00 0.  1.
     999902    2    1    2    0    0  0.24653226413E-01  0.32808114507E-02 -0.27996067044E-03  0.10190578534E+01  0.10187542810E+01 0.  0.
     999903    2    3    3    0    0 -0.57645416264E-01 -0.59347603882E-01 -0.95440876704E-01  0.12790635963E+00  0.20148046650E-01 0.  0.
         14    1    1    2    0    0 -0.24653226413E-01 -0.32808114507E-02  0.27996067044E-03  0.24872146556E-01  0.00000000000E+00 0. -1.
     999901    1    3    3    0    0  0.82298642677E-01  0.62628415333E-01  0.95160916034E-01  0.89115149382E+00  0.88000000000E+00 0.  1.
        -11    1    4    4    0    0 -0.14562855805E-01 -0.28408647372E-01 -0.39962409888E-01  0.51150594715E-01  0.51100000000E-03 0. -1.
         11    1    4    4    0    0 -0.43082560460E-01 -0.30938956510E-01 -0.55478466817E-01  0.76755764911E-01  0.51100000000E-03 0.  1.
</event>
<event>
 8    1  0.1054086E+005  0.1043930E+01  0.7957747E-01            NaN
         13   -1    0    0    0    0  0.00000000000E+00  0.00000000000E+00  0.74505805969E-08  0.10566000000E+00  0.10566000000E+00 0. -1.
     999900   -1    0    0    0    0 -0.00000000000E+00 -0.00000000000E+00 -0.74505805969E-08  0.93827000000E+00  0.93827000000E+00 0. -1.
     999902    2    1    2    0    0 -0.19461544723E-01 -0.55770922674E-02  0.14398896318E-01  0.10190868139E+01  0.10187839567E+01 0.  0.
     999903    2    3    3    0    0  0.58699816971E-01  0.10860599269E+00  0.28687730642E-01  0.12815968660E+00  0.18999716248E-01 0.  0.
         14    1    1    2    0    0  0.19461544723E-01  0.55770922674E-02 -0.14398896318E-01  0.24843186115E-01  0.00000000000E+00 0.  1.
     999901    1    3    3    0    0 -0.78161361694E-01 -0.11418308496E+00 -0.14288834324E-01  0.89092712729E+00  0.88000000000E+00 0.  1.
        -11    1    4    4    0    0  0.97645400460E-02  0.87549559771E-02  0.69679399995E-02  0.14859636782E-01  0.51100000000E-03 0.  1.
         11    1    4    4    0    0  0.48935276925E-01  0.99851036717E-01  0.21719790643E-01  0.11330004981E+00  0.51100000000E-03 0. -1.
</event>
<event>
 8    1  0.1317773E+005  0.1043930E+01  0.7957747E-01            NaN
         13   -1    0    0    0    0  0.00000000000E+00  0.00000000000E+00  0.74505805969E-08  0.10566000000E+00  0.10566000000E+00 0.  1.
     999900   -1    0    0    0    0 -0.00000000000E+00 -0.00000000000E+00 -0.74505805969E-08  0.93827000000E+00  0.93827000000E+00 0. -1.
     999902    2    1    2    0    0  0.10340783130E-01 -0.13902105316E-01 -0.19407662973E-01  0.10179135108E+01  0.10175809834E+01 0.  0.
     999903    2    3    3    0    0  0.45850325079E-01 -0.64837728842E-01  0.98119096199E-01  0.12793154220E+00  0.20807187714E-01 0.  0.
         14    1    1    2    0    0 -0.10340783130E-01  0.13902105316E-01  0.19407662973E-01  0.26016489195E-01  0.00000000000E+00 0.  1.
     999901    1    3    3    0    0 -0.35509541949E-01  0.50935623527E-01 -0.11752675917E+00  0.88998196860E+00  0.88000000000E+00 0. -1.
        -11    1    4    4    0    0  0.32788225444E-01 -0.29392407630E-01  0.47557760023E-01  0.64814990654E-01  0.51100000000E-03 0.  1.
         11    1    4    4    0    0  0.13062099635E-01 -0.35445321212E-01  0.50561336176E-01  0.63116551550E-01  0.51100000000E-03 0. -1.
</event>
<event>
 8    1  0.1054086E+005  0.1043930E+01  0.7957747E-01            NaN
         13   -1    0    0    0    0  0.00000000000E+00  0.00000000000E+00  0.74505805969E-08  0.10566000000E+00  0.10566000000E+00 0.  1.
     999900   -1    0    0    0    0 -0.00000000000E+00 -0.00000000000E+00 -0.74505805969E-08  0.93827000000E+00  0.93827000000E+00 0. -1.
     999902    2    1    2    0    0  0.23367167325E-01  0.37020276809E-02  0.38139335224E-02  0.10199659518E+01  0.10196843959E+01 0.  0.
     999903    2    3    3    0    0  0.18786879923E-01 -0.69914920666E-01  0.10706906736E+00  0.13086412591E+00  0.20508322098E-01 0.  0.
         14    1    1    2    0    0 -0.23367167325E-01 -0.37020276809E-02 -0.38139335224E-02  0.23964048211E-01  0.00000000000E+00 0. -1.
     999901    1    3    3    0    0  0.45802874017E-02  0.73616948346E-01 -0.10325513384E+00  0.88910182588E+00  0.88000000000E+00 0.  1.
        -11    1    4    4    0    0  0.93247878377E-02 -0.46709859077E-01  0.52954373785E-01  0.71226325380E-01  0.51100000000E-03 0.  1.
         11    1    4    4    0    0  0.94620920854E-02 -0.23205061588E-01  0.54114693579E-01  0.59637800530E-01  0.51100000000E-03 0. -1.
</event>
<event>
 8    1  0.1054086E+005  0.1043930E+01  0.7957747E-01            NaN
         13   -1    0    0    0    0  0.00000000000E+00  0.00000000000E+00  0.74505805969E-08  0.10566000000E+00  0.10566000000E+00 0.  1.
     999900   -1    0    0    0    0 -0.00000000000E+00 -0.00000000000E+00 -0.74505805969E-08  0.93827000000E+00  0.93827000000E+00 0. -1.
     999902    2    1    2    0    0  0.22130794025E-01 -0.86177034882E-02 -0.15156837374E-02  0.10201322237E+01  0.10198546072E+01 0.  0.
     999903    2    3    3    0    0 -0.33349900064E-01 -0.69761985859E-01 -0.10318088115E+00  0.13043983699E+00  0.19730847270E-01 0.  0.
         14    1    1    2    0    0 -0.22130794025E-01  0.86177034882E-02  0.15156837374E-02  0.23797776257E-01  0.00000000000E+00 0.  1.
     999901    1    3    3    0    0  0.55480694089E-01  0.61144282371E-01  0.10166519741E+00  0.88969238675E+00  0.88000000000E+00 0.  1.
        -11    1    4    4    0    0 -0.10475947231E-01 -0.43362382491E-01 -0.52665612510E-01  0.69021515107E-01  0.51100000000E-03 0. -1.
         11    1    4    4    0    0 -0.22873952833E-01 -0.26399603368E-01 -0.50515268637E-01  0.61418321881E-01  0.51100000000E-03 0.  1.
</event>
<event>
 8    1  0.1054086E+005  0.1043930E+01  0.7957747E-01            NaN
         13   -1    0    0    0    0  0.00000000000E+00  0.00000000000E+00  0.74505805969E-08  0.10566000000E+00  0.10566000000E+00 0.  1.
     999900   -1    0    0    0    0 -0.00000000000E+00 -0.00000000000E+00 -0.74505805969E-08  0.93827000000E+00  0.93827000000E+00 0.  1.
     999902    2    1    2    0    0 -0.17510959733E-01  0.13984124533E-01  0.12339659533E-01  0.10183476497E+01  0.10180262664E+01 0.  0.
     999903    2    3    3    0    0 -0.31701968512E-01  0.11511724431E-01  0.12505521909E+00  0.13104144840E+00  0.19887653675E-01 0.  0.
         14    1    1    2    0    0  0.17510959733E-01 -0.13984124533E-01 -0.12339659533E-01  0.25582350305E-01  0.00000000000E+00 0.  1.
     999901    1    3    3    0    0  0.14191008779E-01  0.24724001024E-02 -0.11271555956E+00  0.88730620130E+00  0.88000000000E+00 0.  1.
        -11    1    4    4    0    0 -0.11564711071E-01  0.88320212286E-02  0.24893678612E-01  0.28839270049E-01  0.51100000000E-03 0.  1.
         11    1    4    4    0    0 -0.20137257441E-01  0.26797032026E-02  0.10016154048E+00  0.10220217835E+00  0.51100000000E-03 0. -1.
</event>
<event>
 8    1  0.1054086E+005  0.1043930E+01  0.7957747E-01            NaN
         13   -1    0    0    0    0  0.00000000000E+00  0.00000000000E+00  0.74505805969E-08  0.10566000000E+00  0.10566000000E+00 0.  1.
     999900   -1    0    0    0    0 -0.00000000000E+00 -0.00000000000E+00 -0.74505805969E-08  0.93827000000E+00  0.93827000000E+00 0. -1.
     999902    2    1    2    0    0 -0.37886659825E-02  0.23152895295E-01  0.56827652503E-02  0.10197907297E+01  0.10195049916E+01 0.  0.
     999903    2    3    3    0    0 -0.41437929340E-01  0.97130217634E-01 -0.76722031641E-01  0.13205165664E+00  0.19999717943E-01 0.  0.
         14    1    1    2    0    0  0.37886659825E-02 -0.23152895295E-01 -0.56827652503E-02  0.24139270315E-01  0.00000000000E+00 0.  1.
     999901    1    3    3    0    0  0.37649263358E-01 -0.73977322339E-01  0.82404796891E-01  0.88773907304E+00  0.88000000000E+00 0. -1.
        -11    1    4    4    0    0 -0.29184161764E-01  0.80722910262E-01 -0.69099599808E-01  0.11019491528E+00  0.51100000000E-03 0.  1.
         11    1    4    4    0    0 -0.12253767576E-01  0.16407307372E-01 -0.76224318334E-02  0.21856741364E-01  0.51100000000E-03 0. -1.
</event>
<event>
 8    1  0.1054086E+005  0.1043930E+01  0.7957747E-01            NaN
         13   -1    0    0    0    0  0.00000000000E+00  0.00000000000E+00  0.74505805969E-08  0.10566000000E+00  0.10566000000E+00 0. -1.
     999900   -1    0    0    0    0 -0.00000000000E+00 -0.00000000000E+00 -0.74505805969E-08  0.93827000000E+00  0.93827000000E+00 0.  1.
     999902    2    1    2    0    0  0.75791054112E-02 -0.12774890259E-01 -0.18893958470E-01  0.10198962253E+01  0.10196130090E+01 0.  0.
     999903    2    3    3    0    0 -0.95250305991E-01 -0.73155820552E-01  0.44570093564E-01  0.12958873319E+00  0.19553814410E-01 0.  0.
         14    1    1    2    0    0 -0.75791054112E-02  0.12774890259E-01  0.18893958470E-01  0.24033774706E-01  0.00000000000E+00 0. -1.
     999901    1    3    3    0    0  0.10282941140E+00  0.60380930293E-01 -0.63464052034E-01  0.89030749210E+00  0.88000000000E+00 0.  1.
        -11    1    4    4    0    0 -0.93484491308E-01 -0.72317800320E-01  0.40316118166E-01  0.12487940128E+00  0.51100000000E-03 0. -1.
         11    1    4    4    0    0 -0.17658146831E-02 -0.83802023213E-03  0.42539753977E-02  0.47093319153E-02  0.51100000000E-03 0.  1.
</event>
<event>
 8    1  0.1054086E+005  0.1043930E+01  0.7957747E-01            NaN
         13   -1    0    0    0    0  0.00000000000E+00  0.00000000000E+00  0.74505805969E-08  0.10566000000E+00  0.10566000000E+00 0.  1.
     999900   -1    0    0    0    0 -0.00000000000E+00 -0.00000000000E+00 -0.74505805969E-08  0.93827000000E+00  0.93827000000E+00 0. -1.
     999902    2    1    2    0    0  0.16382848999E-01  0.11671383790E-01 -0.10740680321E-02  0.10237862029E+01  0.10235880112E+01 0.  0.
     999903    2    3    3    0    0 -0.17974022889E-01  0.11679108921E+00 -0.61751334897E-01  0.13479110849E+00  0.19803826621E-01 0.  0.
         14    1    1    2    0    0 -0.16382848999E-01 -0.11671383790E-01  0.10740680321E-02  0.20143797136E-01  0.00000000000E+00 0.  1.
     999901    1    3    3    0    0  0.34356871889E-01 -0.10511970542E+00  0.60677266865E-01  0.88899509438E+00  0.88000000000E+00 0.  1.
        -11    1    4    4    0    0 -0.21413671037E-01  0.92762600705E-01 -0.45062537383E-01  0.10532966720E+00  0.51100000000E-03 0. -1.
         11    1    4    4    0    0  0.34396481477E-02  0.24028488501E-01 -0.16688797514E-01  0.29461441283E-01  0.51100000000E-03 0.  1.
</event>
<event>
 8    1  0.1054086E+005  0.1043930E+01  0.7957747E-01            NaN
         13   -1    0    0    0    0  0.00000000000E+00  0.00000000000E+00  0.74505805969E-08  0.10566000000E+00  0.10566000000E+00 0. -1.
     999900   -1    0    0    0    0 -0.00000000000E+00 -0.00000000000E+00 -0.74505805969E-08  0.93827000000E+00  0.93827000000E+00 0.  1.
     999902    2    1    2    0    0  0.22108456513E-01  0.77938718649E-02  0.18543981820E-03  0.10204872468E+01  0.10202179465E+01 0.  0.
     999903    2    3    3    0    0 -0.37960808260E-01 -0.79857617160E-01 -0.92244276721E-01  0.12928897900E+00  0.19707143886E-01 0.  0.
         14    1    1    2    0    0 -0.22108456513E-01 -0.77938718649E-02 -0.18543981820E-03  0.23442753165E-01  0.00000000000E+00 0. -1.
     999901    1    3    3    0    0  0.60069264773E-01  0.87651489025E-01  0.92429716539E-01  0.89119826784E+00  0.88000000000E+00 0. -1.
        -11    1    4    4    0    0 -0.10843349435E-01 -0.27851744292E-01 -0.44759572452E-01  0.53823585297E-01  0.51100000000E-03 0.  1.
         11    1    4    4    0    0 -0.27117458825E-01 -0.52005872868E-01 -0.47484704268E-01  0.75465393700E-01  0.51100000000E-03 0. -1.
</event>
<event>
 8    1  0.1054086E+005  0.1043930E+01  0.7957747E-01            NaN
         13   -1    0    0    0    0  0.00000000000E+00  0.00000000000E+00  0.74505805969E-08  0.10566000000E+00  0.10566000000E+00 0.  1.
     999900   -1    0    0    0    0 -0.00000000000E+00 -0.00000000000E+00 -0.74505805969E-08  0.93827000000E+00  0.93827000000E+00 0. -1.
     999902    2    1    2    0    0 -0.24505504291E-02  0.10412180742E-01 -0.19020780797E-01  0.10221077910E+01  0.10218748101E+01 0.  0.
     999903    2    3    3    0    0  0.14625936009E-01 -0.11541956216E+00 -0.59346159813E-01  0.13207893182E+00  0.19679537899E-01 0.  0.
         14    1    1    2    0    0  0.24505504291E-02 -0.10412180742E-01  0.19020780797E-01  0.21822209039E-01  0.00000000000E+00 0.  1.
     999901    1    3    3    0    0 -0.17076486439E-01  0.12583174291E+00  0.40325379016E-01  0.89002885914E+00  0.88000000000E+00 0. -1.
        -11    1    4    4    0    0  0.11984621223E-01 -0.53732968556E-01 -0.37365213627E-01  0.66537834095E-01  0.51100000000E-03 0. -1.
         11    1    4    4    0    0  0.26413147867E-02 -0.61686593607E-01 -0.21980946186E-01  0.65541097724E-01  0.51100000000E-03 0.  1.
</event>
<event>
 8    1  0.1054086E+005  0.1043930E+01  0.7957747E-01            NaN
         13   -1    0    0    0    0  0.00000000000E+00  0.00000000000E+00  0.74505805969E-08  0.10566000000E+00  0.10566000000E+00 0.  1.
     999900   -1    0    0    0    0 -0.00000000000E+00 -0.00000000000E+00 -0.74505805969E-08  0.93827000000E+00  0.93827000000E+00 0. -1.
     999902    2    1    2    0    0  0.27598534913E-02 -0.25752961372E-01  0.61283481340E-02  0.10173144320E+01  0.10169662064E+01 0.  0.
     999903    2    3    3    0    0 -0.41029285118E-01  0.95220941200E-02 -0.11793621817E+00  0.12683487869E+00  0.20101302980E-01 0.  0.
         14    1    1    2    0    0 -0.27598534913E-02  0.25752961372E-01 -0.61283481340E-02  0.26615568030E-01  0.00000000000E+00 0. -1.
     999901    1    3    3    0    0  0.43789138610E-01 -0.35275055492E-01  0.12406456631E+00  0.89047955328E+00  0.88000000000E+00 0.  1.
        -11    1    4    4    0    0 -0.26470940957E-01 -0.30479550444E-02 -0.56783116255E-01  0.62726263700E-01  0.51100000000E-03 0. -1.
         11    1    4    4    0    0 -0.14558344161E-01  0.12570049164E-01 -0.61153101917E-01  0.64108614989E-01  0.51100000000E-03 0.  1.
</event>
<event>
 8    1  0.1054086E+005  0.1043930E+01  0.7957747E-01            NaN
         13   -1    0    0    0    0  0.00000000000E+00  0.00000000000E+00  0.74505805969E-08  0.10566000000E+00  0.10566000000E+00 0. -1.
     999900   -1    0    0    0    0 -0.00000000000E+00 -0.00000000000E+00 -0.74505805969E-08  0.93827000000E+00  0.93827000000E+00 0.  1.
     999902    2    1    2    0    0 -0.20406703259E-01 -0.14667991091E-01  0.82765769181E-02  0.10174708763E+01  0.10171267861E+01 0.  0.
     999903    2    3    3    0    0  0.78525291503E-01  0.21675267960E-01  0.95323409680E-01  0.12691738373E+00  0.19632402123E-01 0.  0.
         14    1    1    2    0    0  0.20406703259E-01  0.14667991091E-01 -0.82765769181E-02  0.26459123682E-01  0.00000000000E+00 0. -1.
     999901    1    3    3    0    0 -0.98931994762E-01 -0.36343259051E-01 -0.87046832762E-01  0.89055349259E+00  0.88000000000E+00 0. -1.
        -11    1    4    4    0    0  0.11083345980E-01 -0.32025940607E-02  0.17567940629E-01  0.21023577854E-01  0.51100000000E-03 0. -1.
         11    1    4    4    0    0  0.67441945523E-01  0.24877862021E-01  0.77755469051E-01  0.10589380588E+00  0.51100000000E-03 0.  1.
</event>
<event>
 8    1  0.1056078E+005  0.1043930E+01  0.7957747E-01            NaN
         13   -1    0    0    0    0  0.00000000000E+00  0.00000000000E+00  0.74505805969E-08  0.10566000000E+00  0.10566000000E+00 0.  1.
     999900   -1    0    0    0    0 -0.00000000000E+00 -0.00000000000E+00 -0.74505805969E-08  0.93827000000E+00  0.93827000000E+00 0. -1.
     999902    2    1    2    0    0  0.32703203802E-03 -0.59696529264E-02 -0.23161140531E-01  0.10200096711E+01  0.10197291537E+01 0.  0.
     999903    2    3    3    0    0  0.92360735201E-02 -0.15399583746E-01  0.12467967456E+00  0.12758309076E+00  0.20247754584E-01 0.  0.
         14    1    1    2    0    0 -0.32703203802E-03  0.59696529264E-02  0.23161140531E-01  0.23920328942E-01  0.00000000000E+00 0.  1.
     999901    1    3    3    0    0 -0.89090414821E-02  0.94299308195E-02 -0.14784081509E+00  0.89242658030E+00  0.88000000000E+00 0. -1.
        -11    1    4    4    0    0  0.14042619225E-01 -0.63995028637E-02  0.93667003371E-01  0.94931119413E-01  0.51100000000E-03 0.  1.
         11    1    4    4    0    0 -0.48065457046E-02 -0.90000808822E-02  0.31012671190E-01  0.32651971346E-01  0.51100000000E-03 0. -1.
</event>
<event>
 8    1  0.1054086E+005  0.1043930E+01  0.7957747E-01            NaN
         13   -1    0    0    0    0  0.00000000000E+00  0.00000000000E+00  0.74505805969E-08  0.10566000000E+00  0.10566000000E+00 0. -1.
     999900   -1    0    0    0    0 -0.00000000000E+00 -0.00000000000E+00 -0.74505805969E-08  0.93827000000E+00  0.93827000000E+00 0.  1.
     999902    2    1    2    0    0 -0.22339947002E-01 -0.15162399935E-02 -0.89641622714E-02  0.10198109531E+01  0.10195256994E+01 0.  0.
     999903    2    3    3    0    0 -0.11893676251E+00 -0.40612499473E-01 -0.37609057394E-01  0.13319943039E+00  0.23072027819E-01 0.  0.
         14    1    1    2    0    0  0.22339947002E-01  0.15162399935E-02  0.89641622714E-02  0.24119046851E-01  0.00000000000E+00 0. -1.
     999901    1    3    3    0    0  0.96596815511E-01  0.39096259480E-01  0.28644895123E-01  0.88661152276E+00  0.88000000000E+00 0.  1.
        -11    1    4    4    0    0 -0.47494989409E-01 -0.12451674943E-01 -0.25911912784E-01  0.55520325764E-01  0.51100000000E-03 0. -1.
         11    1    4    4    0    0 -0.71441773104E-01 -0.28160824531E-01 -0.11697144610E-01  0.77679104627E-01  0.51100000000E-03 0.  1.
</event>
<event>
 8    1  0.1054086E+005  0.1043930E+01  0.7957747E-01            NaN
         13   -1    0    0    0    0  0.00000000000E+00  0.00000000000E+00  0.74505805969E-08  0.10566000000E+00  0.10566000000E+00 0. -1.
     999900   -1    0    0    0    0 -0.00000000000E+00 -0.00000000000E+00 -0.74505805969E-08  0.93827000000E+00  0.93827000000E+00 0. -1.
     999902    2    1    2    0    0  0.12571600786E-01  0.67308112165E-02 -0.18644353021E-01  0.10204574444E+01  0.10201874509E+01 0.  0.
     999903    2    3    3    0    0 -0.88685343038E-01  0.23735558175E-01  0.87308800702E-01  0.12817486537E+00  0.19429427184E-01 0.  0.
         14    1    1    2    0    0 -0.12571600786E-01 -0.67308112165E-02  0.18644353021E-01  0.23472555582E-01  0.00000000000E+00 0. -1.
     999901    1    3    3    0    0  0.10125694382E+00 -0.17004746959E-01 -0.10595315372E+00  0.89228257905E+00  0.88000000000E+00 0. -1.
        -11    1    4    4    0    0 -0.59148238800E-01  0.62565040914E-02  0.57026907260E-01  0.82401379049E-01  0.51100000000E-03 0. -1.
         11    1    4    4    0    0 -0.29537104238E-01  0.17479054084E-01  0.30281893442E-01  0.45773486320E-01  0.51100000000E-03 0.  1.
</event>
<event>
 8    1  0.1054086E+005  0.1043930E+01  0.7957747E-01            NaN
         13   -1    0    0    0    0  0.00000000000E+00  0.00000000000E+00  0.74505805969E-08  0.10566000000E+00  0.10566000000E+00 0. -1.
     999900   -1    0    0    0    0 -0.00000000000E+00 -0.00000000000E+00 -0.74505805969E-08  0.93827000000E+00  0.93827000000E+00 0.  1.
     999902    2    1    2    0    0  0.16772530918E-01 -0.18994349775E-01 -0.38984416624E-02  0.10182921186E+01  0.10179693206E+01 0.  0.
     999903    2    3    3    0    0 -0.11708991592E-01  0.64227522299E-01  0.10708686799E+00  0.12697016996E+00  0.19787664320E-01 0.  0.
         14    1    1    2    0    0 -0.16772530918E-01  0.18994349775E-01  0.38984416624E-02  0.25637881428E-01  0.00000000000E+00 0. -1.
     999901    1    3    3    0    0  0.28481522509E-01 -0.83221872074E-01 -0.11098530965E+00  0.89132194861E+00  0.88000000000E+00 0.  1.
        -11    1    4    4    0    0 -0.87776554031E-02  0.79311425701E-02  0.18146976253E-01  0.21668505370E-01  0.51100000000E-03 0. -1.
         11    1    4    4    0    0 -0.29313361885E-02  0.56296379729E-01  0.88939891737E-01  0.10530166459E+00  0.51100000000E-03 0.  1.
</event>
<event>
 8    1  0.1054086E+005  0.1043930E+01  0.7957747E-01            NaN
         13   -1    0    0    0    0  0.00000000000E+00  0.00000000000E+00  0.74505805969E-08  0.10566000000E+00  0.10566000000E+00 0.  1.
     999900   -1    0    0    0    0 -0.00000000000E+00 -0.00000000000E+00 -0.74505805969E-08  0.93827000000E+00  0.93827000000E+00 0. -1.
     999902    2    1    2    0    0  0.15112657364E-01  0.15747943692E-02 -0.19039012719E-01  0.10195710921E+01  0.10192800672E+01 0.  0.
     999903    2    3    3    0    0  0.10667130920E+00  0.21102644201E-01 -0.73695658769E-01  0.13291914650E+00  0.20306638969E-01 0.  0.
         14    1    1    2    0    0 -0.15112657364E-01 -0.15747943692E-02  0.19039012719E-01  0.24358907923E-01  0.00000000000E+00 0.  1.
     999901    1    3    3    0    0 -0.91558651831E-01 -0.19527849832E-01  0.54656646050E-01  0.88665194558E+00  0.88000000000E+00 0.  1.
        -11    1    4    4    0    0  0.87370151520E-01  0.17579426937E-01 -0.50141204774E-01  0.10225938180E+00  0.51100000000E-03 0. -1.
         11    1    4    4    0    0  0.19301157675E-01  0.35232172638E-02 -0.23554453995E-01  0.30659764700E-01  0.51100000000E-03 0.  1.
</event>
<event>
 8    1  0.1054086E+005  0.1043930E+01  0.7957747E-01            NaN
         13   -1    0    0    0    0  0.00000000000E+00  0.00000000000E+00  0.74505805969E-08  0.10566000000E+00  0.10566000000E+00 0. -1.
     999900   -1    0    0    0    0 -0.00000000000E+00 -0.00000000000E+00 -0.74505805969E-08  0.93827000000E+00  0.93827000000E+00 0. -1.
     999902    2    1    2    0    0  0.84004209911E-02  0.19449654007E-01 -0.11667801027E-02  0.10227116709E+01  0.10224915375E+01 0.  0.
     999903    2    3    3    0    0 -0.21027119529E-01  0.10202295900E+00  0.82452603968E-01  0.13441187228E+00  0.20427814136E-01 0.  0.
         14    1    1    2    0    0 -0.84004209911E-02 -0.19449654007E-01  0.11667801027E-02  0.21218329096E-01  0.00000000000E+00 0.  1.
     999901    1    3    3    0    0  0.29427540520E-01 -0.82573304994E-01 -0.83619384070E-01  0.88829979862E+00  0.88000000000E+00 0. -1.
        -11    1    4    4    0    0 -0.21949233491E-01  0.58175819889E-01  0.45311100979E-01  0.76938624003E-01  0.51100000000E-03 0. -1.
         11    1    4    4    0    0  0.92211396239E-03  0.43847139113E-01  0.37141502989E-01  0.57473248279E-01  0.51100000000E-03 0.  1.
</event>
<event>
 8    1  0.1054086E+005  0.1043930E+01  0.7957747E-01            NaN
         13   -1    0    0    0    0  0.00000000000E+00  0.00000000000E+00  0.74505805969E-08  0.10566000000E+00  0.10566000000E+00 0.  1.
     999900   -1    0    0    0    0 -0.00000000000E+00 -0.00000000000E+00 -0.74505805969E-08  0.93827000000E+00  0.93827000000E+00 0.  1.
     999902    2    1    2    0    0  0.19957519411E-01  0.11756694656E-01 -0.40589854351E-02  0.10204140945E+01  0.10201430911E+01 0.  0.
     999903    2    3    3    0    0 -0.73284403897E-01 -0.10323949809E+00  0.98270637874E-02  0.12793944330E+00  0.15586280790E-01 0.  0.
         14    1    1    2    0    0 -0.19957519411E-01 -0.11756694656E-01  0.40589854351E-02  0.23515905533E-01  0.00000000000E+00 0. -1.
     999901    1    3    3    0    0  0.93241923307E-01  0.11499619275E+00 -0.13886049223E-01  0.89247465116E+00  0.88000000000E+00 0.  1.
        -11    1    4    4    0    0 -0.14103002454E-01 -0.30616454722E-01  0.54728849501E-02  0.34153705050E-01  0.51100000000E-03 0.  1.
         11    1    4    4    0    0 -0.59181401443E-01 -0.72623043371E-01  0.43541788373E-02  0.93785738252E-01  0.51100000000E-03 0. -1.
</event>
<event>
 8    1  0.1054086E+005  0.1043930E+01  0.7957747E-01            NaN
         13   -1    0    0    0    0  0.00000000000E+00  0.00000000000E+00  0.74505805969E-08  0.10566000000E+00  0.10566000000E+00 0.  1.
     999900   -1    0    0    0    0 -0.00000000000E+00 -0.00000000000E+00 -0.74505805969E-08  0.93827000000E+00  0.93827000000E+00 0. -1.
     999902    2    1    2    0    0  0.17893392164E-01  0.13359936013E-01 -0.79900623764E-02  0.10202128655E+01  0.10199371492E+01 0.  0.
     999903    2    3    3    0    0  0.46482841834E-01  0.11612528347E+00 -0.41048060736E-01  0.13315542397E+00  0.19992188384E-01 0.  0.
         14    1    1    2    0    0 -0.17893392164E-01 -0.13359936013E-01  0.79900623764E-02  0.23717134527E-01  0.00000000000E+00 0.  1.
     999901    1    3    3    0    0 -0.28589449671E-01 -0.10276534746E+00  0.33057998360E-01  0.88705744150E+00  0.88000000000E+00 0. -1.
        -11    1    4    4    0    0  0.28726964356E-01  0.83902435327E-01 -0.37159674161E-01  0.96155913181E-01  0.51100000000E-03 0.  1.
         11    1    4    4    0    0  0.17755877478E-01  0.32222848143E-01 -0.38883865757E-02  0.36999510789E-01  0.51100000000E-03 0. -1.
</event>
<event>
 8    1  0.1054086E+005  0.1043930E+01  0.7957747E-01            NaN
         13   -1    0    0    0    0  0.00000000000E+00  0.00000000000E+00  0.74505805969E-08  0.10566000000E+00  0.10566000000E+00 0. -1.
     999900   -1    0    0    0    0 -0.00000000000E+00 -0.00000000000E+00 -0.74505805969E-08  0.93827000000E+00  0.93827000000E+00 0. -1.
     999902    2    1    2    0    0  0.40482823033E-02 -0.25764163024E-01 -0.14404163759E-02  0.10178099792E+01  0.10174747654E+01 0.  0.
     999903    2    3    3    0    0  0.15556151604E-01  0.10153420801E+00 -0.67955068565E-01  0.12609169116E+00  0.27019141116E-01 0.  0.
         14    1    1    2    0    0 -0.40482823033E-02  0.25764163024E-01  0.14404163759E-02  0.26120020774E-01  0.00000000000E+00 0. -1.
     999901    1    3    3    0    0 -0.11507869300E-01 -0.12729837103E+00  0.66514652189E-01  0.89171828807E+00  0.88000000000E+00 0.  1.
        -11    1    4    4    0    0 -0.61560604372E-02  0.38852040657E-01 -0.19271945046E-01  0.43806930162E-01  0.51100000000E-03 0.  1.
         11    1    4    4    0    0  0.21712212041E-01  0.62682167349E-01 -0.48683123518E-01  0.82284760994E-01  0.51100000000E-03 0. -1.
</event>
<event>
 8    1  0.1054086E+005  0.1043930E+01  0.7957747E-01            NaN
         13   -1    0    0    0    0  0.00000000000E+00  0.00000000000E+00  0.74505805969E-08  0.10566000000E+00  0.10566000000E+00 0.  1.
     999900   -1    0    0    0    0 -0.00000000000E+00 -0.00000000000E+00 -0.74505805969E-08  0.93827000000E+00  0.93827000000E+00 0.  1.
     999902    2    1    2    0    0 -0.20230908211E-01  0.14508362201E-01  0.11234633347E-01  0.10166170139E+01  0.10162500449E+01 0.  0.
     999903    2    3    3    0    0 -0.49239277510E-01  0.11424201896E+00  0.32891862773E-01  0.13024388520E+00  0.20145710448E-01 0.  0.
         14    1    1    2    0    0  0.20230908211E-01 -0.14508362201E-01 -0.11234633347E-01  0.27312986055E-01  0.00000000000E+00 0. -1.
     999901    1    3    3    0    0  0.29008369300E-01 -0.99733656756E-01 -0.21657229426E-01  0.88637312875E+00  0.88000000000E+00 0.  1.
        -11    1    4    4    0    0 -0.45717667311E-01  0.85413380098E-01  0.27415095190E-01  0.10068465211E+00  0.51100000000E-03 0.  1.
         11    1    4    4    0    0 -0.35216101989E-02  0.28828638859E-01  0.54767675828E-02  0.29559233092E-01  0.51100000000E-03 0. -1.
</event>
<event>
 8    1  0.1054086E+005  0.1043930E+01  0.7957747E-01            NaN
         13   -1    0    0    0    0  0.00000000000E+00  0.00000000000E+00  0.74505805969E-08  0.10566000000E+00  0.10566000000E+00 0.  1.
     999900   -1    0    0    0    0 -0.00000000000E+00 -0.00000000000E+00 -0.74505805969E-08  0.93827000000E+00  0.93827000000E+00 0. -1.
     999902    2    1    2    0    0 -0.65924096533E-02  0.13373064542E-01 -0.15660334905E-01  0.10223072155E+01  0.10220785185E+01 0.  0.
     999903    2    3    3    0    0 -0.65274602330E-01  0.49061061555E-01 -0.10565587449E+00  0.13505503601E+00  0.20222202277E-01 0.  0.
         14    1    1    2    0    0  0.65924096533E-02 -0.13373064542E-01  0.15660334905E-01  0.21622784502E-01  0.00000000000E+00 0.  1.
     999901    1    3    3    0    0  0.58682192677E-01 -0.35687997013E-01  0.89995539589E-01  0.88725217949E+00  0.88000000000E+00 0.  1.
        -11    1    4    4    0    0 -0.65011536530E-01  0.42804224060E-01 -0.97629588094E-01  0.12486192002E+00  0.51100000000E-03 0. -1.
         11    1    4    4    0    0 -0.26306580058E-03  0.62568374951E-02 -0.80262864003E-02  0.10193115983E-01  0.51100000000E-03 0.  1.
</event>
<event>
 8    1  0.1054086E+005  0.1043930E+01  0.7957747E-01            NaN
         13   -1    0    0    0    0  0.00000000000E+00  0.00000000000E+00  0.74505805969E-08  0.10566000000E+00  0.10566000000E+00 0. -1.
     999900   -1    0    0    0    0 -0.00000000000E+00 -0.00000000000E+00 -0.74505805969E-08  0.93827000000E+00  0.93827000000E+00 0.  1.
     999902    2    1    2    0    0 -0.22578195395E-01 -0.15985032637E-01  0.50411251735E-02  0.10158104495E+01  0.10154211738E+01 0.  0.
     999903    2    3    3    0    0  0.14184123253E-01  0.12161755316E+00 -0.49401185988E-02  0.12430298186E+00  0.20852048780E-01 0.  0.
         14    1    1    2    0    0  0.22578195395E-01  0.15985032637E-01 -0.50411251735E-02  0.28119550471E-01  0.00000000000E+00 0. -1.
     999901    1    3    3    0    0 -0.36762318648E-01 -0.13760258579E+00  0.99812437722E-02  0.89150746767E+00  0.88000000000E+00 0.  1.
        -11    1    4    4    0    0 -0.48598635046E-02  0.44530192198E-01 -0.19876547348E-02  0.44841589878E-01  0.51100000000E-03 0. -1.
         11    1    4    4    0    0  0.19043986758E-01  0.77087360959E-01 -0.29524638640E-02  0.79461391978E-01  0.51100000000E-03 0.  1.
</event>
<event>
 8    1  0.1054086E+005  0.1043930E+01  0.7957747E-01            NaN
         13   -1    0    0    0    0  0.00000000000E+00  0.00000000000E+00  0.74505805969E-08  0.10566000000E+00  0.10566000000E+00 0.  1.
     999900   -1    0    0    0    0 -0.00000000000E+00 -0.00000000000E+00 -0.74505805969E-08  0.93827000000E+00  0.93827000000E+00 0. -1.
     999902    2    1    2    0    0 -0.22372143839E-02  0.60624230686E-02 -0.23025876389E-01  0.10200145430E+01  0.10197341412E+01 0.  0.
     999903    2    3    3    0    0  0.10998028341E+00  0.23075122717E-01 -0.65188508871E-01  0.13172411392E+00  0.21761812199E-01 0.  0.
         14    1    1    2    0    0  0.22372143839E-02 -0.60624230686E-02  0.23025876389E-01  0.23915457034E-01  0.00000000000E+00 0.  1.
     999901    1    3    3    0    0 -0.11221749780E+00 -0.17012699649E-01  0.42162632482E-01  0.88829042905E+00  0.88000000000E+00 0.  1.
        -11    1    4    4    0    0  0.57835107221E-01  0.82858085249E-02 -0.45501443454E-01  0.74055362585E-01  0.51100000000E-03 0.  1.
         11    1    4    4    0    0  0.52145176193E-01  0.14789314192E-01 -0.19687065416E-01  0.57668751332E-01  0.51100000000E-03 0. -1.
</event>
<event>
 8    1  0.1054086E+005  0.1043930E+01  0.7957747E-01            NaN
         13   -1    0    0    0    0  0.00000000000E+00  0.00000000000E+00  0.74505805969E-08  0.10566000000E+00  0.10566000000E+00 0.  1.
     999900   -1    0    0    0    0 -0.00000000000E+00 -0.00000000000E+00 -0.74505805969E-08  0.93827000000E+00  0.93827000000E+00 0.  1.
     999902    2    1    2    0    0  0.20586093495E-01 -0.87378560102E-02  0.54624727922E-02  0.10209087928E+01  0.10206491989E+01 0.  0.
     999903    2    3    3    0    0  0.22025643355E-01 -0.40647515863E-01 -0.12117665830E+00  0.13126967031E+00  0.20263127026E-01 0.  0.
         14    1    1    2    0    0 -0.20586093495E-01  0.87378560102E-02 -0.54624727922E-02  0.23021207224E-01  0.00000000000E+00 0. -1.
     999901    1    3    3    0    0 -0.14395498602E-02  0.31909659853E-01  0.12663913109E+00  0.88963912246E+00  0.88000000000E+00 0. -1.
        -11    1    4    4    0    0  0.82977043972E-02 -0.33067697841E-01 -0.92455005630E-01  0.98541938919E-01  0.51100000000E-03 0.  1.
         11    1    4    4    0    0  0.13727938958E-01 -0.75798180223E-02 -0.28721652666E-01  0.32727731394E-01  0.51100000000E-03 0. -1.
</event>
<event>
 8    1  0.1054086E+005  0.1043930E+01  0.7957747E-01            NaN
         13   -1    0    0    0    0  0.00000000000E+00  0.00000000000E+00  0.74505805969E-08  0.10566000000E+00  0.10566000000E+00 0. -1.
     999900   -1    0    0    0    0 -0.00000000000E+00 -0.00000000000E+00 -0.74505805969E-08  0.93827000000E+00  0.93827000000E+00 0.  1.
     999902    2    1    2    0    0  0.11891546836E-01  0.94435066347E-02  0.18886225608E-01  0.10196961761E+01  0.10194081682E+01 0.  0.
     999903    2    3    3    0    0  0.10492105865E+00 -0.74867798605E-01 -0.66636930832E-02  0.13041799430E+00  0.18730526279E-01 0.  0.
         14    1    1    2    0    0 -0.11891546836E-01 -0.94435066347E-02 -0.18886225608E-01  0.24233823913E-01  0.00000000000E+00 0.  1.
     999901    1    3    3    0    0 -0.93029511816E-01  0.84311305240E-01  0.25549918692E-01  0.88927818179E+00  0.88000000000E+00 0.  1.
        -11    1    4    4    0    0  0.39801407913E-01 -0.21969980614E-01  0.48895344400E-02  0.45727462078E-01  0.51100000000E-03 0. -1.
         11    1    4    4    0    0  0.65119650738E-01 -0.52897817992E-01 -0.11553227523E-01  0.84690532220E-01  0.51100000000E-03 0.  1.
</event>
<event>
 8    1  0.1054086E+005  0.1043930E+01  0.7957747E-01            NaN
         13   -1    0    0    0    0  0.00000000000E+00  0.00000000000E+00  0.74505805969E-08  0.10566000000E+00  0.10566000000E+00 0.  1.
     999900   -1    0    0    0    0 -0.00000000000E+00 -0.00000000000E+00 -0.74505805969E-08  0.93827000000E+00  0.93827000000E+00 0. -1.
     999902    2    1    2    0    0 -0.19218573458E-01  0.29821681797E-02  0.76279235394E-02  0.10230390424E+01  0.10228257184E+01 0.  0.
     999903    2    3    3    0    0  0.51148213505E-01 -0.13910440242E-01 -0.11799161967E+00  0.13117744181E+00  0.21814188889E-01 0.  0.
         14    1    1    2    0    0  0.19218573458E-01 -0.29821681797E-02 -0.76279235394E-02  0.20890957621E-01  0.00000000000E+00 0.  1.
     999901    1    3    3    0    0 -0.70366786963E-01  0.16892608422E-01  0.12561954321E+00  0.89186160056E+00  0.88000000000E+00 0.  1.
        -11    1    4    4    0    0  0.22229762165E-01 -0.10349972888E-01 -0.31587515917E-01  0.39991455932E-01  0.51100000000E-03 0.  1.
         11    1    4    4    0    0  0.28918451340E-01 -0.35604673541E-02 -0.86404103749E-01  0.91185985883E-01  0.51100000000E-03 0. -1.
</event>
<event>
 7    1  0.1054086E+005  0.1043930E+01  0.7957747E-01            NaN
         13   -1    0    0    0    0  0.00000000000E+00  0.00000000000E+00  0.74505805969E-08  0.10566000000E+00  0.10566000000E+00 0.  1.
     999900   -1    0    0    0    0 -0.00000000000E+00 -0.00000000000E+00 -0.74505805969E-08  0.93827000000E+00  0.93827000000E+00 0. -1.
     999902    2    1    2    0    0  0.14071663132E-01 -0.95638465745E-02 -0.15247949091E-01  0.10210831443E+01  0.10208275117E+01 0.  0.
         14    1    1    2    0    0 -0.14071663132E-01  0.95638465745E-02  0.15247949091E-01  0.22846855715E-01  0.00000000000E+00 0.  1.
     999901    1    3    3    0    0 -0.10138946770E+00  0.38321857543E-02  0.50891295717E-01  0.88729050135E+00  0.88000000000E+00 0. -1.
        -11    1    3    3    0    0  0.35409123918E-01 -0.38619434155E-02 -0.18308820856E-01  0.40052399501E-01  0.51100000000E-03 0. -1.
         11    1    3    3    0    0  0.80052006915E-01 -0.95340889134E-02 -0.47830423951E-01  0.93740243433E-01  0.51100000000E-03 0.  1.
</event>
<event>
 8    1  0.1054086E+005  0.1043930E+01  0.7957747E-01            NaN
         13   -1    0    0    0    0  0.00000000000E+00  0.00000000000E+00  0.74505805969E-08  0.10566000000E+00  0.10566000000E+00 0.  1.
     999900   -1    0    0    0    0 -0.00000000000E+00 -0.00000000000E+00 -0.74505805969E-08  0.93827000000E+00  0.93827000000E+00 0.  1.
     999902    2    1    2    0    0 -0.19534002267E-01 -0.11094505366E-01 -0.87015994663E-02  0.10198388579E+01  0.10195542717E+01 0.  0.
     999903    2    3    3    0    0 -0.86043613623E-01 -0.11443874276E-01  0.96244976578E-01  0.13111087124E+00  0.19811596052E-01 0.  0.
         14    1    1    2    0    0  0.19534002267E-01  0.11094505366E-01  0.87015994663E-02  0.24091142089E-01  0.00000000000E+00 0. -1.
     999901    1    3    3    0    0  0.66509611356E-01  0.34936891038E-03 -0.10494657604E+00  0.88872798667E+00  0.88000000000E+00 0.  1.
        -11    1    4    4    0    0 -0.69200956993E-01 -0.36269415179E-02  0.66510488170E-01  0.96051201508E-01  0.51100000000E-03 0. -1.
         11    1    4    4    0    0 -0.16842656630E-01 -0.78169327582E-02  0.29734488409E-01  0.35059669736E-01  0.51100000000E-03 0.  1.
</event>
<event>
 8    1  0.1063345E+005  0.1043930E+01  0.7957747E-01            NaN
         13   -1    0    0    0    0  0.00000000000E+00  0.00000000000E+00  0.74505805969E-08  0.10566000000E+00  0.10566000000E+00 0. -1.
     999900   -1    0    0    0    0 -0.00000000000E+00 -0.00000000000E+00 -0.74505805969E-08  0.93827000000E+00  0.93827000000E+00 0. -1.
     999902    2    1    2    0    0  0.46448868221E-02 -0.84241520334E-02  0.20793978158E-01  0.10210186308E+01  0.10207615361E+01 0.  0.
     999903    2    3    3    0    0  0.93801055285E-01 -0.67701436722E-01  0.63682667095E-01  0.13349282357E+00  0.19563469785E-01 0.  0.
         14    1    1    2    0    0 -0.46448868221E-02  0.84241520334E-02 -0.20793978158E-01  0.22911369202E-01  0.00000000000E+00 0.  1.
     999901    1    3    3    0    0 -0.89156168463E-01  0.59277284688E-01 -0.42888688937E-01  0.88752580723E+00  0.88000000000E+00 0. -1.
        -11    1    4    4    0    0  0.55917941711E-01 -0.35106188888E-01  0.46033016722E-01  0.80489505234E-01  0.51100000000E-03 0.  1.
         11    1    4    4    0    0  0.37883113575E-01 -0.32595247834E-01  0.17649650373E-01  0.53003318337E-01  0.51100000000E-03 0. -1.
</event>
<event>
 8    1  0.1054086E+005  0.1043930E+01  0.7957747E-01            NaN
         13   -1    0    0    0    0  0.00000000000E+00  0.00000000000E+00  0.74505805969E-08  0.10566000000E+00  0.10566000000E+00 0. -1.
     999900   -1    0    0    0    0 -0.00000000000E+00 -0.00000000000E+00 -0.74505805969E-08  0.93827000000E+00  0.93827000000E+00 0. -1.
     999902    2    1    2    0    0 -0.64101313361E-02  0.22586292899E-01 -0.28360701239E-02  0.10202810316E+01  0.10200069166E+01 0.  0.
     999903    2    3    3    0    0 -0.12830406913E+00  0.15241076111E-01  0.14829372767E-01  0.13167304600E+00  0.20582910126E-01 0.  0.
         14    1    1    2    0    0  0.64101313361E-02 -0.22586292899E-01  0.28360701239E-02  0.23648968358E-01  0.00000000000E+00 0.  1.
     999901    1    3    3    0    0  0.12189393779E+00  0.73452167874E-02 -0.17665442891E-01  0.88860798565E+00  0.88000000000E+00 0. -1.
        -11    1    4    4    0    0 -0.19270184264E-01  0.98970200311E-02  0.23701172919E-02  0.21798384895E-01  0.51100000000E-03 0.  1.
         11    1    4    4    0    0 -0.10903388486E+00  0.53440560803E-02  0.12459255476E-01  0.10987466110E+00  0.51100000000E-03 0. -1.
</event>
<event>
 8    1  0.1054086E+005  0.1043930E+01  0.7957747E-01            NaN
         13   -1    0    0    0    0  0.00000000000E+00  0.00000000000E+00  0.74505805969E-08  0.10566000000E+00  0.10566000000E+00 0.  1.
     999900   -1    0    0    0    0 -0.00000000000E+00 -0.00000000000E+00 -0.74505805969E-08  0.93827000000E+00  0.93827000000E+00 0. -1.
     999902    2    1    2    0    0  0.66749380708E-02  0.23622649241E-01 -0.37125063482E-03  0.10193795991E+01  0.10190839244E+01 0.  0.
     999903    2    3    3    0    0 -0.35396367952E-01 -0.11692358408E+00  0.27561781704E-01  0.12679711399E+00  0.19845123553E-01 0.  0.
         14    1    1    2    0    0 -0.66749380708E-02 -0.23622649241E-01  0.37125063482E-03  0.24550400861E-01  0.00000000000E+00 0.  1.
     999901    1    3    3    0    0  0.42071306023E-01  0.14054623332E+00 -0.27933032339E-01  0.89258248514E+00  0.88000000000E+00 0.  1.
        -11    1    4    4    0    0 -0.10392182648E-01 -0.65401019397E-01  0.10599850139E-01  0.67066450199E-01  0.51100000000E-03 0. -1.
         11    1    4    4    0    0 -0.25004185304E-01 -0.51522564681E-01  0.16961931565E-01  0.59730663796E-01  0.51100000000E-03 0.  1.
</event>
<event>
 8    1  0.1054086E+005  0.1043930E+01  0.7957747E-01            NaN
         13   -1    0    0    0    0  0.00000000000E+00  0.00000000000E+00  0.74505805969E-08  0.10566000000E+00  0.10566000000E+00 0.  1.
     999900   -1    0    0    0    0 -0.00000000000E+00 -0.00000000000E+00 -0.74505805969E-08  0.93827000000E+00  0.93827000000E+00 0.  1.
     999902    2    1    2    0    0 -0.95688310287E-02  0.42370283644E-02 -0.22848678168E-01  0.10187988036E+01  0.10184887949E+01 0.  0.
     999903    2    3    3    0    0  0.11475940026E+00  0.23945638086E-01  0.46039585930E-01  0.12717582764E+00  0.17633324520E-01 0.  0.
         14    1    1    2    0    0  0.95688310287E-02 -0.42370283644E-02  0.22848678168E-01  0.25131196363E-01  0.00000000000E+00 0.  1.
     999901    1    3    3    0    0 -0.12432823128E+00 -0.19708609722E-01 -0.68888264098E-01  0.89162297599E+00  0.88000000000E+00 0.  1.
        -11    1    4    4    0    0  0.61229683818E-01  0.12389576393E-01  0.15086351472E-01  0.64268459647E-01  0.51100000000E-03 0.  1.
         11    1    4    4    0    0  0.53529716437E-01  0.11556061693E-01  0.30953234458E-01  0.62907367995E-01  0.51100000000E-03 0. -1.
</event>
<event>
 8    1  0.1054086E+005  0.1043930E+01  0.7957747E-01            NaN
         13   -1    0    0    0    0  0.00000000000E+00  0.00000000000E+00  0.74505805969E-08  0.10566000000E+00  0.10566000000E+00 0.  1.
     999900   -1    0    0    0    0 -0.00000000000E+00 -0.00000000000E+00 -0.74505805969E-08  0.93827000000E+00  0.93827000000E+00 0.  1.
     999902    2    1    2    0    0  0.16588713501E-01 -0.39011013829E-02  0.17637862936E-01  0.10194045394E+01  0.10191094724E+01 0.  0.
     999903    2    3    3    0    0  0.23931030702E-01 -0.11317489499E-01 -0.12360883020E+00  0.12807994044E+00  0.20604573307E-01 0.  0.
         14    1    1    2    0    0 -0.16588713501E-01  0.39011013829E-02 -0.17637862936E-01  0.24525460578E-01  0.00000000000E+00 0. -1.
     999901    1    3    3    0    0 -0.73423172012E-02  0.74163881161E-02  0.14124669313E+00  0.89132459898E+00  0.88000000000E+00 0. -1.
        -11    1    4    4    0    0  0.22886798594E-01 -0.23163584688E-02 -0.69354960641E-01  0.73072174957E-01  0.51100000000E-03 0.  1.
         11    1    4    4    0    0  0.10442321078E-02 -0.90011310302E-02 -0.54253869555E-01  0.55007765481E-01  0.51100000000E-03 0. -1.
</event>
<event>
 8    1  0.1054086E+005  0.1043930E+01  0.7957747E-01            NaN
         13   -1    0    0    0    0  0.00000000000E+00  0.00000000000E+00  0.74505805969E-08  0.10566000000E+00  0.10566000000E+00 0. -1.
     999900   -1    0    0    0    0 -0.00000000000E+00 -0.00000000000E+00 -0.74505805969E-08  0.93827000000E+00  0.93827000000E+00 0. -1.
     999902    2    1    2    0    0 -0.10164012804E-01 -0.62269813639E-02  0.19992425470E-01  0.10206538420E+01  0.10203883995E+01 0.  0.
     999903    2    3    3    0    0 -0.82785655073E-02 -0.10115145890E-01 -0.12634472139E+00  0.12855898538E+00  0.19838681246E-01 0.  0.
         14    1    1    2    0    0  0.10164012804E-01  0.62269813639E-02 -0.19992425470E-01  0.23276157960E-01  0.00000000000E+00 0.  1.
     999901    1    3    3    0    0 -0.18854472971E-02  0.38881645257E-02  0.14633714686E+00  0.89209485666E+00  0.88000000000E+00 0.  1.
        -11    1    4    4    0    0  0.96854746060E-03 -0.63711191807E-02 -0.10253560023E+00  0.10273918279E+00  0.51100000000E-03 0. -1.
         11    1    4    4    0    0 -0.92471129679E-02 -0.37440267088E-02 -0.23809121162E-01  0.25819802589E-01  0.51100000000E-03 0.  1.
</event>
<event>
 8    1  0.1054086E+005  0.1043930E+01  0.7957747E-01            NaN
         13   -1    0    0    0    0  0.00000000000E+00  0.00000000000E+00  0.74505805969E-08  0.10566000000E+00  0.10566000000E+00 0.  1.
     999900   -1    0    0    0    0 -0.00000000000E+00 -0.00000000000E+00 -0.74505805969E-08  0.93827000000E+00  0.93827000000E+00 0. -1.
     999902    2    1    2    0    0 -0.21920923729E-01 -0.66116424895E-02 -0.93744535180E-02  0.10191889189E+01  0.10188885765E+01 0.  0.
     999903    2    3    3    0    0  0.10646807579E+00  0.26385481951E-01  0.59903475285E-01  0.12656807174E+00  0.19985134810E-01 0.  0.
         14    1    1    2    0    0  0.21920923729E-01  0.66116424895E-02  0.93744535180E-02  0.24741081066E-01  0.00000000000E+00 0.  1.
     999901    1    3    3    0    0 -0.12838899952E+00 -0.32997124440E-01 -0.69277928803E-01  0.89262084719E+00  0.88000000000E+00 0. -1.
        -11    1    4    4    0    0  0.22881374834E-01  0.13522589997E-01  0.18632971293E-01  0.32463309978E-01  0.51100000000E-03 0. -1.
         11    1    4    4    0    0  0.83586700957E-01  0.12862891954E-01  0.41270503992E-01  0.94104761766E-01  0.51100000000E-03 0.  1.
</event>
<event>
 8    1  0.1054086E+005  0.1043930E+01  0.7957747E-01            NaN
         13   -1    0    0    0    0  0.00000000000E+00  0.00000000000E+00  0.74505805969E-08  0.10566000000E+00  0.10566000000E+00 0. -1.
     999900   -1    0    0    0    0 -0.00000000000E+00 -0.00000000000E+00 -0.74505805969E-08  0.93827000000E+00  0.93827000000E+00 0.  1.
     999902    2    1    2    0    0 -0.19699687805E-02  0.19441897657E-01  0.14792562582E-01  0.10194210614E+01  0.10191263967E+01 0.  0.
     999903    2    3    3    0    0  0.10806286707E+00 -0.63814378293E-01  0.21829153482E-01  0.12864143322E+00  0.17951275189E-01 0.  0.
         14    1    1    2    0    0  0.19699687805E-02 -0.19441897657E-01 -0.14792562582E-01  0.24508938558E-01  0.00000000000E+00 0. -1.
     999901    1    3    3    0    0 -0.11003283586E+00  0.83256275950E-01 -0.70365909001E-02  0.89077962823E+00  0.88000000000E+00 0. -1.
        -11    1    4    4    0    0  0.94818330144E-01 -0.52771234496E-01  0.13089159105E-01  0.10930190359E+00  0.51100000000E-03 0.  1.
         11    1    4    4    0    0  0.13244536931E-01 -0.11043143797E-01  0.87399943765E-02  0.19339529625E-01  0.51100000000E-03 0. -1.
</event>
<event>
 8    1  0.1054086E+005  0.1043930E+01  0.7957747E-01            NaN
         13   -1    0    0    0    0  0.00000000000E+00  0.00000000000E+00  0.74505805969E-08  0.10566000000E+00  0.10566000000E+00 0.  1.
     999900   -1    0    0    0    0 -0.00000000000E+00 -0.00000000000E+00 -0.74505805969E-08  0.93827000000E+00  0.93827000000E+00 0.  1.
     999902    2    1    2    0    0 -0.71163970524E-02  0.11163605525E-01 -0.19439917388E-01  0.10204102299E+01  0.10201391365E+01 0.  0.
     999903    2    3    3    0    0  0.48271180060E-01  0.62796067849E-01  0.10010243199E+00  0.12910552999E+00  0.19346524859E-01 0.  0.
         14    1    1    2    0    0  0.71163970524E-02 -0.11163605525E-01  0.19439917388E-01  0.23519770053E-01  0.00000000000E+00 0.  1.
     999901    1    3    3    0    0 -0.55387577112E-01 -0.51632462324E-01 -0.11954234937E+00  0.89130469995E+00  0.88000000000E+00 0.  1.
        -11    1    4    4    0    0  0.32578141058E-01  0.48225449008E-01  0.59693799800E-01  0.83370498753E-01  0.51100000000E-03 0.  1.
         11    1    4    4    0    0  0.15693039002E-01  0.14570618840E-01  0.40408632185E-01  0.45735031241E-01  0.51100000000E-03 0. -1.
</event>
<event>
 8    1  0.1054086E+005  0.1043930E+01  0.7957747E-01            NaN
         13   -1    0    0    0    0  0.00000000000E+00  0.00000000000E+00  0.74505805969E-08  0.10566000000E+00  0.10566000000E+00 0. -1.
     999900   -1    0    0    0    0 -0.00000000000E+00 -0.00000000000E+00 -0.74505805969E-08  0.93827000000E+00  0.93827000000E+00 0.  1.
     999902    2    1    2    0    0  0.57207984911E-02  0.22898488820E-01  0.51010074311E-02  0.10197827724E+01  0.10194968436E+01 0.  0.
     999903    2    3    3    0    0 -0.11223387394E+00  0.39143672129E-01  0.49686381137E-01  0.13064551284E+00  0.21698940690E-01 0.  0.
         14    1    1    2    0    0 -0.57207984911E-02 -0.22898488820E-01 -0.51010074311E-02  0.24147227635E-01  0.00000000000E+00 0.  1.
     999901    1    3    3    0    0  0.11795467243E+00 -0.16245183308E-01 -0.44585373706E-01  0.88913725953E+00  0.88000000000E+00 0. -1.
        -11    1    4    4    0    0 -0.68524386416E-01  0.27463629913E-01  0.19847529797E-01  0.76446242954E-01  0.51100000000E-03 0. -1.
         11    1    4    4    0    0 -0.43709487524E-01  0.11680042216E-01  0.29838851340E-01  0.54199269885E-01  0.51100000000E-03 0.  1.
</event>
<event>
 8    1  0.1054086E+005  0.1043930E+01  0.7957747E-01            NaN
         13   -1    0    0    0    0  0.00000000000E+00  0.00000000000E+00  0.74505805969E-08  0.10566000000E+00  0.10566000000E+00 0.  1.
     999900   -1    0    0    0    0 -0.00000000000E+00 -0.00000000000E+00 -0.74505805969E-08  0.93827000000E+00  0.93827000000E+00 0.  1.
     999902    2    1    2    0    0 -0.14055161054E-01 -0.59107577741E-02  0.18338225459E-01  0.10200809933E+01  0.10198021660E+01 0.  0.
     999903    2    3    3    0    0 -0.90645701168E-01  0.35519359113E-01 -0.83856216576E-01  0.12989771471E+00  0.19059989927E-01 0.  0.
         14    1    1    2    0    0  0.14055161054E-01  0.59107577741E-02 -0.18338225459E-01  0.23849006745E-01  0.00000000000E+00 0. -1.
     999901    1    3    3    0    0  0.76590540113E-01 -0.41430116888E-01  0.10219444204E+00  0.89018327855E+00  0.88000000000E+00 0. -1.
        -11    1    4    4    0    0 -0.16410433561E-01  0.12165134532E-01 -0.10603189064E-01  0.23021328528E-01  0.51100000000E-03 0.  1.
         11    1    4    4    0    0 -0.74235267606E-01  0.23354224581E-01 -0.73253027512E-01  0.10687638618E+00  0.51100000000E-03 0. -1.
</event>
<event>
 8    1  0.1054086E+005  0.1043930E+01  0.7957747E-01            NaN
         13   -1    0    0    0    0  0.00000000000E+00  0.00000000000E+00  0.74505805969E-08  0.10566000000E+00  0.10566000000E+00 0. -1.
     999900   -1    0    0    0    0 -0.00000000000E+00 -0.00000000000E+00 -0.74505805969E-08  0.93827000000E+00  0.93827000000E+00 0. -1.
     999902    2    1    2    0    0  0.11729949231E-02  0.27370526841E-02 -0.23330206728E-01  0.10204105204E+01  0.10201394337E+01 0.  0.
     999903    2    3    3    0    0  0.16066056688E-01 -0.12628652214E+00  0.17008339524E-01  0.12996339426E+00  0.19869483668E-01 0.  0.
         14    1    1    2    0    0 -0.11729949231E-02 -0.27370526841E-02  0.23330206728E-01  0.23519479596E-01  0.00000000000E+00 0. -1.
     999901    1    3    3    0    0 -0.14893061765E-01  0.12902357483E+00 -0.40338546252E-01  0.89044712615E+00  0.88000000000E+00 0. -1.
        -11    1    4    4    0    0 -0.40097923054E-02 -0.92816384066E-02  0.99456736868E-03  0.10172390628E-01  0.51100000000E-03 0.  1.
         11    1    4    4    0    0  0.20075848994E-01 -0.11700488374E+00  0.16013772155E-01  0.11979100363E+00  0.51100000000E-03 0. -1.
</event>
<event>
 8    1  0.1054086E+005  0.1043930E+01  0.7957747E-01            NaN
         13   -1    0    0    0    0  0.00000000000E+00  0.00000000000E+00  0.74505805969E-08  0.10566000000E+00  0.10566000000E+00 0. -1.
     999900   -1    0    0    0    0 -0.00000000000E+00 -0.00000000000E+00 -0.74505805969E-08  0.93827000000E+00  0.93827000000E+00 0. -1.
     999902    2    1    2    0    0 -0.14339651314E-01 -0.21681245692E-01 -0.10227353357E-01  0.10159961358E+01  0.10156120554E+01 0.  0.
     999903    2    3    3    0    0 -0.51767190713E-01  0.77774420538E-01 -0.83026997318E-01  0.12661880391E+00  0.20251831915E-01 0.  0.
         14    1    1    2    0    0  0.14339651314E-01  0.21681245692E-01  0.10227353357E-01  0.27933864238E-01  0.00000000000E+00 0.  1.
     999901    1    3    3    0    0  0.37427539399E-01 -0.99455666229E-01  0.72799643961E-01  0.88937733185E+00  0.88000000000E+00 0.  1.
        -11    1    4    4    0    0 -0.36744517073E-01  0.37619366329E-01 -0.42420441692E-01  0.67565755026E-01  0.51100000000E-03 0. -1.
         11    1    4    4    0    0 -0.15022673640E-01  0.40155054208E-01 -0.40606555626E-01  0.59053048885E-01  0.51100000000E-03 0.  1.
</event>
<event>
 8    1  0.1054086E+005  0.1043930E+01  0.7957747E-01            NaN
         13   -1    0    0    0    0  0.00000000000E+00  0.00000000000E+00  0.74505805969E-08  0.10566000000E+00  0.10566000000E+00 0. -1.
     999900   -1    0    0    0    0 -0.00000000000E+00 -0.00000000000E+00 -0.74505805969E-08  0.93827000000E+00  0.93827000000E+00 0. -1.
     999902    2    1    2    0    0  0.35194140006E-03 -0.12623613832E-01  0.20463374104E-01  0.10198836038E+01  0.10196000864E+01 0.  0.
     999903    2    3    3    0    0  0.95894064373E-01  0.11558924327E-01  0.87106026770E-01  0.13187778427E+00  0.21794718899E-01 0.  0.
         14    1    1    2    0    0 -0.35194140006E-03  0.12623613832E-01 -0.20463374104E-01  0.24046396168E-01  0.00000000000E+00 0.  1.
     999901    1    3    3    0    0 -0.95542122973E-01 -0.24182538159E-01 -0.66642652666E-01  0.88800581956E+00  0.88000000000E+00 0.  1.
        -11    1    4    4    0    0  0.61335112540E-01  0.10084079083E-01  0.41942221158E-01  0.74987303711E-01  0.51100000000E-03 0. -1.
         11    1    4    4    0    0  0.34558951832E-01  0.14748452444E-02  0.45163805613E-01  0.56890480563E-01  0.51100000000E-03 0.  1.
</event>
<event>
 8    1  0.1054086E+005  0.1043930E+01  0.7957747E-01            NaN
         13   -1    0    0    0    0  0.00000000000E+00  0.00000000000E+00  0.74505805969E-08  0.10566000000E+00  0.10566000000E+00 0. -1.
     999900   -1    0    0    0    0 -0.00000000000E+00 -0.00000000000E+00 -0.74505805969E-08  0.93827000000E+00  0.93827000000E+00 0.  1.
     999902    2    1    2    0    0 -0.12529505535E-01 -0.72209185547E-02 -0.17346282507E-01  0.10213462959E+01  0.10210965833E+01 0.  0.
     999903    2    3    3    0    0  0.66014924470E-01  0.10207640154E+00 -0.44059589055E-01  0.13071240232E+00  0.19155227189E-01 0.  0.
         14    1    1    2    0    0  0.12529505535E-01  0.72209185547E-02  0.17346282507E-01  0.22583704093E-01  0.00000000000E+00 0.  1.
     999901    1    3    3    0    0 -0.78544430005E-01 -0.10929732009E+00  0.26713306548E-01  0.89063389359E+00  0.88000000000E+00 0. -1.
        -11    1    4    4    0    0  0.27958707244E-01  0.34280846598E-01 -0.24379112877E-01  0.50512058164E-01  0.51100000000E-03 0. -1.
         11    1    4    4    0    0  0.38056217226E-01  0.67795554937E-01 -0.19680476178E-01  0.80200344154E-01  0.51100000000E-03 0.  1.
</event>
<event>
 8    1  0.1054086E+005  0.1043930E+01  0.7957747E-01            NaN
         13   -1    0    0    0    0  0.00000000000E+00  0.00000000000E+00  0.74505805969E-08  0.10566000000E+00  0.10566000000E+00 0. -1.
     999900   -1    0    0    0    0 -0.00000000000E+00 -0.00000000000E+00 -0.74505805969E-08  0.93827000000E+00  0.93827000000E+00 0. -1.
     999902    2    1    2    0    0  0.19364548050E-01  0.31082276170E-02 -0.12167576060E-01  0.10208497767E+01  0.10205888349E+01 0.  0.
     999903    2    3    3    0    0 -0.41311293226E-01  0.10052936860E+00 -0.71153562014E-01  0.13143885764E+00  0.20014170255E-01 0.  0.
         14    1    1    2    0    0 -0.19364548050E-01 -0.31082276170E-02  0.12167576060E-01  0.23080223294E-01  0.00000000000E+00 0.  1.
     999901    1    3    3    0    0  0.60675841276E-01 -0.97421140978E-01  0.58985985955E-01  0.88941091907E+00  0.88000000000E+00 0.  1.
        -11    1    4    4    0    0 -0.38340278168E-02  0.33382080760E-01 -0.22406778534E-01  0.40390443553E-01  0.51100000000E-03 0. -1.
         11    1    4    4    0    0 -0.37477265409E-01  0.67147287835E-01 -0.48746783480E-01  0.91048414082E-01  0.51100000000E-03 0.  1.
</event>
<event>
 8    1  0.1054086E+005  0.1043930E+01  0.7957747E-01            NaN
         13   -1    0    0    0    0  0.00000000000E+00  0.00000000000E+00  0.74505805969E-08  0.10566000000E+00  0.10566000000E+00 0.  1.
     999900   -1    0    0    0    0 -0.00000000000E+00 -0.00000000000E+00 -0.74505805969E-08  0.93827000000E+00  0.93827000000E+00 0. -1.
     999902    2    1    2    0    0  0.18673979782E-01  0.99093356829E-02 -0.79371688884E-02  0.10213487887E+01  0.10210991318E+01 0.  0.
     999903    2    3    3    0    0 -0.31761206950E-01 -0.84277542626E-01 -0.92452494755E-01  0.13086705590E+00  0.21615829308E-01 0.  0.
         14    1    1    2    0    0 -0.18673979782E-01 -0.99093356829E-02  0.79371688884E-02  0.22581211317E-01  0.00000000000E+00 0. -1.
     999901    1    3    3    0    0  0.50435186732E-01  0.94186878309E-01  0.84515325866E-01  0.89048173278E+00  0.88000000000E+00 0.  1.
        -11    1    4    4    0    0 -0.16514602185E-01 -0.20565169533E-01 -0.34269336097E-01  0.43247043839E-01  0.51100000000E-03 0. -1.
         11    1    4    4    0    0 -0.15246604765E-01 -0.63712373093E-01 -0.58183158657E-01  0.87620012065E-01  0.51100000000E-03 0.  1.
</event>
<event>
 8    1  0.1054086E+005  0.1043930E+01  0.7957747E-01            NaN
         13   -1    0    0    0    0  0.00000000000E+00  0.00000000000E+00  0.74505805969E-08  0.10566000000E+00  0.10566000000E+00 0. -1.
     999900   -1    0    0    0    0 -0.00000000000E+00 -0.00000000000E+00 -0.74505805969E-08  0.93827000000E+00  0.93827000000E+00 0.  1.
     999902    2    1    2    0    0 -0.29671920570E-02 -0.11425786850E-01 -0.13695943220E-01  0.10258487474E+01  0.10256893881E+01 0.  0.
     999903    2    3    3    0    0  0.36218435978E-01  0.59381833515E-01  0.11188739368E+00  0.13325678743E+00  0.20015126175E-01 0.  0.
         14    1    1    2    0    0  0.29671920570E-02  0.11425786850E-01  0.13695943220E-01  0.18081252571E-01  0.00000000000E+00 0. -1.
     999901    1    3    3    0    0 -0.39185628035E-01 -0.70807620365E-01 -0.12558333690E+00  0.89259196000E+00  0.88000000000E+00 0.  1.
        -11    1    4    4    0    0  0.14234665598E-01  0.96517092267E-02  0.35993111332E-01  0.39894189803E-01  0.51100000000E-03 0.  1.
         11    1    4    4    0    0  0.21983770381E-01  0.49730124289E-01  0.75894282347E-01  0.93362597628E-01  0.51100000000E-03 0. -1.
</event>
<event>
 8    1  0.1054086E+005  0.1043930E+01  0.7957747E-01            NaN
         13   -1    0    0    0    0  0.00000000000E+00  0.00000000000E+00  0.74505805969E-08  0.10566000000E+00  0.10566000000E+00 0.  1.
     999900   -1    0    0    0    0 -0.00000000000E+00 -0.00000000000E+00 -0.74505805969E-08  0.93827000000E+00  0.93827000000E+00 0.  1.
     999902    2    1    2    0    0  0.16647449246E-01  0.10046628011E-01 -0.13553145623E-01  0.10202285220E+01  0.10199531740E+01 0.  0.
     999903    2    3    3    0    0  0.11346708338E-01 -0.10305270420E+00  0.73524357662E-01  0.12871180971E+00  0.20304954005E-01 0.  0.
         14    1    1    2    0    0 -0.16647449246E-01 -0.10046628011E-01  0.13553145623E-01  0.23701477951E-01  0.00000000000E+00 0.  1.
     999901    1    3    3    0    0  0.53007409081E-02  0.11309933221E+00 -0.87077503286E-01  0.89151671234E+00  0.88000000000E+00 0. -1.
        -11    1    4    4    0    0  0.31389368238E-02 -0.73762565044E-01  0.42177470163E-01  0.85029224603E-01  0.51100000000E-03 0.  1.
         11    1    4    4    0    0  0.82077715142E-02 -0.29290139151E-01  0.31346887500E-01  0.43682585107E-01  0.51100000000E-03 0. -1.
</event>
<event>
 8    1  0.1054086E+005  0.1043930E+01  0.7957747E-01            NaN
         13   -1    0    0    0    0  0.00000000000E+00  0.00000000000E+00  0.74505805969E-08  0.10566000000E+00  0.10566000000E+00 0.  1.
     999900   -1    0    0    0    0 -0.00000000000E+00 -0.00000000000E+00 -0.74505805969E-08  0.93827000000E+00  0.93827000000E+00 0.  1.
     999902    2    1    2    0    0  0.14259705076E-01  0.18515923965E-01 -0.32353511943E-02  0.10203366508E+01  0.10200638386E+01 0.  0.
     999903    2    3    3    0    0  0.81678297913E-01 -0.94014385946E-01 -0.32175267196E-01  0.13014237085E+00  0.19792416671E-01 0.  0.
         14    1    1    2    0    0 -0.14259705076E-01 -0.18515923965E-01  0.32353511943E-02  0.23593349200E-01  0.00000000000E+00 0. -1.
     999901    1    3    3    0    0 -0.67418592837E-01  0.11253030991E+00  0.28939916002E-01  0.89019427995E+00  0.88000000000E+00 0.  1.
        -11    1    4    4    0    0  0.24310929508E-01 -0.42014651469E-01 -0.95379055866E-02  0.49472062779E-01  0.51100000000E-03 0.  1.
         11    1    4    4    0    0  0.57367368405E-01 -0.51999734477E-01 -0.22637361609E-01  0.80670308076E-01  0.51100000000E-03 0. -1.
</event>
<event>
 8    1  0.1054086E+005  0.1043930E+01  0.7957747E-01            NaN
         13   -1    0    0    0    0  0.00000000000E+00  0.00000000000E+00  0.74505805969E-08  0.10566000000E+00  0.10566000000E+00 0.  1.
     999900   -1    0    0    0    0 -0.00000000000E+00 -0.00000000000E+00 -0.74505805969E-08  0.93827000000E+00  0.93827000000E+00 0. -1.
     999902    2    1    2    0    0 -0.20557533557E-01 -0.83124497810E-02 -0.66489548878E-02  0.10207801057E+01  0.10205175679E+01 0.  0.
     999903    2    3    3    0    0  0.54388453629E-02  0.11356559243E+00 -0.60542833145E-01  0.13036749399E+00  0.20087907347E-01 0.  0.
         14    1    1    2    0    0  0.20557533557E-01  0.83124497810E-02  0.66489548878E-02  0.23149894350E-01  0.00000000000E+00 0. -1.
     999901    1    3    3    0    0 -0.25996378920E-01 -0.12187804221E+00  0.53893878257E-01  0.89041261166E+00  0.88000000000E+00 0.  1.
        -11    1    4    4    0    0  0.67272552411E-02  0.79430116361E-01 -0.51917291420E-01  0.95131832830E-01  0.51100000000E-03 0. -1.
         11    1    4    4    0    0 -0.12884098782E-02  0.34135476067E-01 -0.86255417252E-02  0.35235661161E-01  0.51100000000E-03 0.  1.
</event>
<event>
 8    1  0.1054086E+005  0.1043930E+01  0.7957747E-01            NaN
         13   -1    0    0    0    0  0.00000000000E+00  0.00000000000E+00  0.74505805969E-08  0.10566000000E+00  0.10566000000E+00 0. -1.
     999900   -1    0    0    0    0 -0.00000000000E+00 -0.00000000000E+00 -0.74505805969E-08  0.93827000000E+00  0.93827000000E+00 0. -1.
     999902    2    1    2    0    0  0.19411494376E-01 -0.11510079581E-01 -0.76695454644E-02  0.10200949423E+01  0.10198164450E+01 0.  0.
     999903    2    3    3    0    0  0.10151199709E+00 -0.62052825197E-01  0.55027178388E-01  0.13261201808E+00  0.20067842639E-01 0.  0.
         14    1    1    2    0    0 -0.19411494376E-01  0.11510079581E-01  0.76695454644E-02  0.23835057657E-01  0.00000000000E+00 0. -1.
     999901    1    3    3    0    0 -0.82100502718E-01  0.50542745616E-01 -0.62696723852E-01  0.88748292427E+00  0.88000000000E+00 0. -1.
        -11    1    4    4    0    0  0.91188506917E-01 -0.53721118551E-01  0.41570493555E-01  0.11370870427E+00  0.51100000000E-03 0. -1.
         11    1    4    4    0    0  0.10323490178E-01 -0.83317066465E-02  0.13456684833E-01  0.18903313804E-01  0.51100000000E-03 0.  1.
</event>
<event>
 8    1  0.1054086E+005  0.1043930E+01  0.7957747E-01            NaN
         13   -1    0    0    0    0  0.00000000000E+00  0.00000000000E+00  0.74505805969E-08  0.10566000000E+00  0.10566000000E+00 0.  1.
     999900   -1    0    0    0    0 -0.00000000000E+00 -0.00000000000E+00 -0.74505805969E-08  0.93827000000E+00  0.93827000000E+00 0.  1.
     999902    2    1    2    0    0 -0.17040676066E-01  0.63242204692E-02 -0.15917742106E-01  0.10197689793E+01  0.10194827200E+01 0.  0.
     999903    2    3    3    0    0  0.12075156101E+00  0.38589696032E-01 -0.13410380244E-02  0.12834301954E+00  0.20000703856E-01 0.  0.
         14    1    1    2    0    0  0.17040676066E-01 -0.63242204692E-02  0.15917742106E-01  0.24161020655E-01  0.00000000000E+00 0. -1.
     999901    1    3    3    0    0 -0.13779223708E+00 -0.32265475563E-01 -0.14576704082E-01  0.89142595981E+00  0.88000000000E+00 0.  1.
        -11    1    4    4    0    0  0.83306035476E-01  0.18193186356E-01 -0.57955191322E-02  0.85467752630E-01  0.51100000000E-03 0. -1.
         11    1    4    4    0    0  0.37445525537E-01  0.20396509676E-01  0.44544811078E-02  0.42875266910E-01  0.51100000000E-03 0.  1.
</event>
<event>
 7    1  0.1054086E+005  0.1043930E+01  0.7957747E-01            NaN
         13   -1    0    0    0    0  0.00000000000E+00  0.00000000000E+00  0.74505805969E-08  0.10566000000E+00  0.10566000000E+00 0. -1.
     999900   -1    0    0    0    0 -0.00000000000E+00 -0.00000000000E+00 -0.74505805969E-08  0.93827000000E+00  0.93827000000E+00 0. -1.
     999903    2    1    2    0    0 -0.27676393346E-01 -0.22106690050E-01  0.26296437429E-01  0.48552822189E-01  0.20277707646E-01 0.  0.
         14    1    1    2    0    0 -0.71656466733E-01 -0.24245376190E-01 -0.75939367699E-01  0.10718803598E+00  0.00000000000E+00 0. -1.
     999901    1    1    2    0    0  0.99332860080E-01  0.46352066241E-01  0.49642930270E-01  0.88818914183E+00  0.88000000000E+00 0. -1.
        -11    1    3    3    0    0 -0.44873941982E-02  0.21719573961E-02  0.10096197575E-01  0.11271576292E-01  0.51100000000E-03 0.  1.
         11    1    3    3    0    0 -0.23188999148E-01 -0.24278647446E-01  0.16200239854E-01  0.37281245897E-01  0.51100000000E-03 0. -1.
</event>
<event>
 8    1  0.1054086E+005  0.1043930E+01  0.7957747E-01            NaN
         13   -1    0    0    0    0  0.00000000000E+00  0.00000000000E+00  0.74505805969E-08  0.10566000000E+00  0.10566000000E+00 0. -1.
     999900   -1    0    0    0    0 -0.00000000000E+00 -0.00000000000E+00 -0.74505805969E-08  0.93827000000E+00  0.93827000000E+00 0.  1.
     999902    2    1    2    0    0 -0.78049948895E-02  0.31894167011E-01  0.13943970630E-01  0.10082566184E+01  0.10076253364E+01 0.  0.
     999903    2    3    3    0    0  0.31219725040E-01  0.11643773524E+00  0.24813561548E-01  0.12327713185E+00  0.70086362138E-02 0.  0.
         14    1    1    2    0    0  0.78049948895E-02 -0.31894167011E-01 -0.13943970630E-01  0.35673381553E-01  0.00000000000E+00 0.  1.
     999901    1    3    3    0    0 -0.39024719929E-01 -0.84543568225E-01 -0.10869590918E-01  0.88497948660E+00  0.88000000000E+00 0. -1.
        -11    1    4    4    0    0  0.21745862556E-01  0.68725454009E-01  0.15968911907E-01  0.73833175711E-01  0.51100000000E-03 0.  1.
         11    1    4    4    0    0  0.94738624838E-02  0.47712281227E-01  0.88446496408E-02  0.49443956137E-01  0.51100000000E-03 0. -1.
</event>
<event>
 8    1  0.1054086E+005  0.1043930E+01  0.7957747E-01            NaN
         13   -1    0    0    0    0  0.00000000000E+00  0.00000000000E+00  0.74505805969E-08  0.10566000000E+00  0.10566000000E+00 0.  1.
     999900   -1    0    0    0    0 -0.00000000000E+00 -0.00000000000E+00 -0.74505805969E-08  0.93827000000E+00  0.93827000000E+00 0.  1.
     999902    2    1    2    0    0  0.45888152687E-02  0.24934876631E-03  0.23083756063E-01  0.10203932374E+01  0.10201217475E+01 0.  0.
     999903    2    3    3    0    0  0.87905181991E-01 -0.41130848274E-01 -0.83099477974E-01  0.12914197267E+00  0.18789842052E-01 0.  0.
         14    1    1    2    0    0 -0.45888152687E-02 -0.24934876631E-03 -0.23083756063E-01  0.23536762614E-01  0.00000000000E+00 0. -1.
     999901    1    3    3    0    0 -0.83316366723E-01  0.41380197040E-01  0.10618323404E+00  0.89125126472E+00  0.88000000000E+00 0.  1.
        -11    1    4    4    0    0  0.75271928997E-01 -0.40686258606E-01 -0.76940686164E-01  0.11507113123E+00  0.51100000000E-03 0. -1.
         11    1    4    4    0    0  0.12633252995E-01 -0.44458966794E-03 -0.61587918098E-02  0.14070841437E-01  0.51100000000E-03 0.  1.
</event>
<event>
 8    1  0.1054086E+005  0.1043930E+01  0.7957747E-01            NaN
         13   -1    0    0    0    0  0.00000000000E+00  0.00000000000E+00  0.74505805969E-08  0.10566000000E+00  0.10566000000E+00 0. -1.
     999900   -1    0    0    0    0 -0.00000000000E+00 -0.00000000000E+00 -0.74505805969E-08  0.93827000000E+00  0.93827000000E+00 0.  1.
     999902    2    1    2    0    0 -0.46576315733E-02 -0.68906999350E-02  0.23072186754E-01  0.10194044811E+01  0.10191094126E+01 0.  0.
     999903    2    3    3    0    0  0.96288880571E-01  0.81604181238E-01  0.19354997666E-01  0.12921609662E+00  0.19783649149E-01 0.  0.
         14    1    1    2    0    0  0.46576315733E-02  0.68906999350E-02 -0.23072186754E-01  0.24525518936E-01  0.00000000000E+00 0.  1.
     999901    1    3    3    0    0 -0.10094651214E+00 -0.88494881173E-01  0.37171890879E-02  0.89018838445E+00  0.88000000000E+00 0.  1.
        -11    1    4    4    0    0  0.84470287576E-01  0.66367656227E-01  0.22264884270E-01  0.10970816501E+00  0.51100000000E-03 0.  1.
         11    1    4    4    0    0  0.11818592994E-01  0.15236525011E-01 -0.29098866046E-02  0.19507931613E-01  0.51100000000E-03 0. -1.
</event>
<event>
 8    1  0.1054086E+005  0.1043930E+01  0.7957747E-01            NaN
         13   -1    0    0    0    0  0.00000000000E+00  0.00000000000E+00  0.74505805969E-08  0.10566000000E+00  0.10566000000E+00 0. -1.
     999900   -1    0    0    0    0 -0.00000000000E+00 -0.00000000000E+00 -0.74505805969E-08  0.93827000000E+00  0.93827000000E+00 0. -1.
     999902    2    1    2    0    0 -0.12857564899E-01  0.27012861453E-01  0.21478022613E-01  0.10071017892E+01  0.10064281875E+01 0.  0.
     999903    2    3    3    0    0  0.46898247940E-01  0.10682276120E+00  0.27386361547E-01  0.12145214864E+00  0.19750028856E-01 0.  0.
         14    1    1    2    0    0  0.12857564899E-01 -0.27012861453E-01 -0.21478022613E-01  0.36828210850E-01  0.00000000000E+00 0.  1.
     999901    1    3    3    0    0 -0.59755812839E-01 -0.79809899749E-01 -0.59083389339E-02  0.88564964051E+00  0.88000000000E+00 0. -1.
        -11    1    4    4    0    0  0.43681811568E-01  0.87878402605E-01  0.16986114437E-01  0.99596704318E-01  0.51100000000E-03 0.  1.
         11    1    4    4    0    0  0.32164363722E-02  0.18944358598E-01  0.10400247110E-01  0.21855444323E-01  0.51100000000E-03 0. -1.
</event>
<event>
 8    1  0.1054086E+005  0.1043930E+01  0.7957747E-01            NaN
         13   -1    0    0    0    0  0.00000000000E+00  0.00000000000E+00  0.74505805969E-08  0.10566000000E+00  0.10566000000E+00 0. -1.
     999900   -1    0    0    0    0 -0.00000000000E+00 -0.00000000000E+00 -0.74505805969E-08  0.93827000000E+00  0.93827000000E+00 0. -1.
     999902    2    1    2    0    0 -0.27611354037E-02  0.52930565223E-02  0.23346899560E-01  0.10198319081E+01  0.10195471557E+01 0.  0.
     999903    2    3    3    0    0 -0.60181165792E-01  0.88547180542E-01  0.75276413342E-01  0.13251855672E+00  0.20790708810E-01 0.  0.
         14    1    1    2    0    0  0.27611354037E-02 -0.52930565223E-02 -0.23346899560E-01  0.24098091940E-01  0.00000000000E+00 0.  1.
     999901    1    3    3    0    0  0.57420030388E-01 -0.83254124020E-01 -0.51929513781E-01  0.88731335134E+00  0.88000000000E+00 0. -1.
        -11    1    4    4    0    0 -0.14206014772E-01  0.19572967886E-01  0.28334008251E-01  0.37255725360E-01  0.51100000000E-03 0.  1.
         11    1    4    4    0    0 -0.45975151020E-01  0.68974212657E-01  0.46942405090E-01  0.95262831365E-01  0.51100000000E-03 0. -1.
</event>
<event>
 8    1  0.1054086E+005  0.1043930E+01  0.7957747E-01            NaN
         13   -1    0    0    0    0  0.00000000000E+00  0.00000000000E+00  0.74505805969E-08  0.10566000000E+00  0.10566000000E+00 0. -1.
     999900   -1    0    0    0    0 -0.00000000000E+00 -0.00000000000E+00 -0.74505805969E-08  0.93827000000E+00  0.93827000000E+00 0.  1.
     999902    2    1    2    0    0 -0.10882370228E-01  0.13537669870E-01 -0.15967923923E-01  0.10203361643E+01  0.10200633408E+01 0.  0.
     999903    2    3    3    0    0 -0.41393894097E-01  0.14098272339E-01  0.12009350153E+00  0.12935693962E+00  0.19963791392E-01 0.  0.
         14    1    1    2    0    0  0.10882370228E-01 -0.13537669870E-01  0.15967923923E-01  0.23593835671E-01  0.00000000000E+00 0. -1.
     999901    1    3    3    0    0  0.30511523869E-01 -0.56060246895E-03 -0.13606142545E+00  0.89097922471E+00  0.88000000000E+00 0.  1.
        -11    1    4    4    0    0 -0.91516479275E-02 -0.50530276070E-02  0.29779074876E-01  0.31564856554E-01  0.51100000000E-03 0.  1.
         11    1    4    4    0    0 -0.32242246169E-01  0.19151299946E-01  0.90314426655E-01  0.97792083067E-01  0.51100000000E-03 0. -1.
</event>
<event>
 8    1  0.1054086E+005  0.1043930E+01  0.7957747E-01            NaN
         13   -1    0    0    0    0  0.00000000000E+00  0.00000000000E+00  0.74505805969E-08  0.10566000000E+00  0.10566000000E+00 0. -1.
     999900   -1    0    0    0    0 -0.00000000000E+00 -0.00000000000E+00 -0.74505805969E-08  0.93827000000E+00  0.93827000000E+00 0.  1.
     999902    2    1    2    0    0  0.13747541023E-01 -0.83183390600E-02 -0.18093085742E-01  0.10197318720E+01  0.10194447220E+01 0.  0.
     999903    2    3    3    0    0  0.69023178929E-02  0.40216243727E-01 -0.12389718161E+00  0.13203993806E+00  0.20470597955E-01 0.  0.
         14    1    1    2    0    0 -0.13747541023E-01  0.83183390600E-02  0.18093085742E-01  0.24198128038E-01  0.00000000000E+00 0. -1.
     999901    1    3    3    0    0  0.68452231304E-02 -0.48534582787E-01  0.10580409587E+00  0.88769193390E+00  0.88000000000E+00 0. -1.
        -11    1    4    4    0    0  0.39074955760E-02  0.88807312778E-02 -0.60291599797E-01  0.61069419817E-01  0.51100000000E-03 0. -1.
         11    1    4    4    0    0  0.29948223169E-02  0.31335512449E-01 -0.63605581814E-01  0.70970518246E-01  0.51100000000E-03 0.  1.
</event>
<event>
 8    1  0.1054086E+005  0.1043930E+01  0.7957747E-01            NaN
         13   -1    0    0    0    0  0.00000000000E+00  0.00000000000E+00  0.74505805969E-08  0.10566000000E+00  0.10566000000E+00 0.  1.
     999900   -1    0    0    0    0 -0.00000000000E+00 -0.00000000000E+00 -0.74505805969E-08  0.93827000000E+00  0.93827000000E+00 0. -1.
     999902    2    1    2    0    0  0.18620222101E-01  0.17350271674E-01 -0.10205264816E-01  0.10165093503E+01  0.10161394428E+01 0.  0.
     999903    2    3    3    0    0 -0.13676916288E-01  0.29652629083E-01 -0.12281172221E+00  0.12866101453E+00  0.20114698496E-01 0.  0.
         14    1    1    2    0    0 -0.18620222101E-01 -0.17350271674E-01  0.10205264816E-01  0.27420649668E-01  0.00000000000E+00 0.  1.
     999901    1    3    3    0    0  0.32297138389E-01 -0.12302357409E-01  0.11260645740E+00  0.88784833581E+00  0.88000000000E+00 0.  1.
        -11    1    4    4    0    0 -0.14289311817E-01  0.99984193251E-02 -0.74127428343E-01  0.76153066747E-01  0.51100000000E-03 0. -1.
         11    1    4    4    0    0  0.61239552908E-03  0.19654209758E-01 -0.48684293868E-01  0.52507947779E-01  0.51100000000E-03 0.  1.
</event>
<event>
 8    1  0.1054086E+005  0.1043930E+01  0.7957747E-01            NaN
         13   -1    0    0    0    0  0.00000000000E+00  0.00000000000E+00  0.74505805969E-08  0.10566000000E+00  0.10566000000E+00 0. -1.
     999900   -1    0    0    0    0 -0.00000000000E+00 -0.00000000000E+00 -0.74505805969E-08  0.93827000000E+00  0.93827000000E+00 0.  1.
     999902    2    1    2    0    0  0.21811373016E-01  0.42872770142E-02 -0.73197677887E-02  0.10205270998E+01  0.10202587249E+01 0.  0.
     999903    2    3    3    0    0  0.23992491999E-02 -0.48223670845E-01  0.11869226299E+00  0.12978961766E+00  0.20644920276E-01 0.  0.
         14    1    1    2    0    0 -0.21811373016E-01 -0.42872770142E-02  0.73197677887E-02  0.23402900195E-01  0.00000000000E+00 0. -1.
     999901    1    3    3    0    0  0.19412123816E-01  0.52510947859E-01 -0.12601203078E+00  0.89073748214E+00  0.88000000000E+00 0.  1.
        -11    1    4    4    0    0  0.66858296527E-02 -0.24712792077E-01  0.39545531653E-01  0.47111915744E-01  0.51100000000E-03 0. -1.
         11    1    4    4    0    0 -0.42865804529E-02 -0.23510878768E-01  0.79146731334E-01  0.82677701917E-01  0.51100000000E-03 0.  1.
</event>
<event>
 8    1  0.1054086E+005  0.1043930E+01  0.7957747E-01            NaN
         13   -1    0    0    0    0  0.00000000000E+00  0.00000000000E+00  0.74505805969E-08  0.10566000000E+00  0.10566000000E+00 0.  1.
     999900   -1    0    0    0    0 -0.00000000000E+00 -0.00000000000E+00 -0.74505805969E-08  0.93827000000E+00  0.93827000000E+00 0.  1.
     999902    2    1    2    0    0 -0.44085792654E-02  0.15746664773E-01  0.17055320477E-01  0.10203021144E+01  0.10200284935E+01 0.  0.
     999903    2    3    3    0    0  0.68527440634E-01 -0.10652253834E+00  0.41203905345E-02  0.12876594941E+00  0.22817335840E-01 0.  0.
         14    1    1    2    0    0  0.44085792654E-02 -0.15746664773E-01 -0.17055320477E-01  0.23627885627E-01  0.00000000000E+00 0. -1.
     999901    1    3    3    0    0 -0.72936019899E-01  0.12226920311E+00  0.12934929943E-01  0.89153616497E+00  0.88000000000E+00 0. -1.
        -11    1    4    4    0    0  0.34417360743E-01 -0.33576807172E-01  0.38183262738E-02  0.48236888756E-01  0.51100000000E-03 0.  1.
         11    1    4    4    0    0  0.34110079891E-01 -0.72945731166E-01  0.30206426064E-03  0.80529060651E-01  0.51100000000E-03 0. -1.
</event>
<event>
 8    1  0.1054086E+005  0.1043930E+01  0.7957747E-01            NaN
         13   -1    0    0    0    0  0.00000000000E+00  0.00000000000E+00  0.74505805969E-08  0.10566000000E+00  0.10566000000E+00 0.  1.
     999900   -1    0    0    0    0 -0.00000000000E+00 -0.00000000000E+00 -0.74505805969E-08  0.93827000000E+00  0.93827000000E+00 0.  1.
     999902    2    1    2    0    0 -0.12472009856E-01 -0.26803308607E-02  0.20021501346E-01  0.10201898290E+01  0.10199135706E+01 0.  0.
     999903    2    3    3    0    0  0.78646110343E-01 -0.88321696299E-01 -0.46910926310E-01  0.12883305128E+00  0.20282686834E-01 0.  0.
         14    1    1    2    0    0  0.12472009856E-01  0.26803308607E-02 -0.20021501346E-01  0.23740171009E-01  0.00000000000E+00 0. -1.
     999901    1    3    3    0    0 -0.91118120199E-01  0.85641365438E-01  0.66932427656E-01  0.89135677771E+00  0.88000000000E+00 0. -1.
        -11    1    4    4    0    0  0.44605984342E-01 -0.39239683685E-01 -0.31021949125E-01  0.67022899544E-01  0.51100000000E-03 0.  1.
         11    1    4    4    0    0  0.34040126001E-01 -0.49082012613E-01 -0.15888977185E-01  0.61810151734E-01  0.51100000000E-03 0. -1.
</event>
<event>
 8    1  0.1054086E+005  0.1043930E+01  0.7957747E-01            NaN
         13   -1    0    0    0    0  0.00000000000E+00  0.00000000000E+00  0.74505805969E-08  0.10566000000E+00  0.10566000000E+00 0. -1.
     999900   -1    0    0    0    0 -0.00000000000E+00 -0.00000000000E+00 -0.74505805969E-08  0.93827000000E+00  0.93827000000E+00 0.  1.
     999902    2    1    2    0    0  0.16193337440E-01 -0.16128011085E-01  0.71801251487E-02  0.10199739754E+01  0.10196926102E+01 0.  0.
     999903    2    3    3    0    0  0.68352578916E-01 -0.95728056497E-01  0.59276417160E-01  0.13331125632E+00  0.20549004506E-01 0.  0.
         14    1    1    2    0    0 -0.16193337440E-01  0.16128011085E-01 -0.71801251487E-02  0.23956024632E-01  0.00000000000E+00 0.  1.
     999901    1    3    3    0    0 -0.52159241476E-01  0.79600045412E-01 -0.52096292012E-01  0.88666271904E+00  0.88000000000E+00 0.  1.
        -11    1    4    4    0    0  0.17836250382E-01 -0.11619399459E-01  0.10516138216E-01  0.23748527438E-01  0.51100000000E-03 0. -1.
         11    1    4    4    0    0  0.50516328534E-01 -0.84108657038E-01  0.48760278944E-01  0.10956272889E+00  0.51100000000E-03 0.  1.
</event>
<event>
 8    1  0.1054086E+005  0.1043930E+01  0.7957747E-01            NaN
         13   -1    0    0    0    0  0.00000000000E+00  0.00000000000E+00  0.74505805969E-08  0.10566000000E+00  0.10566000000E+00 0.  1.
     999900   -1    0    0    0    0 -0.00000000000E+00 -0.00000000000E+00 -0.74505805969E-08  0.93827000000E+00  0.93827000000E+00 0.  1.
     999902    2    1    2    0    0 -0.18343073656E-01  0.15463408522E-01  0.27326392705E-02  0.10197835164E+01  0.10194976055E+01 0.  0.
     999903    2    3    3    0    0  0.50884520249E-01  0.73349727952E-01  0.93221861323E-01  0.13055262113E+00  0.19602409675E-01 0.  0.
         14    1    1    2    0    0  0.18343073656E-01 -0.15463408522E-01 -0.27326392705E-02  0.24146483629E-01  0.00000000000E+00 0. -1.
     999901    1    3    3    0    0 -0.69227593905E-01 -0.57886319430E-01 -0.90489222053E-01  0.88923089524E+00  0.88000000000E+00 0.  1.
        -11    1    4    4    0    0  0.16082221950E-01  0.25482347812E-01  0.19014154481E-01  0.35634072241E-01  0.51100000000E-03 0. -1.
         11    1    4    4    0    0  0.34802298299E-01  0.47867380140E-01  0.74207706842E-01  0.94918548894E-01  0.51100000000E-03 0.  1.
</event>
<event>
 8    1  0.1054086E+005  0.1043930E+01  0.7957747E-01            NaN
         13   -1    0    0    0    0  0.00000000000E+00  0.00000000000E+00  0.74505805969E-08  0.10566000000E+00  0.10566000000E+00 0. -1.
     999900   -1    0    0    0    0 -0.00000000000E+00 -0.00000000000E+00 -0.74505805969E-08  0.93827000000E+00  0.93827000000E+00 0. -1.
     999902    2    1    2    0    0 -0.17331495640E-01 -0.29914443426E-03  0.14256346788E-01  0.10214864341E+01  0.10212398451E+01 0.  0.
     999903    2    3    3    0    0  0.68996330725E-01 -0.63991279296E-01 -0.85312530271E-01  0.12939723284E+00  0.24698958802E-01 0.  0.
         14    1    1    2    0    0  0.17331495640E-01  0.29914443426E-03 -0.14256346788E-01  0.22443565944E-01  0.00000000000E+00 0.  1.
     999901    1    3    3    0    0 -0.86327826365E-01  0.63692134862E-01  0.99568877059E-01  0.89208920122E+00  0.88000000000E+00 0.  1.
        -11    1    4    4    0    0  0.24486954062E-01 -0.37257511525E-01 -0.47618507699E-01  0.65234319808E-01  0.51100000000E-03 0.  1.
         11    1    4    4    0    0  0.44509376662E-01 -0.26733767771E-01 -0.37694022572E-01  0.64162913032E-01  0.51100000000E-03 0. -1.
</event>
<event>
 8    1  0.1054086E+005  0.1043930E+01  0.7957747E-01            NaN
         13   -1    0    0    0    0  0.00000000000E+00  0.00000000000E+00  0.74505805969E-08  0.10566000000E+00  0.10566000000E+00 0. -1.
     999900   -1    0    0    0    0 -0.00000000000E+00 -0.00000000000E+00 -0.74505805969E-08  0.93827000000E+00  0.93827000000E+00 0. -1.
     999902    2    1    2    0    0  0.54302829261E-02  0.10772899997E-01 -0.18216544320E-01  0.10220808391E+01  0.10218472761E+01 0.  0.
     999903    2    3    3    0    0 -0.79862887847E-01 -0.61055819832E-01 -0.84190397338E-01  0.13259399865E+00  0.19678706342E-01 0.  0.
         14    1    1    2    0    0 -0.54302829261E-02 -0.10772899997E-01  0.18216544320E-01  0.21849160944E-01  0.00000000000E+00 0. -1.
     999901    1    3    3    0    0  0.85293170774E-01  0.71828719829E-01  0.65973853019E-01  0.88948684041E+00  0.88000000000E+00 0.  1.
        -11    1    4    4    0    0 -0.39172878567E-01 -0.32476803603E-01 -0.30114410891E-01  0.59130331065E-01  0.51100000000E-03 0.  1.
         11    1    4    4    0    0 -0.40690009280E-01 -0.28579016229E-01 -0.54075986447E-01  0.73463667585E-01  0.51100000000E-03 0. -1.
</event>
<event>
 8    1  0.1054086E+005  0.1043930E+01  0.7957747E-01            NaN
         13   -1    0    0    0    0  0.00000000000E+00  0.00000000000E+00  0.74505805969E-08  0.10566000000E+00  0.10566000000E+00 0. -1.
     999900   -1    0    0    0    0 -0.00000000000E+00 -0.00000000000E+00 -0.74505805969E-08  0.93827000000E+00  0.93827000000E+00 0. -1.
     999902    2    1    2    0    0 -0.17359499918E-01  0.13840773924E-01 -0.10601053412E-01  0.10193271222E+01  0.10190301667E+01 0.  0.
     999903    2    3    3    0    0  0.59045159566E-01  0.29420687706E-01 -0.11038524486E+00  0.13026171939E+00  0.20767896434E-01 0.  0.
         14    1    1    2    0    0  0.17359499918E-01 -0.13840773924E-01  0.10601053412E-01  0.24602877752E-01  0.00000000000E+00 0. -1.
     999901    1    3    3    0    0 -0.76404659483E-01 -0.15579913782E-01  0.99784191444E-01  0.88906540286E+00  0.88000000000E+00 0.  1.
        -11    1    4    4    0    0  0.35080351359E-01  0.14584683809E-01 -0.43971486326E-01  0.58112793635E-01  0.51100000000E-03 0.  1.
         11    1    4    4    0    0  0.23964808206E-01  0.14836003896E-01 -0.66413758531E-01  0.72148925752E-01  0.51100000000E-03 0. -1.
</event>
<event>
 8    1  0.1054086E+005  0.1043930E+01  0.7957747E-01            NaN
         13   -1    0    0    0    0  0.00000000000E+00  0.00000000000E+00  0.74505805969E-08  0.10566000000E+00  0.10566000000E+00 0.  1.
     999900   -1    0    0    0    0 -0.00000000000E+00 -0.00000000000E+00 -0.74505805969E-08  0.93827000000E+00  0.93827000000E+00 0. -1.
     999902    2    1    2    0    0 -0.10366366646E-01 -0.21663415258E-01  0.30442336107E-02  0.10197218923E+01  0.10194345027E+01 0.  0.
     999903    2    3    3    0    0  0.76491556058E-01 -0.71677904986E-02  0.10262428411E+00  0.12973840467E+00  0.19949300438E-01 0.  0.
         14    1    1    2    0    0  0.10366366646E-01  0.21663415258E-01 -0.30442336107E-02  0.24208107657E-01  0.00000000000E+00 0. -1.
     999901    1    3    3    0    0 -0.86857922704E-01 -0.14495624759E-01 -0.99580050501E-01  0.88998348767E+00  0.88000000000E+00 0. -1.
        -11    1    4    4    0    0  0.31036997133E-01 -0.84100527025E-02  0.29577915135E-01  0.43693687899E-01  0.51100000000E-03 0. -1.
         11    1    4    4    0    0  0.45454558925E-01  0.12422622039E-02  0.73046368976E-01  0.86044716770E-01  0.51100000000E-03 0.  1.
</event>
<event>
 8    1  0.1054086E+005  0.1043930E+01  0.7957747E-01            NaN
         13   -1    0    0    0    0  0.00000000000E+00  0.00000000000E+00  0.74505805969E-08  0.10566000000E+00  0.10566000000E+00 0. -1.
     999900   -1    0    0    0    0 -0.00000000000E+00 -0.00000000000E+00 -0.74505805969E-08  0.93827000000E+00  0.93827000000E+00 0.  1.
     999902    2    1    2    0    0 -0.23137806287E-01  0.26011819933E-01 -0.55128757398E-02  0.10086828064E+01  0.10080667832E+01 0.  0.
     999903    2    3    3    0    0  0.30788521000E-01  0.82497352416E-01 -0.81833226863E-01  0.12193399185E+00  0.20432209094E-01 0.  0.
         14    1    1    2    0    0  0.23137806287E-01 -0.26011819933E-01  0.55128757398E-02  0.35247193576E-01  0.00000000000E+00 0.  1.
     999901    1    3    3    0    0 -0.53926327287E-01 -0.56485532483E-01  0.76320351123E-01  0.88674881458E+00  0.88000000000E+00 0. -1.
        -11    1    4    4    0    0  0.11464323544E-01  0.22473717251E-01 -0.12323987608E-01  0.28082743330E-01  0.51100000000E-03 0.  1.
         11    1    4    4    0    0  0.19324197456E-01  0.60023635165E-01 -0.69509239255E-01  0.93851248519E-01  0.51100000000E-03 0. -1.
</event>
<event>
 8    1  0.1054086E+005  0.1043930E+01  0.7957747E-01            NaN
         13   -1    0    0    0    0  0.00000000000E+00  0.00000000000E+00  0.74505805969E-08  0.10566000000E+00  0.10566000000E+00 0.  1.
     999900   -1    0    0    0    0 -0.00000000000E+00 -0.00000000000E+00 -0.74505805969E-08  0.93827000000E+00  0.93827000000E+00 0. -1.
     999902    2    1    2    0    0  0.87288692058E-02  0.12080387218E-01  0.17235969513E-01  0.10211438736E+01  0.10208896135E+01 0.  0.
     999903    2    3    3    0    0 -0.12821286677E+00 -0.31107223249E-02 -0.84874531461E-02  0.13005156446E+00  0.19828180974E-01 0.  0.
         14    1    1    2    0    0 -0.87288692058E-02 -0.12080387218E-01 -0.17235969513E-01  0.22786126437E-01  0.00000000000E+00 0. -1.
     999901    1    3    3    0    0  0.13694173597E+00  0.15191109543E-01  0.25723422660E-01  0.89109230910E+00  0.88000000000E+00 0. -1.
        -11    1    4    4    0    0 -0.25095636507E-01 -0.83242521201E-02 -0.35619290741E-02  0.26683939079E-01  0.51100000000E-03 0.  1.
         11    1    4    4    0    0 -0.10311723026E+00  0.52135297952E-02 -0.49255240720E-02  0.10336762539E+00  0.51100000000E-03 0. -1.
</event>
<event>
 8    1  0.1054086E+005  0.1043930E+01  0.7957747E-01            NaN
         13   -1    0    0    0    0  0.00000000000E+00  0.00000000000E+00  0.74505805969E-08  0.10566000000E+00  0.10566000000E+00 0. -1.
     999900   -1    0    0    0    0 -0.00000000000E+00 -0.00000000000E+00 -0.74505805969E-08  0.93827000000E+00  0.93827000000E+00 0.  1.
     999902    2    1    2    0    0 -0.22169255267E-01 -0.72977420515E-03 -0.47686512445E-02  0.10212419308E+01  0.10209898789E+01 0.  0.
     999903    2    3    3    0    0  0.23126289969E-01 -0.10511647231E+00 -0.72422474794E-01  0.13134007722E+00  0.20515920400E-01 0.  0.
         14    1    1    2    0    0  0.22169255267E-01  0.72977420515E-03  0.47686512445E-02  0.22688069204E-01  0.00000000000E+00 0. -1.
     999901    1    3    3    0    0 -0.45295545236E-01  0.10438669811E+00  0.67653823550E-01  0.88990185358E+00  0.88000000000E+00 0. -1.
        -11    1    4    4    0    0 -0.65183643116E-03 -0.18802815015E-01 -0.20557106362E-01  0.27871607170E-01  0.51100000000E-03 0. -1.
         11    1    4    4    0    0  0.23778126400E-01 -0.86313657295E-01 -0.51865368432E-01  0.10346847005E+00  0.51100000000E-03 0.  1.
</event>
<event>
 8    1  0.1054086E+005  0.1043930E+01  0.7957747E-01            NaN
         13   -1    0    0    0    0  0.00000000000E+00  0.00000000000E+00  0.74505805969E-08  0.10566000000E+00  0.10566000000E+00 0. -1.
     999900   -1    0    0    0    0 -0.00000000000E+00 -0.00000000000E+00 -0.74505805969E-08  0.93827000000E+00  0.93827000000E+00 0. -1.
     999902    2    1    2    0    0  0.53825182338E-02  0.13770985224E-01  0.17503210322E-01  0.10210176909E+01  0.10207605749E+01 0.  0.
     999903    2    3    3    0    0 -0.54333935634E-01 -0.30045356241E-01 -0.11088820041E+00  0.12862188130E+00  0.19811495817E-01 0.  0.
         14    1    1    2    0    0 -0.53825182338E-02 -0.13770985224E-01 -0.17503210322E-01  0.22912309097E-01  0.00000000000E+00 0.  1.
     999901    1    3    3    0    0  0.59716453868E-01  0.43816341465E-01  0.12839141073E+00  0.89239580960E+00  0.88000000000E+00 0.  1.
        -11    1    4    4    0    0 -0.44455379718E-01 -0.17488515672E-01 -0.93527862431E-01  0.10502309812E+00  0.51100000000E-03 0. -1.
         11    1    4    4    0    0 -0.98785559164E-02 -0.12556840569E-01 -0.17360337979E-01  0.23598783185E-01  0.51100000000E-03 0.  1.
</event>
<event>
 8    1  0.1054086E+005  0.1043930E+01  0.7957747E-01            NaN
         13   -1    0    0    0    0  0.00000000000E+00  0.00000000000E+00  0.74505805969E-08  0.10566000000E+00  0.10566000000E+00 0. -1.
     999900   -1    0    0    0    0 -0.00000000000E+00 -0.00000000000E+00 -0.74505805969E-08  0.93827000000E+00  0.93827000000E+00 0. -1.
     999902    2    1    2    0    0  0.13219333913E-01  0.17754876120E-01  0.76114855316E-02  0.10205222849E+01  0.10202537982E+01 0.  0.
     999903    2    3    3    0    0 -0.78777529133E-01 -0.98999466500E-01  0.29048301915E-02  0.12804418883E+00  0.19495712094E-01 0.  0.
         14    1    1    2    0    0 -0.13219333913E-01 -0.17754876120E-01 -0.76114855316E-02  0.23407715120E-01  0.00000000000E+00 0.  1.
     999901    1    3    3    0    0  0.91996863047E-01  0.11675434262E+00  0.47066553401E-02  0.89247809605E+00  0.88000000000E+00 0. -1.
        -11    1    4    4    0    0 -0.60636955246E-01 -0.67683959409E-01  0.90799234919E-02  0.91327240374E-01  0.51100000000E-03 0. -1.
         11    1    4    4    0    0 -0.18140573887E-01 -0.31315507091E-01 -0.61750933003E-02  0.36716948452E-01  0.51100000000E-03 0.  1.
</event>
<event>
 8    1  0.1054086E+005  0.1043930E+01  0.7957747E-01            NaN
         13   -1    0    0    0    0  0.00000000000E+00  0.00000000000E+00  0.74505805969E-08  0.10566000000E+00  0.10566000000E+00 0. -1.
     999900   -1    0    0    0    0 -0.00000000000E+00 -0.00000000000E+00 -0.74505805969E-08  0.93827000000E+00  0.93827000000E+00 0.  1.
     999902    2    1    2    0    0  0.20476372956E-01  0.16072464170E-01 -0.27347253899E-02  0.10177558777E+01  0.10174192557E+01 0.  0.
     999903    2    3    3    0    0 -0.72778416355E-01 -0.47664550538E-01 -0.88675674983E-01  0.12638350347E+00  0.23255264984E-01 0.  0.
         14    1    1    2    0    0 -0.20476372956E-01 -0.16072464170E-01  0.27347253899E-02  0.26174122275E-01  0.00000000000E+00 0. -1.
     999901    1    3    3    0    0  0.93254789311E-01  0.63737014708E-01  0.85940949593E-01  0.89137237426E+00  0.88000000000E+00 0. -1.
        -11    1    4    4    0    0 -0.12924052909E-01 -0.19515570561E-01 -0.29235686148E-01  0.37454974349E-01  0.51100000000E-03 0.  1.
         11    1    4    4    0    0 -0.59854363446E-01 -0.28148979977E-01 -0.59439988835E-01  0.88928529117E-01  0.51100000000E-03 0. -1.
</event>
<event>
 8    1  0.1054086E+005  0.1043930E+01  0.7957747E-01            NaN
         13   -1    0    0    0    0  0.00000000000E+00  0.00000000000E+00  0.74505805969E-08  0.10566000000E+00  0.10566000000E+00 0.  1.
     999900   -1    0    0    0    0 -0.00000000000E+00 -0.00000000000E+00 -0.74505805969E-08  0.93827000000E+00  0.93827000000E+00 0. -1.
     999902    2    1    2    0    0 -0.69448998888E-02 -0.22695728910E-01 -0.58161559227E-02  0.10194932364E+01  0.10192003256E+01 0.  0.
     999903    2    3    3    0    0  0.67817855556E-01  0.72188921646E-01  0.77423071991E-01  0.12734900167E+00  0.20320782681E-01 0.  0.
         14    1    1    2    0    0  0.69448998888E-02  0.22695728910E-01  0.58161559227E-02  0.24436763594E-01  0.00000000000E+00 0.  1.
     999901    1    3    3    0    0 -0.74762755444E-01 -0.94884650556E-01 -0.83239227913E-01  0.89214423474E+00  0.88000000000E+00 0.  1.
        -11    1    4    4    0    0  0.48993326501E-01  0.42635581083E-01  0.59057508736E-01  0.87784903457E-01  0.51100000000E-03 0.  1.
         11    1    4    4    0    0  0.18824529055E-01  0.29553340563E-01  0.18365563255E-01  0.39564098211E-01  0.51100000000E-03 0. -1.
</event>
<event>
 8    1  0.1054086E+005  0.1043930E+01  0.7957747E-01            NaN
         13   -1    0    0    0    0  0.00000000000E+00  0.00000000000E+00  0.74505805969E-08  0.10566000000E+00  0.10566000000E+00 0.  1.
     999900   -1    0    0    0    0 -0.00000000000E+00 -0.00000000000E+00 -0.74505805969E-08  0.93827000000E+00  0.93827000000E+00 0. -1.
     999902    2    1    2    0    0  0.22811197171E-01  0.90225672701E-02 -0.35262545155E-02  0.10191471045E+01  0.10188457336E+01 0.  0.
     999903    2    3    3    0    0  0.25985115425E-01  0.74863138496E-01  0.10167284520E+00  0.13043348072E+00  0.19894967009E-01 0.  0.
         14    1    1    2    0    0 -0.22811197171E-01 -0.90225672701E-02  0.35262545155E-02  0.24782895461E-01  0.00000000000E+00 0. -1.
     999901    1    3    3    0    0 -0.31739182540E-02 -0.65840571226E-01 -0.10519909972E+00  0.88871362382E+00  0.88000000000E+00 0. -1.
        -11    1    4    4    0    0  0.17696464586E-01  0.69723439334E-01  0.89789333207E-01  0.11505176370E+00  0.51100000000E-03 0. -1.
         11    1    4    4    0    0  0.82886508398E-02  0.51396991626E-02  0.11883511996E-01  0.15381717023E-01  0.51100000000E-03 0.  1.
</event>
<event>
 8    1  0.1054086E+005  0.1043930E+01  0.7957747E-01            NaN
         13   -1    0    0    0    0  0.00000000000E+00  0.00000000000E+00  0.74505805969E-08  0.10566000000E+00  0.10566000000E+00 0. -1.
     999900   -1    0    0    0    0 -0.00000000000E+00 -0.00000000000E+00 -0.74505805969E-08  0.93827000000E+00  0.93827000000E+00 0.  1.
     999902    2    1    2    0    0  0.55391434040E-02 -0.23234525329E-01 -0.15605817810E-02  0.10199934027E+01  0.10197124991E+01 0.  0.
     999903    2    3    3    0    0 -0.10032037498E+00 -0.70624755487E-01 -0.42586225407E-01  0.13143548390E+00  0.20240210212E-01 0.  0.
         14    1    1    2    0    0 -0.55391434040E-02  0.23234525329E-01  0.15605817810E-02  0.23936597344E-01  0.00000000000E+00 0.  1.
     999901    1    3    3    0    0  0.10585951839E+00  0.47390230158E-01  0.41025643626E-01  0.88855791876E+00  0.88000000000E+00 0.  1.
        -11    1    4    4    0    0 -0.49509694262E-01 -0.23381562749E-01 -0.15026322155E-01  0.56779915296E-01  0.51100000000E-03 0.  1.
         11    1    4    4    0    0 -0.50810680721E-01 -0.47243192738E-01 -0.27559903253E-01  0.74655568605E-01  0.51100000000E-03 0. -1.
</event>
<event>
 8    1  0.1054086E+005  0.1043930E+01  0.7957747E-01            NaN
         13   -1    0    0    0    0  0.00000000000E+00  0.00000000000E+00  0.74505805969E-08  0.10566000000E+00  0.10566000000E+00 0. -1.
     999900   -1    0    0    0    0 -0.00000000000E+00 -0.00000000000E+00 -0.74505805969E-08  0.93827000000E+00  0.93827000000E+00 0. -1.
     999902    2    1    2    0    0  0.22287338513E-01  0.31497430600E-02  0.11646779836E-01  0.10185864837E+01  0.10182711480E+01 0.  0.
     999903    2    3    3    0    0 -0.10154999700E+00  0.32674369715E-01 -0.64309211588E-01  0.12618707652E+00  0.20186313694E-01 0.  0.
         14    1    1    2    0    0 -0.22287338513E-01 -0.31497430600E-02 -0.11646779836E-01  0.25343516328E-01  0.00000000000E+00 0.  1.
     999901    1    3    3    0    0  0.12383733551E+00 -0.29524626655E-01  0.75955991424E-01  0.89239940715E+00  0.88000000000E+00 0.  1.
        -11    1    4    4    0    0 -0.23850719009E-01  0.16019686850E-01 -0.21773948035E-01  0.36053475534E-01  0.51100000000E-03 0. -1.
         11    1    4    4    0    0 -0.77699277987E-01  0.16654682865E-01 -0.42535263553E-01  0.90133600990E-01  0.51100000000E-03 0.  1.
</event>
<event>
 8    1  0.1054086E+005  0.1043930E+01  0.7957747E-01            NaN
         13   -1    0    0    0    0  0.00000000000E+00  0.00000000000E+00  0.74505805969E-08  0.10566000000E+00  0.10566000000E+00 0.  1.
     999900   -1    0    0    0    0 -0.00000000000E+00 -0.00000000000E+00 -0.74505805969E-08  0.93827000000E+00  0.93827000000E+00 0. -1.
     999902    2    1    2    0    0 -0.13036610752E-01 -0.11487335832E-01  0.17724725053E-01  0.10191090818E+01  0.10188067739E+01 0.  0.
     999903    2    3    3    0    0 -0.98601316412E-01 -0.56183388035E-01 -0.60980841170E-01  0.13033823272E+00  0.19763583414E-01 0.  0.
         14    1    1    2    0    0  0.13036610752E-01  0.11487335832E-01 -0.17724725053E-01  0.24820918247E-01  0.00000000000E+00 0. -1.
     999901    1    3    3    0    0  0.85564705660E-01  0.44696052203E-01  0.78705566223E-01  0.88877084903E+00  0.88000000000E+00 0.  1.
        -11    1    4    4    0    0 -0.32612490811E-01 -0.10557114416E-01 -0.24895858884E-01  0.42368527615E-01  0.51100000000E-03 0. -1.
         11    1    4    4    0    0 -0.65988825601E-01 -0.45626273619E-01 -0.36084982286E-01  0.87969705104E-01  0.51100000000E-03 0.  1.
</event>
<event>
 8    1  0.1054086E+005  0.1043930E+01  0.7957747E-01            NaN
         13   -1    0    0    0    0  0.00000000000E+00  0.00000000000E+00  0.74505805969E-08  0.10566000000E+00  0.10566000000E+00 0. -1.
     999900   -1    0    0    0    0 -0.00000000000E+00 -0.00000000000E+00 -0.74505805969E-08  0.93827000000E+00  0.93827000000E+00 0.  1.
     999902    2    1    2    0    0 -0.12900348535E-01 -0.19420693966E-01 -0.71321472148E-02  0.10195486573E+01  0.10192570896E+01 0.  0.
     999903    2    3    3    0    0  0.19856771321E-01 -0.92423279972E-01 -0.90898488346E-01  0.13195685567E+00  0.14619251937E-01 0.  0.
         14    1    1    2    0    0  0.12900348535E-01  0.19420693966E-01  0.71321472148E-02  0.24381342669E-01  0.00000000000E+00 0.  1.
     999901    1    3    3    0    0 -0.32757119856E-01  0.73002586006E-01  0.83766341131E-01  0.88759180166E+00  0.88000000000E+00 0. -1.
        -11    1    4    4    0    0  0.14719805508E-01 -0.61379202303E-01 -0.69581259947E-01  0.93946218692E-01  0.51100000000E-03 0. -1.
         11    1    4    4    0    0  0.51369658134E-02 -0.31044077669E-01 -0.21317228399E-01  0.38010636981E-01  0.51100000000E-03 0.  1.
</event>
<event>
 8    1  0.1054086E+005  0.1043930E+01  0.7957747E-01            NaN
         13   -1    0    0    0    0  0.00000000000E+00  0.00000000000E+00  0.74505805969E-08  0.10566000000E+00  0.10566000000E+00 0. -1.
     999900   -1    0    0    0    0 -0.00000000000E+00 -0.00000000000E+00 -0.74505805969E-08  0.93827000000E+00  0.93827000000E+00 0.  1.
     999902    2    1    2    0    0  0.24771217320E-02  0.17230545072E-01  0.96697351551E-02  0.10240168989E+01  0.10238232649E+01 0.  0.
     999903    2    3    3    0    0 -0.24855926871E-01  0.75594069474E-01  0.10856975589E+00  0.13613480620E+00  0.20322724349E-01 0.  0.
         14    1    1    2    0    0 -0.24771217320E-02 -0.17230545072E-01 -0.96697351551E-02  0.19913101053E-01  0.00000000000E+00 0. -1.
     999901    1    3    3    0    0  0.27333048603E-01 -0.58363524402E-01 -0.98900020731E-01  0.88788209275E+00  0.88000000000E+00 0.  1.
        -11    1    4    4    0    0 -0.90652413201E-02  0.12014340832E-01  0.11159979906E-01  0.18743779190E-01  0.51100000000E-03 0.  1.
         11    1    4    4    0    0 -0.15790685551E-01  0.63579728642E-01  0.97409775980E-01  0.11739102701E+00  0.51100000000E-03 0. -1.
</event>
<event>
 8    1  0.1054086E+005  0.1043930E+01  0.7957747E-01            NaN
         13   -1    0    0    0    0  0.00000000000E+00  0.00000000000E+00  0.74505805969E-08  0.10566000000E+00  0.10566000000E+00 0.  1.
     999900   -1    0    0    0    0 -0.00000000000E+00 -0.00000000000E+00 -0.74505805969E-08  0.93827000000E+00  0.93827000000E+00 0.  1.
     999902    2    1    2    0    0 -0.14989530715E-01 -0.77158838926E-02  0.17888703795E-01  0.10193489785E+01  0.10190525567E+01 0.  0.
     999903    2    3    3    0    0  0.10334031201E+00  0.32016201524E-01  0.68570460837E-01  0.12909663741E+00  0.16117581836E-01 0.  0.
         14    1    1    2    0    0  0.14989530715E-01  0.77158838926E-02 -0.17888703795E-01  0.24581021516E-01  0.00000000000E+00 0. -1.
     999901    1    3    3    0    0 -0.11832984273E+00 -0.39732085416E-01 -0.50681757041E-01  0.89025234107E+00  0.88000000000E+00 0.  1.
        -11    1    4    4    0    0  0.35428162137E-01  0.18151344762E-01  0.20819546909E-01  0.44925946218E-01  0.51100000000E-03 0.  1.
         11    1    4    4    0    0  0.67912149876E-01  0.13864856762E-01  0.47750913928E-01  0.84170691192E-01  0.51100000000E-03 0. -1.
</event>
<event>
 8    1  0.1054086E+005  0.1043930E+01  0.7957747E-01            NaN
         13   -1    0    0    0    0  0.00000000000E+00  0.00000000000E+00  0.74505805969E-08  0.10566000000E+00  0.10566000000E+00 0.  1.
     999900   -1    0    0    0    0 -0.00000000000E+00 -0.00000000000E+00 -0.74505805969E-08  0.93827000000E+00  0.93827000000E+00 0.  1.
     999902    2    1    2    0    0 -0.14366755810E-01  0.10208401412E-01  0.14672479476E-01  0.10209975604E+01  0.10207399872E+01 0.  0.
     999903    2    3    3    0    0  0.90320474887E-01  0.75735860080E-01  0.54278293655E-01  0.13149102045E+00  0.21214302008E-01 0.  0.
         14    1    1    2    0    0  0.14366755810E-01 -0.10208401412E-01 -0.14672479476E-01  0.22932439597E-01  0.00000000000E+00 0. -1.
     999901    1    3    3    0    0 -0.10468723070E+00 -0.65527458669E-01 -0.39605814179E-01  0.88950653996E+00  0.88000000000E+00 0.  1.
        -11    1    4    4    0    0  0.76899968408E-01  0.55462944890E-01  0.48482047944E-01  0.10649184706E+00  0.51100000000E-03 0.  1.
         11    1    4    4    0    0  0.13420506480E-01  0.20272915190E-01  0.57962457117E-02  0.24999173383E-01  0.51100000000E-03 0. -1.
</event>
<event>
 8    1  0.1054086E+005  0.1043930E+01  0.7957747E-01            NaN
         13   -1    0    0    0    0  0.00000000000E+00  0.00000000000E+00  0.74505805969E-08  0.10566000000E+00  0.10566000000E+00 0.  1.
     999900   -1    0    0    0    0 -0.00000000000E+00 -0.00000000000E+00 -0.74505805969E-08  0.93827000000E+00  0.93827000000E+00 0.  1.
     999902    2    1    2    0    0 -0.18251630703E-02 -0.10040399760E-02 -0.23640632113E-01  0.10201977687E+01  0.10199216972E+01 0.  0.
     999903    2    3    3    0    0  0.70284070081E-01  0.73842782389E-01 -0.81911698161E-01  0.13216775486E+00  0.19135885391E-01 0.  0.
         14    1    1    2    0    0  0.18251630703E-02  0.10040399760E-02  0.23640632113E-01  0.23732231315E-01  0.00000000000E+00 0.  1.
     999901    1    3    3    0    0 -0.72109233152E-01 -0.74846822365E-01  0.58271066048E-01  0.88803001383E+00  0.88000000000E+00 0. -1.
        -11    1    4    4    0    0  0.46475916974E-01  0.49570030626E-01 -0.65614904691E-01  0.94460444809E-01  0.51100000000E-03 0.  1.
         11    1    4    4    0    0  0.23808153108E-01  0.24272751763E-01 -0.16296793470E-01  0.37707310047E-01  0.51100000000E-03 0. -1.
</event>
<event>
 8    1  0.1054086E+005  0.1043930E+01  0.7957747E-01            NaN
         13   -1    0    0    0    0  0.00000000000E+00  0.00000000000E+00  0.74505805969E-08  0.10566000000E+00  0.10566000000E+00 0. -1.
     999900   -1    0    0    0    0 -0.00000000000E+00 -0.00000000000E+00 -0.74505805969E-08  0.93827000000E+00  0.93827000000E+00 0. -1.
     999902    2    1    2    0    0 -0.67093784788E-02 -0.21229259319E-01 -0.67221943558E-02  0.10206730632E+01  0.10204080639E+01 0.  0.
     999903    2    3    3    0    0 -0.85482691420E-01 -0.37979765842E-01 -0.92211688852E-01  0.13287000626E+00  0.20042201901E-01 0.  0.
         14    1    1    2    0    0  0.67093784788E-02  0.21229259319E-01  0.67221943558E-02  0.23256936767E-01  0.00000000000E+00 0. -1.
     999901    1    3    3    0    0  0.78773312941E-01  0.16750506523E-01  0.85489494496E-01  0.88780305697E+00  0.88000000000E+00 0.  1.
        -11    1    4    4    0    0 -0.29484084237E-01 -0.18422877086E-01 -0.46074467546E-01  0.57722017498E-01  0.51100000000E-03 0.  1.
         11    1    4    4    0    0 -0.55998607183E-01 -0.19556888756E-01 -0.46137221306E-01  0.75147988763E-01  0.51100000000E-03 0. -1.
</event>
<event>
 8    1  0.1054086E+005  0.1043930E+01  0.7957747E-01            NaN
         13   -1    0    0    0    0  0.00000000000E+00  0.00000000000E+00  0.74505805969E-08  0.10566000000E+00  0.10566000000E+00 0. -1.
     999900   -1    0    0    0    0 -0.00000000000E+00 -0.00000000000E+00 -0.74505805969E-08  0.93827000000E+00  0.93827000000E+00 0.  1.
     999902    2    1    2    0    0  0.28078930595E-02 -0.20307236686E-01  0.10007142812E-01  0.10211174808E+01  0.10208626247E+01 0.  0.
     999903    2    3    3    0    0 -0.98366011927E-01 -0.41577501961E-02 -0.83244018905E-01  0.13027925523E+00  0.18707176987E-01 0.  0.
         14    1    1    2    0    0 -0.28078930595E-02  0.20307236686E-01 -0.10007142812E-01  0.22812519206E-01  0.00000000000E+00 0.  1.
     999901    1    3    3    0    0  0.10117390499E+00 -0.16149486490E-01  0.93251161717E-01  0.89083822556E+00  0.88000000000E+00 0. -1.
        -11    1    4    4    0    0 -0.43170002614E-01  0.40137587153E-02 -0.45868897475E-01  0.63118747305E-01  0.51100000000E-03 0.  1.
         11    1    4    4    0    0 -0.55196009312E-01 -0.81715089114E-02 -0.37375121430E-01  0.67160507926E-01  0.51100000000E-03 0. -1.
</event>
<event>
 8    1  0.1054086E+005  0.1043930E+01  0.7957747E-01            NaN
         13   -1    0    0    0    0  0.00000000000E+00  0.00000000000E+00  0.74505805969E-08  0.10566000000E+00  0.10566000000E+00 0. -1.
     999900   -1    0    0    0    0 -0.00000000000E+00 -0.00000000000E+00 -0.74505805969E-08  0.93827000000E+00  0.93827000000E+00 0.  1.
     999902    2    1    2    0    0 -0.81896308404E-02 -0.10459266126E-01 -0.13638419734E-01  0.10248912817E+01  0.10247144317E+01 0.  0.
     999903    2    3    3    0    0 -0.72286228466E-01  0.10788582849E+00 -0.28360928440E-01  0.13453703339E+00  0.20765843969E-01 0.  0.
         14    1    1    2    0    0  0.81896308404E-02  0.10459266126E-01  0.13638419734E-01  0.19038718288E-01  0.00000000000E+00 0. -1.
     999901    1    3    3    0    0  0.64096597626E-01 -0.11834509462E+00  0.14722508706E-01  0.89035424832E+00  0.88000000000E+00 0.  1.
        -11    1    4    4    0    0 -0.18838158185E-01  0.30986830135E-01  0.13326215907E-02  0.36291828928E-01  0.51100000000E-03 0.  1.
         11    1    4    4    0    0 -0.53448070281E-01  0.76898998356E-01 -0.29693550031E-01  0.98245204460E-01  0.51100000000E-03 0. -1.
</event>
<event>
 8    1  0.1054086E+005  0.1043930E+01  0.7957747E-01            NaN
         13   -1    0    0    0    0  0.00000000000E+00  0.00000000000E+00  0.74505805969E-08  0.10566000000E+00  0.10566000000E+00 0.  1.
     999900   -1    0    0    0    0 -0.00000000000E+00 -0.00000000000E+00 -0.74505805969E-08  0.93827000000E+00  0.93827000000E+00 0.  1.
     999902    2    1    2    0    0  0.21929605010E-01 -0.35178159283E-02  0.96410478632E-02  0.10197177632E+01  0.10194302744E+01 0.  0.
     999903    2    3    3    0    0  0.10059209442E-01  0.12735074859E+00  0.17507936554E-01  0.12992600367E+00  0.15963637649E-01 0.  0.
         14    1    1    2    0    0 -0.21929605010E-01  0.35178159283E-02 -0.96410478632E-02  0.24212236755E-01  0.00000000000E+00 0.  1.
     999901    1    3    3    0    0  0.11870395568E-01 -0.13086856452E+00 -0.78668886910E-02  0.88979175957E+00  0.88000000000E+00 0.  1.
        -11    1    4    4    0    0  0.51012945689E-02  0.68112218780E-01  0.17366328757E-01  0.70477996914E-01  0.51100000000E-03 0. -1.
         11    1    4    4    0    0  0.49579148731E-02  0.59238529807E-01  0.14160779751E-03  0.59448006757E-01  0.51100000000E-03 0.  1.
</event>
<event>
 8    1  0.1054086E+005  0.1043930E+01  0.7957747E-01            NaN
         13   -1    0    0    0    0  0.00000000000E+00  0.00000000000E+00  0.74505805969E-08  0.10566000000E+00  0.10566000000E+00 0. -1.
     999900   -1    0    0    0    0 -0.00000000000E+00 -0.00000000000E+00 -0.74505805969E-08  0.93827000000E+00  0.93827000000E+00 0. -1.
     999902    2    1    2    0    0  0.62490166671E-03 -0.17676141297E-01 -0.18597102112E-01  0.10182650691E+01  0.10179415809E+01 0.  0.
     999903    2    3    3    0    0 -0.10848814364E+00  0.58052360304E-01 -0.14895106732E-01  0.12829081809E+00  0.33119721533E-01 0.  0.
         14    1    1    2    0    0 -0.62490166671E-03  0.17676141297E-01  0.18597102112E-01  0.25664930941E-01  0.00000000000E+00 0. -1.
     999901    1    3    3    0    0  0.10911304531E+00 -0.75728501601E-01 -0.37019953802E-02  0.88997425097E+00  0.88000000000E+00 0. -1.
        -11    1    4    4    0    0 -0.63628578430E-01  0.18085464333E-01 -0.16531627411E-01  0.68185305155E-01  0.51100000000E-03 0.  1.
         11    1    4    4    0    0 -0.44859565213E-01  0.39966895971E-01  0.16365206795E-02  0.60105512939E-01  0.51100000000E-03 0. -1.
</event>
<event>
 8    1  0.1176016E+005  0.1043930E+01  0.7957747E-01            NaN
         13   -1    0    0    0    0  0.00000000000E+00  0.00000000000E+00  0.74505805969E-08  0.10566000000E+00  0.10566000000E+00 0.  1.
     999900   -1    0    0    0    0 -0.00000000000E+00 -0.00000000000E+00 -0.74505805969E-08  0.93827000000E+00  0.93827000000E+00 0. -1.
     999902    2    1    2    0    0  0.90659207956E-02 -0.21629872126E-01 -0.14013075341E-02  0.10204351931E+01  0.10201646815E+01 0.  0.
     999903    2    3    3    0    0  0.37056952100E-01  0.97015668910E-01  0.73553798269E-01  0.12887558763E+00  0.20334653509E-01 0.  0.
         14    1    1    2    0    0 -0.90659207956E-02  0.21629872126E-01  0.14013075341E-02  0.23494806892E-01  0.00000000000E+00 0. -1.
     999901    1    3    3    0    0 -0.27991031304E-01 -0.11864554104E+00 -0.74955105803E-01  0.89155960548E+00  0.88000000000E+00 0.  1.
        -11    1    4    4    0    0  0.11596276154E-01  0.43286046915E-01  0.42644127455E-01  0.61862251863E-01  0.51100000000E-03 0. -1.
         11    1    4    4    0    0  0.25460675946E-01  0.53729621995E-01  0.30909670814E-01  0.67013335764E-01  0.51100000000E-03 0.  1.
</event>
<event>
 8    1  0.1054086E+005  0.1043930E+01  0.7957747E-01            NaN
         13   -1    0    0    0    0  0.00000000000E+00  0.00000000000E+00  0.74505805969E-08  0.10566000000E+00  0.10566000000E+00 0. -1.
     999900   -1    0    0    0    0 -0.00000000000E+00 -0.00000000000E+00 -0.74505805969E-08  0.93827000000E+00  0.93827000000E+00 0. -1.
     999902    2    1    2    0    0  0.28640216132E-02  0.27199836326E-01 -0.11057469917E-01  0.10144291296E+01  0.10140000777E+01 0.  0.
     999903    2    3    3    0    0 -0.49595454567E-01  0.83948910942E-01  0.78245688633E-01  0.12653977370E+00  0.19565218553E-01 0.  0.
         14    1    1    2    0    0 -0.28640216132E-02 -0.27199836326E-01  0.11057469917E-01  0.29500870444E-01  0.00000000000E+00 0. -1.
     999901    1    3    3    0    0  0.52459476180E-01 -0.56749074616E-01 -0.89303158550E-01  0.88788935585E+00  0.88000000000E+00 0. -1.
        -11    1    4    4    0    0 -0.20457608534E-01  0.52803197851E-01  0.41010131293E-01  0.69919835812E-01  0.51100000000E-03 0.  1.
         11    1    4    4    0    0 -0.29137846033E-01  0.31145713091E-01  0.37235557340E-01  0.56619937891E-01  0.51100000000E-03 0. -1.
</event>
<event>
 8    1  0.1054086E+005  0.1043930E+01  0.7957747E-01            NaN
         13   -1    0    0    0    0  0.00000000000E+00  0.00000000000E+00  0.74505805969E-08  0.10566000000E+00  0.10566000000E+00 0.  1.
     999900   -1    0    0    0    0 -0.00000000000E+00 -0.00000000000E+00 -0.74505805969E-08  0.93827000000E+00  0.93827000000E+00 0.  1.
     999902    2    1    2    0    0 -0.10131925703E-01  0.21314183076E-01 -0.20090202660E-02  0.10202448468E+01  0.10199698824E+01 0.  0.
     999903    2    3    3    0    0  0.47718678225E-01  0.40092709708E-01 -0.11362080576E+00  0.13111239544E+00  0.19906660016E-01 0.  0.
         14    1    1    2    0    0  0.10131925703E-01 -0.21314183076E-01  0.20090202660E-02  0.23685153178E-01  0.00000000000E+00 0. -1.
     999901    1    3    3    0    0 -0.57850603928E-01 -0.18778526632E-01  0.11161178550E+00  0.88913245138E+00  0.88000000000E+00 0. -1.
        -11    1    4    4    0    0  0.26699821245E-01  0.11582874360E-01 -0.40645669299E-01  0.49993749477E-01  0.51100000000E-03 0.  1.
         11    1    4    4    0    0  0.21018856980E-01  0.28509835348E-01 -0.72975136463E-01  0.81118645964E-01  0.51100000000E-03 0. -1.
</event>
<event>
 8    1  0.1054086E+005  0.1043930E+01  0.7957747E-01            NaN
         13   -1    0    0    0    0  0.00000000000E+00  0.00000000000E+00  0.74505805969E-08  0.10566000000E+00  0.10566000000E+00 0. -1.
     999900   -1    0    0    0    0 -0.00000000000E+00 -0.00000000000E+00 -0.74505805969E-08  0.93827000000E+00  0.93827000000E+00 0. -1.
     999902    2    1    2    0    0 -0.99339184176E-02  0.50349026978E-02 -0.31980636313E-01  0.10100656518E+01  0.10094978092E+01 0.  0.
     999903    2    3    3    0    0 -0.10013687798E-01 -0.11673507837E+00  0.18355178799E-01  0.12025576821E+00  0.19929494012E-01 0.  0.
         14    1    1    2    0    0  0.99339184176E-02 -0.50349026978E-02  0.31980636313E-01  0.33864348204E-01  0.00000000000E+00 0. -1.
     999901    1    3    3    0    0  0.79769379927E-04  0.12176998107E+00 -0.50335815112E-01  0.88980988359E+00  0.88000000000E+00 0. -1.
        -11    1    4    4    0    0 -0.65435991534E-02 -0.87489073705E-01  0.48975324831E-02  0.87871517872E-01  0.51100000000E-03 0. -1.
         11    1    4    4    0    0 -0.34700886442E-02 -0.29246004669E-01  0.13457646316E-01  0.32384250333E-01  0.51100000000E-03 0.  1.
</event>
<event>
 8    1  0.1054086E+005  0.1043930E+01  0.7957747E-01            NaN
         13   -1    0    0    0    0  0.00000000000E+00  0.00000000000E+00  0.74505805969E-08  0.10566000000E+00  0.10566000000E+00 0.  1.
     999900   -1    0    0    0    0 -0.00000000000E+00 -0.00000000000E+00 -0.74505805969E-08  0.93827000000E+00  0.93827000000E+00 0. -1.
     999902    2    1    2    0    0 -0.38897603063E-02 -0.22256099041E-01 -0.74229824366E-02  0.10201483927E+01  0.10198711576E+01 0.  0.
     999903    2    3    3    0    0  0.21078166272E-01  0.89984185806E-01  0.86955121197E-01  0.12766393601E+00  0.13980152614E-01 0.  0.
         14    1    1    2    0    0  0.38897603063E-02  0.22256099041E-01  0.74229824366E-02  0.23781607347E-01  0.00000000000E+00 0. -1.
     999901    1    3    3    0    0 -0.24967926578E-01 -0.11224028485E+00 -0.94378103633E-01  0.89248445664E+00  0.88000000000E+00 0. -1.
        -11    1    4    4    0    0  0.15068979714E-01  0.38995809248E-01  0.33821589176E-01  0.53776466079E-01  0.51100000000E-03 0.  1.
         11    1    4    4    0    0  0.60091865579E-02  0.50988376558E-01  0.53133532020E-01  0.73887469933E-01  0.51100000000E-03 0. -1.
</event>
<event>
 8    1  0.1054086E+005  0.1043930E+01  0.7957747E-01            NaN
         13   -1    0    0    0    0  0.00000000000E+00  0.00000000000E+00  0.74505805969E-08  0.10566000000E+00  0.10566000000E+00 0. -1.
     999900   -1    0    0    0    0 -0.00000000000E+00 -0.00000000000E+00 -0.74505805969E-08  0.93827000000E+00  0.93827000000E+00 0. -1.
     999902    2    1    2    0    0 -0.76510152378E-02 -0.14281024257E-01  0.18904494460E-01  0.10190328998E+01  0.10187287103E+01 0.  0.
     999903    2    3    3    0    0  0.96277160300E-01 -0.44041977901E-02  0.85823089930E-01  0.13033907412E+00  0.18275199674E-01 0.  0.
         14    1    1    2    0    0  0.76510152378E-02  0.14281024257E-01 -0.18904494460E-01  0.24897100208E-01  0.00000000000E+00 0.  1.
     999901    1    3    3    0    0 -0.10392817554E+00 -0.98768264670E-02 -0.66918595470E-01  0.88869382567E+00  0.88000000000E+00 0.  1.
        -11    1    4    4    0    0  0.79373373464E-01  0.32673138726E-02  0.71616837063E-01  0.10695812371E+00  0.51100000000E-03 0. -1.
         11    1    4    4    0    0  0.16903786836E-01 -0.76715116628E-02  0.14206252867E-01  0.23380950411E-01  0.51100000000E-03 0.  1.
</event>
<event>
 7    1  0.1054086E+005  0.1043930E+01  0.7957747E-01            NaN
         13   -1    0    0    0    0  0.00000000000E+00  0.00000000000E+00  0.74505805969E-08  0.10566000000E+00  0.10566000000E+00 0.  1.
     999900   -1    0    0    0    0 -0.00000000000E+00 -0.00000000000E+00 -0.74505805969E-08  0.93827000000E+00  0.93827000000E+00 0.  1.
     999902    2    1    2    0    0 -0.45211934405E-02  0.19794188249E-01  0.11579904109E-01  0.10205559704E+01  0.10202882649E+01 0.  0.
         14    1    1    2    0    0  0.45211934405E-02 -0.19794188249E-01 -0.11579904109E-01  0.23374029557E-01  0.00000000000E+00 0.  1.
     999901    1    3    3    0    0  0.23609942307E-01 -0.91143899227E-01 -0.32886482668E-01  0.88563319748E+00  0.88000000000E+00 0.  1.
        -11    1    3    3    0    0 -0.17775343709E-01  0.55073149028E-02 -0.29639184227E-02  0.18850445481E-01  0.51100000000E-03 0. -1.
         11    1    3    3    0    0 -0.10355792038E-01  0.10543077257E+00  0.47430305200E-01  0.11607232748E+00  0.51100000000E-03 0.  1.
</event>
<event>
 8    1  0.1054086E+005  0.1043930E+01  0.7957747E-01            NaN
         13   -1    0    0    0    0  0.00000000000E+00  0.00000000000E+00  0.74505805969E-08  0.10566000000E+00  0.10566000000E+00 0.  1.
     999900   -1    0    0    0    0 -0.00000000000E+00 -0.00000000000E+00 -0.74505805969E-08  0.93827000000E+00  0.93827000000E+00 0.  1.
     999902    2    1    2    0    0  0.11411452609E-01  0.20314440942E-01  0.31383196123E-02  0.10204194319E+01  0.10201485530E+01 0.  0.
     999903    2    3    3    0    0 -0.60085112120E-01  0.52287146965E-01 -0.10177146297E+00  0.13073405204E+00  0.19743233039E-01 0.  0.
         14    1    1    2    0    0 -0.11411452609E-01 -0.20314440942E-01 -0.31383196123E-02  0.23510568080E-01  0.00000000000E+00 0. -1.
     999901    1    3    3    0    0  0.71496564729E-01 -0.31972706023E-01  0.10490978258E+00  0.88968537988E+00  0.88000000000E+00 0. -1.
        -11    1    4    4    0    0 -0.20779513240E-01  0.23962569535E-01 -0.54400684917E-01  0.62973713164E-01  0.51100000000E-03 0. -1.
         11    1    4    4    0    0 -0.39305598880E-01  0.28324577430E-01 -0.47370778052E-01  0.67760338873E-01  0.51100000000E-03 0.  1.
</event>
<event>
 8    1  0.1054086E+005  0.1043930E+01  0.7957747E-01            NaN
         13   -1    0    0    0    0  0.00000000000E+00  0.00000000000E+00  0.74505805969E-08  0.10566000000E+00  0.10566000000E+00 0.  1.
     999900   -1    0    0    0    0 -0.00000000000E+00 -0.00000000000E+00 -0.74505805969E-08  0.93827000000E+00  0.93827000000E+00 0. -1.
     999902    2    1    2    0    0 -0.13207590962E-01  0.11515445966E-01  0.15160425825E-01  0.10207592325E+01  0.10204962157E+01 0.  0.
     999903    2    3    3    0    0  0.11853376665E+00  0.10491838881E-01  0.48966483926E-01  0.13031008593E+00  0.20558925733E-01 0.  0.
         14    1    1    2    0    0  0.13207590962E-01 -0.11515445966E-01 -0.15160425825E-01  0.23170767488E-01  0.00000000000E+00 0. -1.
     999901    1    3    3    0    0 -0.13174135762E+00  0.10236070849E-02 -0.33806058101E-01  0.89044914658E+00  0.88000000000E+00 0.  1.
        -11    1    4    4    0    0  0.78230024007E-01  0.10904654324E-01  0.41808575755E-01  0.89370388103E-01  0.51100000000E-03 0.  1.
         11    1    4    4    0    0  0.40303742648E-01 -0.41281544286E-03  0.71579081710E-02  0.40939697830E-01  0.51100000000E-03 0. -1.
</event>
<event>
 8    1  0.1054086E+005  0.1043930E+01  0.7957747E-01            NaN
         13   -1    0    0    0    0  0.00000000000E+00  0.00000000000E+00  0.74505805969E-08  0.10566000000E+00  0.10566000000E+00 0. -1.
     999900   -1    0    0    0    0 -0.00000000000E+00 -0.00000000000E+00 -0.74505805969E-08  0.93827000000E+00  0.93827000000E+00 0.  1.
     999902    2    1    2    0    0 -0.12579095564E-02 -0.10625849153E-01  0.21210482683E-01  0.10201734097E+01  0.10198967645E+01 0.  0.
     999903    2    3    3    0    0  0.38303681579E-01  0.30428756362E-01  0.12165134214E+00  0.13262681016E+00  0.19943432280E-01 0.  0.
         14    1    1    2    0    0  0.12579095564E-02  0.10625849153E-01 -0.21210482683E-01  0.23756590292E-01  0.00000000000E+00 0.  1.
     999901    1    3    3    0    0 -0.39561591136E-01 -0.41054605514E-01 -0.10044085946E+00  0.88754659955E+00  0.88000000000E+00 0.  1.
        -11    1    4    4    0    0  0.28526078473E-01  0.32025093363E-01  0.10010395243E+00  0.10890549192E+00  0.51100000000E-03 0.  1.
         11    1    4    4    0    0  0.97776031057E-02 -0.15963370012E-02  0.21547389712E-01  0.23721318233E-01  0.51100000000E-03 0. -1.
</event>
<event>
 8    1  0.1054086E+005  0.1043930E+01  0.7957747E-01            NaN
         13   -1    0    0    0    0  0.00000000000E+00  0.00000000000E+00  0.74505805969E-08  0.10566000000E+00  0.10566000000E+00 0. -1.
     999900   -1    0    0    0    0 -0.00000000000E+00 -0.00000000000E+00 -0.74505805969E-08  0.93827000000E+00  0.93827000000E+00 0. -1.
     999902    2    1    2    0    0 -0.11359273668E-01  0.20562787672E-01  0.16284245472E-02  0.10203818981E+01  0.10201101435E+01 0.  0.
     999903    2    3    3    0    0 -0.10065815484E+00  0.84697109809E-01  0.10681750107E-01  0.13349438319E+00  0.20024635141E-01 0.  0.
         14    1    1    2    0    0  0.11359273668E-01 -0.20562787672E-01 -0.16284245472E-02  0.23548101869E-01  0.00000000000E+00 0.  1.
     999901    1    3    3    0    0  0.89298881171E-01 -0.64134322137E-01 -0.90533255602E-02  0.88688751494E+00  0.88000000000E+00 0. -1.
        -11    1    4    4    0    0 -0.55620700804E-01  0.50039053009E-01 -0.35680324755E-02  0.74903679221E-01  0.51100000000E-03 0. -1.
         11    1    4    4    0    0 -0.45037454035E-01  0.34658056799E-01  0.14249782583E-01  0.58590703970E-01  0.51100000000E-03 0.  1.
</event>
<event>
 8    1  0.1054086E+005  0.1043930E+01  0.7957747E-01            NaN
         13   -1    0    0    0    0  0.00000000000E+00  0.00000000000E+00  0.74505805969E-08  0.10566000000E+00  0.10566000000E+00 0. -1.
     999900   -1    0    0    0    0 -0.00000000000E+00 -0.00000000000E+00 -0.74505805969E-08  0.93827000000E+00  0.93827000000E+00 0. -1.
     999902    2    1    2    0    0  0.42580556174E-02 -0.83619379765E-02 -0.22043973837E-01  0.10199719152E+01  0.10196905011E+01 0.  0.
     999903    2    3    3    0    0 -0.14130367847E-01  0.19187392120E-01 -0.12930870190E+00  0.13284012027E+00  0.18919139864E-01 0.  0.
         14    1    1    2    0    0 -0.42580556174E-02  0.83619379765E-02  0.22043973837E-01  0.23958084792E-01  0.00000000000E+00 0. -1.
     999901    1    3    3    0    0  0.18388423465E-01 -0.27549330096E-01  0.10726472807E+00  0.88713179494E+00  0.88000000000E+00 0.  1.
        -11    1    4    4    0    0 -0.52624559364E-02  0.18823554335E-01 -0.63735957091E-01  0.66667480735E-01  0.51100000000E-03 0.  1.
         11    1    4    4    0    0 -0.88679119109E-02  0.36383778479E-03 -0.65572744812E-01  0.66172639533E-01  0.51100000000E-03 0. -1.
</event>
<event>
 8    1  0.1054086E+005  0.1043930E+01  0.7957747E-01            NaN
         13   -1    0    0    0    0  0.00000000000E+00  0.00000000000E+00  0.74505805969E-08  0.10566000000E+00  0.10566000000E+00 0.  1.
     999900   -1    0    0    0    0 -0.00000000000E+00 -0.00000000000E+00 -0.74505805969E-08  0.93827000000E+00  0.93827000000E+00 0.  1.
     999902    2    1    2    0    0  0.25508757536E-03 -0.27732480726E-01  0.38967946748E-02  0.10159239191E+01  0.10155378225E+01 0.  0.
     999903    2    3    3    0    0  0.91517274460E-01  0.31068053502E-01 -0.79378569509E-01  0.12535046575E+00  0.84348381488E-02 0.  0.
         14    1    1    2    0    0 -0.25508757536E-03  0.27732480726E-01 -0.38967946748E-02  0.28006080869E-01  0.00000000000E+00 0.  1.
     999901    1    3    3    0    0 -0.91262186884E-01 -0.58800534228E-01  0.83275364183E-01  0.89057345338E+00  0.88000000000E+00 0. -1.
        -11    1    4    4    0    0  0.33647725746E-01  0.74347970140E-02 -0.26500672093E-01  0.43474042795E-01  0.51100000000E-03 0.  1.
         11    1    4    4    0    0  0.57869548713E-01  0.23633256488E-01 -0.52877897415E-01  0.81876422959E-01  0.51100000000E-03 0. -1.
</event>
<event>
 8    1  0.1054086E+005  0.1043930E+01  0.7957747E-01            NaN
         13   -1    0    0    0    0  0.00000000000E+00  0.00000000000E+00  0.74505805969E-08  0.10566000000E+00  0.10566000000E+00 0. -1.
     999900   -1    0    0    0    0 -0.00000000000E+00 -0.00000000000E+00 -0.74505805969E-08  0.93827000000E+00  0.93827000000E+00 0. -1.
     999902    2    1    2    0    0  0.15970147614E-01 -0.15118111708E-01  0.67228825118E-02  0.10209343468E+01  0.10206753355E+01 0.  0.
     999903    2    3    3    0    0 -0.53683794471E-02  0.12484694092E+00  0.26549792934E-01  0.12939710414E+00  0.20570388900E-01 0.  0.
         14    1    1    2    0    0 -0.15970147614E-01  0.15118111708E-01 -0.67228825118E-02  0.22995653191E-01  0.00000000000E+00 0.  1.
     999901    1    3    3    0    0  0.21338527061E-01 -0.13996505263E+00 -0.19826910422E-01  0.89153724267E+00  0.88000000000E+00 0. -1.
        -11    1    4    4    0    0 -0.25988918353E-03  0.10816112092E-01  0.86379994914E-02  0.13853951761E-01  0.51100000000E-03 0.  1.
         11    1    4    4    0    0 -0.51084902635E-02  0.11403082883E+00  0.17911793442E-01  0.11554315238E+00  0.51100000000E-03 0. -1.
</event>
<event>
 8    1  0.1054086E+005  0.1043930E+01  0.7957747E-01            NaN
         13   -1    0    0    0    0  0.00000000000E+00  0.00000000000E+00  0.74505805969E-08  0.10566000000E+00  0.10566000000E+00 0. -1.
     999900   -1    0    0    0    0 -0.00000000000E+00 -0.00000000000E+00 -0.74505805969E-08  0.93827000000E+00  0.93827000000E+00 0.  1.
     999902    2    1    2    0    0  0.93511378458E-02  0.19745305812E-01 -0.16201929950E-02  0.10220223323E+01  0.10217875032E+01 0.  0.
     999903    2    3    3    0    0 -0.66727652768E-01 -0.87750973127E-01 -0.66099623604E-01  0.12988947817E+00  0.18689659442E-01 0.  0.
         14    1    1    2    0    0 -0.93511378458E-02 -0.19745305812E-01  0.16201929950E-02  0.21907667744E-01  0.00000000000E+00 0. -1.
     999901    1    3    3    0    0  0.76078790614E-01  0.10749627894E+00  0.64479430609E-01  0.89213285409E+00  0.88000000000E+00 0. -1.
        -11    1    4    4    0    0 -0.39165751256E-01 -0.60120929927E-01 -0.34231489502E-01  0.79501813069E-01  0.51100000000E-03 0. -1.
         11    1    4    4    0    0 -0.27561901512E-01 -0.27630043200E-01 -0.31868134102E-01  0.50387665101E-01  0.51100000000E-03 0.  1.
</event>
<event>
 8    1  0.1054086E+005  0.1043930E+01  0.7957747E-01            NaN
         13   -1    0    0    0    0  0.00000000000E+00  0.00000000000E+00  0.74505805969E-08  0.10566000000E+00  0.10566000000E+00 0.  1.
     999900   -1    0    0    0    0 -0.00000000000E+00 -0.00000000000E+00 -0.74505805969E-08  0.93827000000E+00  0.93827000000E+00 0.  1.
     999902    2    1    2    0    0 -0.22649531866E-01  0.70980788868E-02 -0.64776009079E-02  0.10193262740E+01  0.10190292977E+01 0.  0.
     999903    2    3    3    0    0  0.26893122425E-01 -0.59304103773E-01  0.10841109331E+00  0.12799965797E+00  0.19766904895E-01 0.  0.
         14    1    1    2    0    0  0.22649531866E-01 -0.70980788868E-02  0.64776009079E-02  0.24603725960E-01  0.00000000000E+00 0. -1.
     999901    1    3    3    0    0 -0.49542654290E-01  0.66402182659E-01 -0.11488869422E+00  0.89132661607E+00  0.88000000000E+00 0.  1.
        -11    1    4    4    0    0 -0.18178628993E-02 -0.14500233340E-01  0.19400958291E-01  0.24294437554E-01  0.51100000000E-03 0. -1.
         11    1    4    4    0    0  0.28710985324E-01 -0.44803870433E-01  0.89010135021E-01  0.10370522042E+00  0.51100000000E-03 0.  1.
</event>
<event>
 8    1  0.1054086E+005  0.1043930E+01  0.7957747E-01            NaN
         13   -1    0    0    0    0  0.00000000000E+00  0.00000000000E+00  0.74505805969E-08  0.10566000000E+00  0.10566000000E+00 0. -1.
     999900   -1    0    0    0    0 -0.00000000000E+00 -0.00000000000E+00 -0.74505805969E-08  0.93827000000E+00  0.93827000000E+00 0. -1.
     999902    2    1    2    0    0 -0.75467794293E-02 -0.97334010458E-03 -0.22058136565E-01  0.10205962763E+01  0.10203295040E+01 0.  0.
     999903    2    3    3    0    0  0.86087164135E-01 -0.94734633223E-01  0.91764599623E-02  0.13012780667E+00  0.21526450945E-01 0.  0.
         14    1    1    2    0    0  0.75467794293E-02  0.97334010458E-03  0.22058136565E-01  0.23333723651E-01  0.00000000000E+00 0. -1.
     999901    1    3    3    0    0 -0.93633943564E-01  0.93761293118E-01 -0.31234596527E-01  0.89046846968E+00  0.88000000000E+00 0. -1.
        -11    1    4    4    0    0  0.76136708233E-01 -0.75560105030E-01  0.13427380496E-01  0.10810496511E+00  0.51100000000E-03 0.  1.
         11    1    4    4    0    0  0.99504559013E-02 -0.19174528193E-01 -0.42509205340E-02  0.22022841561E-01  0.51100000000E-03 0. -1.
</event>
<event>
 8    1  0.1054086E+005  0.1043930E+01  0.7957747E-01            NaN
         13   -1    0    0    0    0  0.00000000000E+00  0.00000000000E+00  0.74505805969E-08  0.10566000000E+00  0.10566000000E+00 0. -1.
     999900   -1    0    0    0    0 -0.00000000000E+00 -0.00000000000E+00 -0.74505805969E-08  0.93827000000E+00  0.93827000000E+00 0.  1.
     999902    2    1    2    0    0  0.12749129766E-01 -0.18744875138E-01  0.63607398251E-02  0.10203849439E+01  0.10201132605E+01 0.  0.
     999903    2    3    3    0    0  0.48171382189E-01 -0.10773036042E+00 -0.57870012165E-01  0.13286100507E+00  0.19411227233E-01 0.  0.
         14    1    1    2    0    0 -0.12749129766E-01  0.18744875138E-01 -0.63607398251E-02  0.23545056060E-01  0.00000000000E+00 0. -1.
     999901    1    3    3    0    0 -0.35422252423E-01  0.88985485284E-01  0.64230751990E-01  0.88752393887E+00  0.88000000000E+00 0.  1.
        -11    1    4    4    0    0  0.23887970166E-01 -0.73155640921E-01 -0.32218344360E-01  0.83430604406E-01  0.51100000000E-03 0.  1.
         11    1    4    4    0    0  0.24283412023E-01 -0.34574719501E-01 -0.25651667805E-01  0.49430400669E-01  0.51100000000E-03 0. -1.
</event>
<event>
 8    1  0.1054086E+005  0.1043930E+01  0.7957747E-01            NaN
         13   -1    0    0    0    0  0.00000000000E+00  0.00000000000E+00  0.74505805969E-08  0.10566000000E+00  0.10566000000E+00 0. -1.
     999900   -1    0    0    0    0 -0.00000000000E+00 -0.00000000000E+00 -0.74505805969E-08  0.93827000000E+00  0.93827000000E+00 0.  1.
     999902    2    1    2    0    0  0.16520803536E-01  0.40457480743E-03 -0.19843675468E-01  0.10181061334E+01  0.10177785745E+01 0.  0.
     999903    2    3    3    0    0 -0.59620936754E-01 -0.11087667028E+00 -0.30083993731E-02  0.12767673887E+00  0.21071475234E-01 0.  0.
         14    1    1    2    0    0 -0.16520803536E-01 -0.40457480743E-03  0.19843675468E-01  0.25823866603E-01  0.00000000000E+00 0. -1.
     999901    1    3    3    0    0  0.76141740290E-01  0.11128124509E+00 -0.16835276095E-01  0.89042939453E+00  0.88000000000E+00 0. -1.
        -11    1    4    4    0    0 -0.45619628268E-01 -0.71842109963E-01  0.57174876148E-02  0.85295896928E-01  0.51100000000E-03 0. -1.
         11    1    4    4    0    0 -0.14001308486E-01 -0.39034560320E-01 -0.87258869879E-02  0.42380841938E-01  0.51100000000E-03 0.  1.
</event>
<event>
 8    1  0.1054086E+005  0.1043930E+01  0.7957747E-01            NaN
         13   -1    0    0    0    0  0.00000000000E+00  0.00000000000E+00  0.74505805969E-08  0.10566000000E+00  0.10566000000E+00 0.  1.
     999900   -1    0    0    0    0 -0.00000000000E+00 -0.00000000000E+00 -0.74505805969E-08  0.93827000000E+00  0.93827000000E+00 0.  1.
     999902    2    1    2    0    0 -0.16618025532E-01 -0.14193281582E-02  0.17523293556E-01  0.10197382848E+01  0.10194512889E+01 0.  0.
     999903    2    3    3    0    0 -0.23306263198E-01 -0.11163036944E+00  0.62763234538E-01  0.13168543822E+00  0.19932630125E-01 0.  0.
         14    1    1    2    0    0  0.16618025532E-01  0.14193281582E-02 -0.17523293556E-01  0.24191715153E-01  0.00000000000E+00 0. -1.
     999901    1    3    3    0    0  0.66882376655E-02  0.11021104128E+00 -0.45239940982E-01  0.88805284663E+00  0.88000000000E+00 0.  1.
        -11    1    4    4    0    0 -0.16614265162E-01 -0.36452989155E-01  0.17885616306E-01  0.43874942927E-01  0.51100000000E-03 0.  1.
         11    1    4    4    0    0 -0.66919980358E-02 -0.75177380285E-01  0.44877618232E-01  0.87810495292E-01  0.51100000000E-03 0. -1.
</event>
<event>
 8    1  0.1054086E+005  0.1043930E+01  0.7957747E-01            NaN
         13   -1    0    0    0    0  0.00000000000E+00  0.00000000000E+00  0.74505805969E-08  0.10566000000E+00  0.10566000000E+00 0.  1.
     999900   -1    0    0    0    0 -0.00000000000E+00 -0.00000000000E+00 -0.74505805969E-08  0.93827000000E+00  0.93827000000E+00 0. -1.
     999902    2    1    2    0    0 -0.15852859851E-01 -0.32530176910E-02  0.16426884209E-01  0.10208705591E+01  0.10206100924E+01 0.  0.
     999903    2    3    3    0    0  0.53095248315E-01  0.46425477755E-01 -0.10540117924E+00  0.12842231323E+00  0.20210184820E-01 0.  0.
         14    1    1    2    0    0  0.15852859851E-01  0.32530176910E-02 -0.16426884209E-01  0.23059440894E-01  0.00000000000E+00 0. -1.
     999901    1    3    3    0    0 -0.68948108166E-01 -0.49678495446E-01  0.12182806345E+00  0.89244824588E+00  0.88000000000E+00 0.  1.
        -11    1    4    4    0    0  0.17599168305E-01  0.17179741710E-01 -0.21184919272E-01  0.32464383189E-01  0.51100000000E-03 0.  1.
         11    1    4    4    0    0  0.35496080010E-01  0.29245736045E-01 -0.84216259969E-01  0.95957930037E-01  0.51100000000E-03 0. -1.
</event>
<event>
 8    1  0.1054086E+005  0.1043930E+01  0.7957747E-01            NaN
         13   -1    0    0    0    0  0.00000000000E+00  0.00000000000E+00  0.74505805969E-08  0.10566000000E+00  0.10566000000E+00 0.  1.
     999900   -1    0    0    0    0 -0.00000000000E+00 -0.00000000000E+00 -0.74505805969E-08  0.93827000000E+00  0.93827000000E+00 0.  1.
     999902    2    1    2    0    0 -0.93141334822E-02 -0.10237915521E-01  0.19518169997E-01  0.10200024645E+01  0.10197217761E+01 0.  0.
     999903    2    3    3    0    0  0.48547370837E-01 -0.50659954209E-01  0.11062291132E+00  0.13248797513E+00  0.19808000127E-01 0.  0.
         14    1    1    2    0    0  0.93141334822E-02  0.10237915521E-01 -0.19518169997E-01  0.23927535535E-01  0.00000000000E+00 0. -1.
     999901    1    3    3    0    0 -0.57861504319E-01  0.40422038688E-01 -0.91104741322E-01  0.88751448934E+00  0.88000000000E+00 0. -1.
        -11    1    4    4    0    0  0.43665982859E-01 -0.39513090998E-01  0.10120163300E+00  0.11708985465E+00  0.51100000000E-03 0. -1.
         11    1    4    4    0    0  0.48813879775E-02 -0.11146863211E-01  0.94212783177E-02  0.15398120475E-01  0.51100000000E-03 0.  1.
</event>
<event>
 8    1  0.1054086E+005  0.1043930E+01  0.7957747E-01            NaN
         13   -1    0    0    0    0  0.00000000000E+00  0.00000000000E+00  0.74505805969E-08  0.10566000000E+00  0.10566000000E+00 0.  1.
     999900   -1    0    0    0    0 -0.00000000000E+00 -0.00000000000E+00 -0.74505805969E-08  0.93827000000E+00  0.93827000000E+00 0.  1.
     999902    2    1    2    0    0 -0.10726922954E-01  0.20064897368E-01  0.58680084727E-02  0.10204331809E+01  0.10201626225E+01 0.  0.
     999903    2    3    3    0    0 -0.82709159183E-01  0.74765164333E-01  0.70666087389E-01  0.13343129111E+00  0.19482780325E-01 0.  0.
         14    1    1    2    0    0  0.10726922954E-01 -0.20064897368E-01 -0.58680084727E-02  0.23496819059E-01  0.00000000000E+00 0.  1.
     999901    1    3    3    0    0  0.71982236229E-01 -0.54700266965E-01 -0.64798078917E-01  0.88700188983E+00  0.88000000000E+00 0.  1.
        -11    1    4    4    0    0 -0.61931683209E-01  0.59387312098E-01  0.44547825383E-01  0.96680691406E-01  0.51100000000E-03 0. -1.
         11    1    4    4    0    0 -0.20777475973E-01  0.15377852235E-01  0.26118262006E-01  0.36750599701E-01  0.51100000000E-03 0.  1.
</event>
<event>
 8    1  0.1054086E+005  0.1043930E+01  0.7957747E-01            NaN
         13   -1    0    0    0    0  0.00000000000E+00  0.00000000000E+00  0.74505805969E-08  0.10566000000E+00  0.10566000000E+00 0.  1.
     999900   -1    0    0    0    0 -0.00000000000E+00 -0.00000000000E+00 -0.74505805969E-08  0.93827000000E+00  0.93827000000E+00 0. -1.
     999902    2    1    2    0    0 -0.22544735737E-01 -0.57624822859E-03 -0.40676169909E-02  0.10210140082E+01  0.10207568086E+01 0.  0.
     999903    2    3    3    0    0 -0.12506645364E+00  0.89084170047E-02 -0.43005443931E-01  0.13415617526E+00  0.20674463280E-01 0.  0.
         14    1    1    2    0    0  0.22544735737E-01  0.57624822859E-03  0.40676169909E-02  0.22915991784E-01  0.00000000000E+00 0. -1.
     999901    1    3    3    0    0  0.10252171790E+00 -0.94846652333E-02  0.38937826940E-01  0.88685783296E+00  0.88000000000E+00 0. -1.
        -11    1    4    4    0    0 -0.79881579065E-01  0.92757367206E-02 -0.17630048168E-01  0.82329737550E-01  0.51100000000E-03 0.  1.
         11    1    4    4    0    0 -0.45184874574E-01 -0.36731971581E-03 -0.25375395764E-01  0.51826437706E-01  0.51100000000E-03 0. -1.
</event>
<event>
 8    1  0.1054086E+005  0.1043930E+01  0.7957747E-01            NaN
         13   -1    0    0    0    0  0.00000000000E+00  0.00000000000E+00  0.74505805969E-08  0.10566000000E+00  0.10566000000E+00 0.  1.
     999900   -1    0    0    0    0 -0.00000000000E+00 -0.00000000000E+00 -0.74505805969E-08  0.93827000000E+00  0.93827000000E+00 0. -1.
     999902    2    1    2    0    0  0.70523297066E-02 -0.21434723783E-01  0.66904103208E-02  0.10203939781E+01  0.10201225055E+01 0.  0.
     999903    2    3    3    0    0 -0.21866965161E-02 -0.86231566062E-01 -0.97827100963E-01  0.13179513690E+00  0.18951300734E-01 0.  0.
         14    1    1    2    0    0 -0.70523297066E-02  0.21434723783E-01 -0.66904103208E-02  0.23536021928E-01  0.00000000000E+00 0.  1.
     999901    1    3    3    0    0  0.92390262227E-02  0.64796842279E-01  0.10451751128E+00  0.88859884118E+00  0.88000000000E+00 0.  1.
        -11    1    4    4    0    0  0.16063816603E-02 -0.43708774389E-01 -0.63006500441E-01  0.76701483945E-01  0.51100000000E-03 0. -1.
         11    1    4    4    0    0 -0.37930781763E-02 -0.42522791673E-01 -0.34820600521E-01  0.55093652950E-01  0.51100000000E-03 0.  1.
</event>
<event>
 8    1  0.1173075E+005  0.1043930E+01  0.7957747E-01            NaN
         13   -1    0    0    0    0  0.00000000000E+00  0.00000000000E+00  0.74505805969E-08  0.10566000000E+00  0.10566000000E+00 0. -1.
     999900   -1    0    0    0    0 -0.00000000000E+00 -0.00000000000E+00 -0.74505805969E-08  0.93827000000E+00  0.93827000000E+00 0. -1.
     999902    2    1    2    0    0  0.89043979346E-02  0.29810767448E-01 -0.43065636629E-02  0.10125211374E+01  0.10120338616E+01 0.  0.
     999903    2    3    3    0    0  0.38230462545E-01 -0.11186746369E+00  0.12338520713E-01  0.12055152017E+00  0.20112986460E-01 0.  0.
         14    1    1    2    0    0 -0.89043979346E-02 -0.29810767448E-01  0.43065636629E-02  0.31408862587E-01  0.00000000000E+00 0.  1.
     999901    1    3    3    0    0 -0.29326064610E-01  0.14167823114E+00 -0.16645084376E-01  0.89196961724E+00  0.88000000000E+00 0. -1.
        -11    1    4    4    0    0  0.17206877745E-01 -0.46842868812E-01  0.15144882682E-01  0.52153231853E-01  0.51100000000E-03 0. -1.
         11    1    4    4    0    0  0.21023584799E-01 -0.65024594877E-01 -0.28063619690E-02  0.68398288321E-01  0.51100000000E-03 0.  1.
</event>
<event>
 8    1  0.1054086E+005  0.1043930E+01  0.7957747E-01            NaN
         13   -1    0    0    0    0  0.00000000000E+00  0.00000000000E+00  0.74505805969E-08  0.10566000000E+00  0.10566000000E+00 0. -1.
     999900   -1    0    0    0    0 -0.00000000000E+00 -0.00000000000E+00 -0.74505805969E-08  0.93827000000E+00  0.93827000000E+00 0. -1.
     999902    2    1    2    0    0 -0.18285585524E-01 -0.12011237831E-01 -0.26706494678E-02  0.10218899265E+01  0.10216522192E+01 0.  0.
     999903    2    3    3    0    0  0.11872225128E+00  0.31045596790E-01 -0.36973163059E-01  0.12958857559E+00  0.19167214418E-01 0.  0.
         14    1    1    2    0    0  0.18285585524E-01  0.12011237831E-01  0.26706494678E-02  0.22040073520E-01  0.00000000000E+00 0. -1.
     999901    1    3    3    0    0 -0.13700783681E+00 -0.43056834621E-01  0.34302513591E-01  0.89230135089E+00  0.88000000000E+00 0.  1.
        -11    1    4    4    0    0  0.77752035858E-01  0.29359045915E-01 -0.26966097727E-01  0.87377137769E-01  0.51100000000E-03 0.  1.
         11    1    4    4    0    0  0.40970215424E-01  0.16865508754E-02 -0.10007065332E-01  0.42211437825E-01  0.51100000000E-03 0. -1.
</event>
<event>
 8    1  0.1054086E+005  0.1043930E+01  0.7957747E-01            NaN
         13   -1    0    0    0    0  0.00000000000E+00  0.00000000000E+00  0.74505805969E-08  0.10566000000E+00  0.10566000000E+00 0.  1.
     999900   -1    0    0    0    0 -0.00000000000E+00 -0.00000000000E+00 -0.74505805969E-08  0.93827000000E+00  0.93827000000E+00 0.  1.
     999902    2    1    2    0    0 -0.31394904317E-02  0.22524032025E-01 -0.80364153537E-02  0.10198100417E+01  0.10195247661E+01 0.  0.
     999903    2    3    3    0    0 -0.71129809910E-01  0.52214586347E-01 -0.96482467731E-01  0.13227023030E+00  0.20018350557E-01 0.  0.
         14    1    1    2    0    0  0.31394904317E-02 -0.22524032025E-01  0.80364153537E-02  0.24119958345E-01  0.00000000000E+00 0.  1.
     999901    1    3    3    0    0  0.67990319479E-01 -0.29690554322E-01  0.88446052377E-01  0.88753981135E+00  0.88000000000E+00 0. -1.
        -11    1    4    4    0    0 -0.28694354258E-01  0.10249187322E-01 -0.27447886361E-01  0.41012917400E-01  0.51100000000E-03 0.  1.
         11    1    4    4    0    0 -0.42435455653E-01  0.41965399024E-01 -0.69034581370E-01  0.91257312900E-01  0.51100000000E-03 0. -1.
</event>
<event>
 8    1  0.1054086E+005  0.1043930E+01  0.7957747E-01            NaN
         13   -1    0    0    0    0  0.00000000000E+00  0.00000000000E+00  0.74505805969E-08  0.10566000000E+00  0.10566000000E+00 0. -1.
     999900   -1    0    0    0    0 -0.00000000000E+00 -0.00000000000E+00 -0.74505805969E-08  0.93827000000E+00  0.93827000000E+00 0.  1.
     999902    2    1    2    0    0  0.31466590509E-03 -0.19990070092E-01 -0.11514601569E-01  0.10208586332E+01  0.10205978939E+01 0.  0.
     999903    2    3    3    0    0  0.11686573662E+00 -0.44452215438E-01 -0.38969442096E-01  0.13241262082E+00  0.19516272247E-01 0.  0.
         14    1    1    2    0    0 -0.31466590509E-03  0.19990070092E-01  0.11514601569E-01  0.23071366804E-01  0.00000000000E+00 0. -1.
     999901    1    3    3    0    0 -0.11655107071E+00  0.24462145346E-01  0.27454840527E-01  0.88844601238E+00  0.88000000000E+00 0.  1.
        -11    1    4    4    0    0  0.10296138326E+00 -0.36289553747E-01 -0.39951735463E-01  0.11625136748E+00  0.51100000000E-03 0.  1.
         11    1    4    4    0    0  0.13904353362E-01 -0.81626616910E-02  0.98229336673E-03  0.16161253341E-01  0.51100000000E-03 0. -1.
</event>
<event>
 8    1  0.1054086E+005  0.1043930E+01  0.7957747E-01            NaN
         13   -1    0    0    0    0  0.00000000000E+00  0.00000000000E+00  0.74505805969E-08  0.10566000000E+00  0.10566000000E+00 0.  1.
     999900   -1    0    0    0    0 -0.00000000000E+00 -0.00000000000E+00 -0.74505805969E-08  0.93827000000E+00  0.93827000000E+00 0.  1.
     999902    2    1    2    0    0  0.13560407815E-01 -0.19408301491E-01  0.14021004895E-02  0.10202122279E+01  0.10199364967E+01 0.  0.
     999903    2    3    3    0    0 -0.17509175860E-01 -0.10572787708E+00  0.75405263568E-01  0.13235364892E+00  0.18616642471E-01 0.  0.
         14    1    1    2    0    0 -0.13560407815E-01  0.19408301491E-01 -0.14021004895E-02  0.23717772084E-01  0.00000000000E+00 0.  1.
     999901    1    3    3    0    0  0.31069583675E-01  0.86319575587E-01 -0.74003163078E-01  0.88785857900E+00  0.88000000000E+00 0.  1.
        -11    1    4    4    0    0 -0.17507504852E-01 -0.67922976402E-01  0.41084567490E-01  0.81291120402E-01  0.51100000000E-03 0.  1.
         11    1    4    4    0    0 -0.16710082164E-05 -0.37804900675E-01  0.34320696078E-01  0.51062528513E-01  0.51100000000E-03 0. -1.
</event>
<event>
 8    1  0.1054086E+005  0.1043930E+01  0.7957747E-01            NaN
         13   -1    0    0    0    0  0.00000000000E+00  0.00000000000E+00  0.74505805969E-08  0.10566000000E+00  0.10566000000E+00 0. -1.
     999900   -1    0    0    0    0 -0.00000000000E+00 -0.00000000000E+00 -0.74505805969E-08  0.93827000000E+00  0.93827000000E+00 0. -1.
     999902    2    1    2    0    0 -0.79219823484E-02  0.11362092448E-01  0.18690300420E-01  0.10206666752E+01  0.10204015286E+01 0.  0.
     999903    2    3    3    0    0  0.91577377269E-01  0.91520470102E-01  0.87224926329E-03  0.13126070999E+00  0.21591681109E-01 0.  0.
         14    1    1    2    0    0  0.79219823484E-02 -0.11362092448E-01 -0.18690300420E-01  0.23263324761E-01  0.00000000000E+00 0.  1.
     999901    1    3    3    0    0 -0.99499359618E-01 -0.80158377654E-01  0.17818051157E-01  0.88940596525E+00  0.88000000000E+00 0.  1.
        -11    1    4    4    0    0  0.74327634706E-01  0.63304099433E-01 -0.45718739213E-02  0.97740316340E-01  0.51100000000E-03 0.  1.
         11    1    4    4    0    0  0.17249742563E-01  0.28216370669E-01  0.54441231846E-02  0.33520393651E-01  0.51100000000E-03 0. -1.
</event>
<event>
 8    1  0.1054086E+005  0.1043930E+01  0.7957747E-01            NaN
         13   -1    0    0    0    0  0.00000000000E+00  0.00000000000E+00  0.74505805969E-08  0.10566000000E+00  0.10566000000E+00 0.  1.
     999900   -1    0    0    0    0 -0.00000000000E+00 -0.00000000000E+00 -0.74505805969E-08  0.93827000000E+00  0.93827000000E+00 0.  1.
     999902    2    1    2    0    0  0.66962167170E-02  0.15268739922E-01  0.17638112787E-01  0.10196590964E+01  0.10193701958E+01 0.  0.
     999903    2    3    3    0    0  0.19377907597E-01  0.61663005778E-01  0.11457674317E+00  0.13303045306E+00  0.19784887727E-01 0.  0.
         14    1    1    2    0    0 -0.66962167170E-02 -0.15268739922E-01 -0.17638112787E-01  0.24270903564E-01  0.00000000000E+00 0. -1.
     999901    1    3    3    0    0 -0.12681690880E-01 -0.46394265856E-01 -0.96938630383E-01  0.88662864337E+00  0.88000000000E+00 0.  1.
        -11    1    4    4    0    0  0.67095322341E-02  0.24112686618E-01  0.64363622486E-01  0.69060672595E-01  0.51100000000E-03 0. -1.
         11    1    4    4    0    0  0.12668375363E-01  0.37550319160E-01  0.50213120684E-01  0.63969780469E-01  0.51100000000E-03 0.  1.
</event>
<event>
 8    1  0.1054086E+005  0.1043930E+01  0.7957747E-01            NaN
         13   -1    0    0    0    0  0.00000000000E+00  0.00000000000E+00  0.74505805969E-08  0.10566000000E+00  0.10566000000E+00 0.  1.
     999900   -1    0    0    0    0 -0.00000000000E+00 -0.00000000000E+00 -0.74505805969E-08  0.93827000000E+00  0.93827000000E+00 0.  1.
     999902    2    1    2    0    0  0.11047686517E-01 -0.97860733693E-02 -0.16628545651E-01  0.10216965311E+01  0.10214545876E+01 0.  0.
     999903    2    3    3    0    0  0.68185540509E-01  0.37967122208E-01  0.10271459250E+00  0.13052433299E+00  0.19888280116E-01 0.  0.
         14    1    1    2    0    0 -0.11047686517E-01  0.97860733693E-02  0.16628545651E-01  0.22233468912E-01  0.00000000000E+00 0.  1.
     999901    1    3    3    0    0 -0.57137853992E-01 -0.47753195577E-01 -0.11934313815E+00  0.89117219810E+00  0.88000000000E+00 0.  1.
        -11    1    4    4    0    0  0.40239132265E-01  0.16730691314E-01  0.70479193461E-01  0.82865442913E-01  0.51100000000E-03 0.  1.
         11    1    4    4    0    0  0.27946408244E-01  0.21236430894E-01  0.32235399039E-01  0.47658890074E-01  0.51100000000E-03 0. -1.
</event>
<event>
 8    1  0.1054086E+005  0.1043930E+01  0.7957747E-01            NaN
         13   -1    0    0    0    0  0.00000000000E+00  0.00000000000E+00  0.74505805969E-08  0.10566000000E+00  0.10566000000E+00 0. -1.
     999900   -1    0    0    0    0 -0.00000000000E+00 -0.00000000000E+00 -0.74505805969E-08  0.93827000000E+00  0.93827000000E+00 0.  1.
     999902    2    1    2    0    0  0.16832140711E-01  0.14683905665E-01  0.36309426524E-02  0.10212998919E+01  0.10210491406E+01 0.  0.
     999903    2    3    3    0    0  0.95716054154E-01  0.90817519430E-01  0.16483603718E-01  0.13440407514E+00  0.19579616073E-01 0.  0.
         14    1    1    2    0    0 -0.16832140711E-01 -0.14683905665E-01 -0.36309426524E-02  0.22630108065E-01  0.00000000000E+00 0. -1.
     999901    1    3    3    0    0 -0.78883913443E-01 -0.76133613765E-01 -0.12852661066E-01  0.88689581679E+00  0.88000000000E+00 0. -1.
        -11    1    4    4    0    0  0.48417256123E-01  0.43967976663E-01  0.17914648420E-01  0.67813047500E-01  0.51100000000E-03 0. -1.
         11    1    4    4    0    0  0.47298798031E-01  0.46849542768E-01 -0.14310447019E-02  0.66591027644E-01  0.51100000000E-03 0.  1.
</event>
<event>
 8    1  0.1054086E+005  0.1043930E+01  0.7957747E-01            NaN
         13   -1    0    0    0    0  0.00000000000E+00  0.00000000000E+00  0.74505805969E-08  0.10566000000E+00  0.10566000000E+00 0. -1.
     999900   -1    0    0    0    0 -0.00000000000E+00 -0.00000000000E+00 -0.74505805969E-08  0.93827000000E+00  0.93827000000E+00 0. -1.
     999902    2    1    2    0    0  0.97782537290E-02  0.21586529973E-01 -0.22764613281E-02  0.10201229675E+01  0.10198451323E+01 0.  0.
     999903    2    3    3    0    0 -0.11753278112E+00  0.52466888212E-01  0.73913293958E-02  0.13037291138E+00  0.19383892121E-01 0.  0.
         14    1    1    2    0    0 -0.97782537290E-02 -0.21586529973E-01  0.22764613281E-02  0.23807032541E-01  0.00000000000E+00 0. -1.
     999901    1    3    3    0    0  0.12731103485E+00 -0.30880358239E-01 -0.96677907239E-02  0.88975005608E+00  0.88000000000E+00 0.  1.
        -11    1    4    4    0    0 -0.33891779522E-01  0.93882140309E-02  0.88854921452E-02  0.36276774575E-01  0.51100000000E-03 0. -1.
         11    1    4    4    0    0 -0.83641001600E-01  0.43078674181E-01 -0.14941627494E-02  0.94096136802E-01  0.51100000000E-03 0.  1.
</event>
<event>
 8    1  0.1054086E+005  0.1043930E+01  0.7957747E-01            NaN
         13   -1    0    0    0    0  0.00000000000E+00  0.00000000000E+00  0.74505805969E-08  0.10566000000E+00  0.10566000000E+00 0.  1.
     999900   -1    0    0    0    0 -0.00000000000E+00 -0.00000000000E+00 -0.74505805969E-08  0.93827000000E+00  0.93827000000E+00 0. -1.
     999902    2    1    2    0    0  0.98745585214E-02  0.16788431103E-01  0.13863012119E-01  0.10200230673E+01  0.10197428678E+01 0.  0.
     999903    2    3    3    0    0 -0.10359831798E+00 -0.71716079391E-01 -0.10819507304E-01  0.12799259204E+00  0.19729022970E-01 0.  0.
         14    1    1    2    0    0 -0.98745585214E-02 -0.16788431103E-01 -0.13863012119E-01  0.23906932674E-01  0.00000000000E+00 0. -1.
     999901    1    3    3    0    0  0.11347287650E+00  0.88504510494E-01  0.24682519423E-01  0.89203047529E+00  0.88000000000E+00 0.  1.
        -11    1    4    4    0    0 -0.44341911214E-01 -0.42660638037E-01 -0.48382116381E-02  0.61723614125E-01  0.51100000000E-03 0. -1.
         11    1    4    4    0    0 -0.59256406762E-01 -0.29055441354E-01 -0.59812956660E-02  0.66268977912E-01  0.51100000000E-03 0.  1.
</event>
<event>
 8    1  0.1054086E+005  0.1043930E+01  0.7957747E-01            NaN
         13   -1    0    0    0    0  0.00000000000E+00  0.00000000000E+00  0.74505805969E-08  0.10566000000E+00  0.10566000000E+00 0. -1.
     999900   -1    0    0    0    0 -0.00000000000E+00 -0.00000000000E+00 -0.74505805969E-08  0.93827000000E+00  0.93827000000E+00 0.  1.
     999902    2    1    2    0    0  0.14211687238E-01  0.14475536500E-01  0.11602671978E-01  0.10205604641E+01  0.10202928627E+01 0.  0.
     999903    2    3    3    0    0  0.36716184156E-01 -0.20304704440E-02 -0.12297624402E+00  0.12989195939E+00  0.19913903001E-01 0.  0.
         14    1    1    2    0    0 -0.14211687238E-01 -0.14475536500E-01 -0.11602671978E-01  0.23369535899E-01  0.00000000000E+00 0. -1.
     999901    1    3    3    0    0 -0.22504496918E-01  0.16506006944E-01  0.13457891600E+00  0.89066850471E+00  0.88000000000E+00 0. -1.
        -11    1    4    4    0    0  0.10792696187E-01 -0.80111916455E-02 -0.60640705501E-01  0.62114553586E-01  0.51100000000E-03 0. -1.
         11    1    4    4    0    0  0.25923487968E-01  0.59807212014E-02 -0.62335538518E-01  0.67777405807E-01  0.51100000000E-03 0.  1.
</event>
<event>
 8    1  0.1054086E+005  0.1043930E+01  0.7957747E-01            NaN
         13   -1    0    0    0    0  0.00000000000E+00  0.00000000000E+00  0.74505805969E-08  0.10566000000E+00  0.10566000000E+00 0.  1.
     999900   -1    0    0    0    0 -0.00000000000E+00 -0.00000000000E+00 -0.74505805969E-08  0.93827000000E+00  0.93827000000E+00 0. -1.
     999902    2    1    2    0    0 -0.13600540364E-02  0.32194594580E-01  0.70129068385E-02  0.10109523935E+01  0.10104143801E+01 0.  0.
     999903    2    3    3    0    0  0.10820270529E+00 -0.24016320028E-01 -0.44059727464E-01  0.12091190055E+00  0.19844874669E-01 0.  0.
         14    1    1    2    0    0  0.13600540364E-02 -0.32194594580E-01 -0.70129068385E-02  0.32977606485E-01  0.00000000000E+00 0.  1.
     999901    1    3    3    0    0 -0.10956275932E+00  0.56210914608E-01  0.51072634302E-01  0.89004049297E+00  0.88000000000E+00 0.  1.
        -11    1    4    4    0    0  0.55097884842E-01 -0.21864420665E-01 -0.19931809293E-01  0.62540930180E-01  0.51100000000E-03 0. -1.
         11    1    4    4    0    0  0.53104820443E-01 -0.21518993632E-02 -0.24127918170E-01  0.58370970366E-01  0.51100000000E-03 0.  1.
</event>
<event>
 8    1  0.1054086E+005  0.1043930E+01  0.7957747E-01            NaN
         13   -1    0    0    0    0  0.00000000000E+00  0.00000000000E+00  0.74505805969E-08  0.10566000000E+00  0.10566000000E+00 0.  1.
     999900   -1    0    0    0    0 -0.00000000000E+00 -0.00000000000E+00 -0.74505805969E-08  0.93827000000E+00  0.93827000000E+00 0.  1.
     999902    2    1    2    0    0  0.14183800452E-02 -0.12873390878E-01 -0.21753344674E-01  0.10186131282E+01  0.10182984636E+01 0.  0.
     999903    2    3    3    0    0 -0.84499175488E-01  0.69150647895E-01  0.62008612890E-01  0.12669057838E+00  0.16837809123E-01 0.  0.
         14    1    1    2    0    0 -0.14183800452E-02  0.12873390878E-01  0.21753344674E-01  0.25316871829E-01  0.00000000000E+00 0.  1.
     999901    1    3    3    0    0  0.85917555534E-01 -0.82024038774E-01 -0.83761957564E-01  0.89192254979E+00  0.88000000000E+00 0. -1.
        -11    1    4    4    0    0 -0.14289027193E-01  0.19875440544E-01  0.10537807078E-01  0.26655504759E-01  0.51100000000E-03 0. -1.
         11    1    4    4    0    0 -0.70210148295E-01  0.49275207352E-01  0.51470805811E-01  0.10003507362E+00  0.51100000000E-03 0.  1.
</event>
<event>
 8    1  0.1054086E+005  0.1043930E+01  0.7957747E-01            NaN
         13   -1    0    0    0    0  0.00000000000E+00  0.00000000000E+00  0.74505805969E-08  0.10566000000E+00  0.10566000000E+00 0. -1.
     999900   -1    0    0    0    0 -0.00000000000E+00 -0.00000000000E+00 -0.74505805969E-08  0.93827000000E+00  0.93827000000E+00 0.  1.
     999902    2    1    2    0    0 -0.15068314787E-01 -0.15316289951E-01  0.13525805741E-01  0.10185412176E+01  0.10182247403E+01 0.  0.
     999903    2    3    3    0    0  0.16461428939E-01 -0.90192281238E-01  0.91848862168E-01  0.13133490569E+00  0.20174680498E-01 0.  0.
         14    1    1    2    0    0  0.15068314787E-01  0.15316289951E-01 -0.13525805741E-01  0.25388782353E-01  0.00000000000E+00 0.  1.
     999901    1    3    3    0    0 -0.31529743727E-01  0.74875991286E-01 -0.78323056428E-01  0.88720631196E+00  0.88000000000E+00 0. -1.
        -11    1    4    4    0    0  0.13117342970E-01 -0.58593249392E-01  0.72466348518E-01  0.94110925771E-01  0.51100000000E-03 0. -1.
         11    1    4    4    0    0  0.33440859697E-02 -0.31599031846E-01  0.19382513650E-01  0.37223979918E-01  0.51100000000E-03 0.  1.
</event>
<event>
 8    1  0.1054086E+005  0.1043930E+01  0.7957747E-01            NaN
         13   -1    0    0    0    0  0.00000000000E+00  0.00000000000E+00  0.74505805969E-08  0.10566000000E+00  0.10566000000E+00 0.  1.
     999900   -1    0    0    0    0 -0.00000000000E+00 -0.00000000000E+00 -0.74505805969E-08  0.93827000000E+00  0.93827000000E+00 0.  1.
     999902    2    1    2    0    0 -0.16526750396E-01 -0.89707827469E-02 -0.17180718888E-01  0.10184587314E+01  0.10181401682E+01 0.  0.
     999903    2    3    3    0    0 -0.11656776234E+00  0.50012400535E-01 -0.24638967782E-01  0.13079728387E+00  0.20287121791E-01 0.  0.
         14    1    1    2    0    0  0.16526750396E-01  0.89707827469E-02  0.17180718888E-01  0.25471268583E-01  0.00000000000E+00 0.  1.
     999901    1    3    3    0    0  0.10004101194E+00 -0.58983183282E-01  0.74582488942E-02  0.88766144754E+00  0.88000000000E+00 0.  1.
        -11    1    4    4    0    0 -0.46496646014E-01  0.25217798757E-01 -0.19178082395E-01  0.56266645804E-01  0.51100000000E-03 0. -1.
         11    1    4    4    0    0 -0.70071116326E-01  0.24794601778E-01 -0.54608853867E-02  0.74530638067E-01  0.51100000000E-03 0.  1.
</event>
<event>
 8    1  0.1054086E+005  0.1043930E+01  0.7957747E-01            NaN
         13   -1    0    0    0    0  0.00000000000E+00  0.00000000000E+00  0.74505805969E-08  0.10566000000E+00  0.10566000000E+00 0. -1.
     999900   -1    0    0    0    0 -0.00000000000E+00 -0.00000000000E+00 -0.74505805969E-08  0.93827000000E+00  0.93827000000E+00 0.  1.
     999902    2    1    2    0    0 -0.11835990644E-01 -0.20655149646E-01 -0.22471633643E-03  0.10201229343E+01  0.10198450984E+01 0.  0.
     999903    2    3    3    0    0 -0.39007430387E-01  0.11791996386E+00  0.80914749136E-02  0.12882584112E+00  0.33225410021E-01 0.  0.
         14    1    1    2    0    0  0.11835990644E-01  0.20655149646E-01  0.22471633643E-03  0.23807065734E-01  0.00000000000E+00 0.  1.
     999901    1    3    3    0    0  0.27171439743E-01 -0.13857511351E+00 -0.83161912500E-02  0.89129709315E+00  0.88000000000E+00 0. -1.
        -11    1    4    4    0    0 -0.22827925480E-01  0.42973150185E-01 -0.10824050669E-01  0.49852051236E-01  0.51100000000E-03 0.  1.
         11    1    4    4    0    0 -0.16179504907E-01  0.74946813674E-01  0.18915525583E-01  0.78973789880E-01  0.51100000000E-03 0. -1.
</event>
<event>
 8    1  0.1054086E+005  0.1043930E+01  0.7957747E-01            NaN
         13   -1    0    0    0    0  0.00000000000E+00  0.00000000000E+00  0.74505805969E-08  0.10566000000E+00  0.10566000000E+00 0. -1.
     999900   -1    0    0    0    0 -0.00000000000E+00 -0.00000000000E+00 -0.74505805969E-08  0.93827000000E+00  0.93827000000E+00 0. -1.
     999902    2    1    2    0    0 -0.13840879470E-01  0.86796694378E-02  0.16471760971E-01  0.10207303122E+01  0.10204666308E+01 0.  0.
     999903    2    3    3    0    0 -0.96074938620E-01 -0.41895805613E-02  0.90573584090E-01  0.13370204978E+00  0.20608676933E-01 0.  0.
         14    1    1    2    0    0  0.13840879470E-01 -0.86796694378E-02 -0.16471760971E-01  0.23199687833E-01  0.00000000000E+00 0.  1.
     999901    1    3    3    0    0  0.82234059151E-01  0.12869249999E-01 -0.74101823119E-01  0.88702826238E+00  0.88000000000E+00 0. -1.
        -11    1    4    4    0    0 -0.70430875772E-01  0.52277192137E-02  0.59738171218E-01  0.92502689322E-01  0.51100000000E-03 0. -1.
         11    1    4    4    0    0 -0.25644062848E-01 -0.94172997750E-02  0.30835412872E-01  0.41199360461E-01  0.51100000000E-03 0.  1.
</event>
<event>
 8    1  0.1054086E+005  0.1043930E+01  0.7957747E-01            NaN
         13   -1    0    0    0    0  0.00000000000E+00  0.00000000000E+00  0.74505805969E-08  0.10566000000E+00  0.10566000000E+00 0.  1.
     999900   -1    0    0    0    0 -0.00000000000E+00 -0.00000000000E+00 -0.74505805969E-08  0.93827000000E+00  0.93827000000E+00 0.  1.
     999902    2    1    2    0    0  0.89702861252E-02  0.21086366207E-01 -0.25223502190E-02  0.10208765160E+01  0.10206161854E+01 0.  0.
     999903    2    3    3    0    0 -0.38179691809E-01 -0.36010312490E-01  0.11699255320E+00  0.12971605725E+00  0.19610367982E-01 0.  0.
         14    1    1    2    0    0 -0.89702861252E-02 -0.21086366207E-01  0.25223502190E-02  0.23053483980E-01  0.00000000000E+00 0. -1.
     999901    1    3    3    0    0  0.47149977935E-01  0.57096678697E-01 -0.11951490342E+00  0.89116045877E+00  0.88000000000E+00 0. -1.
        -11    1    4    4    0    0 -0.27907232821E-01 -0.35029383306E-01  0.10304706136E+00  0.11236026573E+00  0.51100000000E-03 0.  1.
         11    1    4    4    0    0 -0.10272458988E-01 -0.98092918337E-03  0.13945491834E-01  0.17355791518E-01  0.51100000000E-03 0. -1.
</event>
<event>
 8    1  0.1054086E+005  0.1043930E+01  0.7957747E-01            NaN
         13   -1    0    0    0    0  0.00000000000E+00  0.00000000000E+00  0.74505805969E-08  0.10566000000E+00  0.10566000000E+00 0. -1.
     999900   -1    0    0    0    0 -0.00000000000E+00 -0.00000000000E+00 -0.74505805969E-08  0.93827000000E+00  0.93827000000E+00 0.  1.
     999902    2    1    2    0    0  0.12415271007E-01  0.18612549078E-01 -0.45820150086E-02  0.10210922944E+01  0.10208368688E+01 0.  0.
     999903    2    3    3    0    0  0.11284262025E-01  0.98658768714E-01 -0.87124569784E-01  0.13361161862E+00  0.20012165232E-01 0.  0.
         14    1    1    2    0    0 -0.12415271007E-01 -0.18612549078E-01  0.45820150086E-02  0.22837705640E-01  0.00000000000E+00 0.  1.
     999901    1    3    3    0    0  0.11310089818E-02 -0.80046219636E-01  0.82542554775E-01  0.88748067574E+00  0.88000000000E+00 0. -1.
        -11    1    4    4    0    0  0.95625956587E-02  0.39456970071E-01 -0.46803201086E-01  0.61960442831E-01  0.51100000000E-03 0.  1.
         11    1    4    4    0    0  0.17216663663E-02  0.59201798642E-01 -0.40321368698E-01  0.71651175791E-01  0.51100000000E-03 0. -1.
</event>
<event>
 8    1  0.1054086E+005  0.1043930E+01  0.7957747E-01            NaN
         13   -1    0    0    0    0  0.00000000000E+00  0.00000000000E+00  0.74505805969E-08  0.10566000000E+00  0.10566000000E+00 0. -1.
     999900   -1    0    0    0    0 -0.00000000000E+00 -0.00000000000E+00 -0.74505805969E-08  0.93827000000E+00  0.93827000000E+00 0. -1.
     999902    2    1    2    0    0  0.20148771411E-01  0.14109316265E-01  0.11955229234E-02  0.10193032854E+01  0.10190057471E+01 0.  0.
     999903    2    3    3    0    0 -0.64637786080E-02  0.98544225754E-01  0.82978235245E-01  0.13108828118E+00  0.23366751495E-01 0.  0.
         14    1    1    2    0    0 -0.20148771411E-01 -0.14109316265E-01 -0.11955229234E-02  0.24626714558E-01  0.00000000000E+00 0.  1.
     999901    1    3    3    0    0  0.26612550019E-01 -0.84434909489E-01 -0.81782712321E-01  0.88821500426E+00  0.88000000000E+00 0. -1.
        -11    1    4    4    0    0 -0.86349257456E-02  0.56093759720E-01  0.60677098147E-01  0.83084554417E-01  0.51100000000E-03 0. -1.
         11    1    4    4    0    0  0.21711471376E-02  0.42450466035E-01  0.22301137097E-01  0.48003726764E-01  0.51100000000E-03 0.  1.
</event>
<event>
 8    1  0.1054086E+005  0.1043930E+01  0.7957747E-01            NaN
         13   -1    0    0    0    0  0.00000000000E+00  0.00000000000E+00  0.74505805969E-08  0.10566000000E+00  0.10566000000E+00 0. -1.
     999900   -1    0    0    0    0 -0.00000000000E+00 -0.00000000000E+00 -0.74505805969E-08  0.93827000000E+00  0.93827000000E+00 0.  1.
     999902    2    1    2    0    0  0.18391651876E-01 -0.93776523370E-02 -0.90921420643E-02  0.10213720686E+01  0.10211229320E+01 0.  0.
     999903    2    3    3    0    0 -0.59417028938E-01 -0.11450826193E+00  0.13410385722E-01  0.13142094654E+00  0.21192011832E-01 0.  0.
         14    1    1    2    0    0 -0.18391651876E-01  0.93776523370E-02  0.90921420643E-02  0.22557931407E-01  0.00000000000E+00 0. -1.
     999901    1    3    3    0    0  0.77808680814E-01  0.10513060960E+00 -0.22502527786E-01  0.88995112205E+00  0.88000000000E+00 0.  1.
        -11    1    4    4    0    0 -0.55489671857E-01 -0.10377130664E+00  0.60869972814E-02  0.11783420735E+00  0.51100000000E-03 0. -1.
         11    1    4    4    0    0 -0.39273570815E-02 -0.10736955295E-01  0.73233884404E-02  0.13586739193E-01  0.51100000000E-03 0.  1.
</event>
<event>
 7    1  0.1054086E+005  0.1043930E+01  0.7957747E-01            NaN
         13   -1    0    0    0    0  0.00000000000E+00  0.00000000000E+00  0.74505805969E-08  0.10566000000E+00  0.10566000000E+00 0. -1.
     999900   -1    0    0    0    0 -0.00000000000E+00 -0.00000000000E+00 -0.74505805969E-08  0.93827000000E+00  0.93827000000E+00 0. -1.
     999903    2    1    2    0    0 -0.60823947174E-02 -0.78063416753E-01  0.88979308381E-01  0.12045273150E+00  0.21462773449E-01 0.  0.
         14    1    1    2    0    0  0.12826634742E-01  0.32620394124E-01 -0.18057484478E-01  0.39429499328E-01  0.00000000000E+00 0.  1.
     999901    1    1    2    0    0 -0.67442400251E-02  0.45443022629E-01 -0.70921823903E-01  0.88404776918E+00  0.88000000000E+00 0. -1.
        -11    1    3    3    0    0 -0.24943342547E-02 -0.71339408492E-02  0.20250020315E-01  0.21620343642E-01  0.51100000000E-03 0. -1.
         11    1    3    3    0    0 -0.35880604627E-02 -0.70929475904E-01  0.68729288065E-01  0.98832387854E-01  0.51100000000E-03 0.  1.
</event>
<event>
 8    1  0.1054086E+005  0.1043930E+01  0.7957747E-01            NaN
         13   -1    0    0    0    0  0.00000000000E+00  0.00000000000E+00  0.74505805969E-08  0.10566000000E+00  0.10566000000E+00 0. -1.
     999900   -1    0    0    0    0 -0.00000000000E+00 -0.00000000000E+00 -0.74505805969E-08  0.93827000000E+00  0.93827000000E+00 0. -1.
     999902    2    1    2    0    0 -0.44842139054E-02 -0.23131601818E-01  0.86625754939E-03  0.10203518411E+01  0.10200793842E+01 0.  0.
     999903    2    3    3    0    0  0.10999186115E+00 -0.33406807156E-01  0.59340628613E-01  0.13095339060E+00  0.20328699447E-01 0.  0.
         14    1    1    2    0    0  0.44842139054E-02  0.23131601818E-01 -0.86625754939E-03  0.23578158943E-01  0.00000000000E+00 0.  1.
     999901    1    3    3    0    0 -0.11447607506E+00  0.10275205339E-01 -0.58474371063E-01  0.88939845046E+00  0.88000000000E+00 0. -1.
        -11    1    4    4    0    0  0.38393959698E-01 -0.53843814750E-02  0.28454294464E-01  0.48093613917E-01  0.51100000000E-03 0.  1.
         11    1    4    4    0    0  0.71597901454E-01 -0.28022425681E-01  0.30886334149E-01  0.82859776683E-01  0.51100000000E-03 0. -1.
</event>
<event>
 8    1  0.1054086E+005  0.1043930E+01  0.7957747E-01            NaN
         13   -1    0    0    0    0  0.00000000000E+00  0.00000000000E+00  0.74505805969E-08  0.10566000000E+00  0.10566000000E+00 0. -1.
     999900   -1    0    0    0    0 -0.00000000000E+00 -0.00000000000E+00 -0.74505805969E-08  0.93827000000E+00  0.93827000000E+00 0.  1.
     999902    2    1    2    0    0 -0.49677474576E-02 -0.18055859998E-01 -0.16052887392E-01  0.10192644818E+01  0.10189659936E+01 0.  0.
     999903    2    3    3    0    0 -0.11112191822E+00 -0.62084394085E-01  0.22158036773E-01  0.13096988285E+00  0.21437791875E-01 0.  0.
         14    1    1    2    0    0  0.49677474576E-02  0.18055859998E-01  0.16052887392E-01  0.24665518212E-01  0.00000000000E+00 0. -1.
     999901    1    3    3    0    0  0.10615417077E+00  0.44028534087E-01 -0.38210924164E-01  0.88829459894E+00  0.88000000000E+00 0. -1.
        -11    1    4    4    0    0 -0.66397996122E-01 -0.29316102262E-01  0.42672756269E-02  0.72708998777E-01  0.51100000000E-03 0. -1.
         11    1    4    4    0    0 -0.44723922102E-01 -0.32768291823E-01  0.17890761146E-01  0.58260884069E-01  0.51100000000E-03 0.  1.
</event>
<event>
 8    1  0.1054086E+005  0.1043930E+01  0.7957747E-01            NaN
         13   -1    0    0    0    0  0.00000000000E+00  0.00000000000E+00  0.74505805969E-08  0.10566000000E+00  0.10566000000E+00 0.  1.
     999900   -1    0    0    0    0 -0.00000000000E+00 -0.00000000000E+00 -0.74505805969E-08  0.93827000000E+00  0.93827000000E+00 0. -1.
     999902    2    1    2    0    0  0.14331436294E-01  0.71293041836E-02  0.10549185052E-01  0.10247596492E+01  0.10245803220E+01 0.  0.
     999903    2    3    3    0    0  0.93886858690E-01 -0.69557590177E-01 -0.64153607356E-01  0.13470883482E+00  0.19436672932E-01 0.  0.
         14    1    1    2    0    0 -0.14331436294E-01 -0.71293041836E-02 -0.10549185052E-01  0.19170350797E-01  0.00000000000E+00 0.  1.
     999901    1    3    3    0    0 -0.79555422396E-01  0.76686894360E-01  0.74702792408E-01  0.89005081439E+00  0.88000000000E+00 0. -1.
        -11    1    4    4    0    0  0.24879180984E-01 -0.21359321076E-01 -0.87648877123E-02  0.33945229722E-01  0.51100000000E-03 0.  1.
         11    1    4    4    0    0  0.69007677706E-01 -0.48198269101E-01 -0.55388719644E-01  0.10076360509E+00  0.51100000000E-03 0. -1.
</event>
<event>
 8    1  0.1054086E+005  0.1043930E+01  0.7957747E-01            NaN
         13   -1    0    0    0    0  0.00000000000E+00  0.00000000000E+00  0.74505805969E-08  0.10566000000E+00  0.10566000000E+00 0.  1.
     999900   -1    0    0    0    0 -0.00000000000E+00 -0.00000000000E+00 -0.74505805969E-08  0.93827000000E+00  0.93827000000E+00 0.  1.
     999902    2    1    2    0    0  0.21484445054E-01  0.99697568404E-04  0.11456683351E-01  0.10195815522E+01  0.10192907802E+01 0.  0.
     999903    2    3    3    0    0  0.11932158694E-01 -0.10530995726E+00 -0.71554329450E-01  0.12936064151E+00  0.19534328785E-01 0.  0.
         14    1    1    2    0    0 -0.21484445054E-01 -0.99697568404E-04 -0.11456683351E-01  0.24348447842E-01  0.00000000000E+00 0.  1.
     999901    1    3    3    0    0  0.95522863606E-02  0.10540965482E+00  0.83011012801E-01  0.89022091065E+00  0.88000000000E+00 0. -1.
        -11    1    4    4    0    0 -0.39830205068E-02 -0.23137274636E-01 -0.21473694078E-01  0.31821040025E-01  0.51100000000E-03 0. -1.
         11    1    4    4    0    0  0.15915179200E-01 -0.82172682621E-01 -0.50080635372E-01  0.97539601488E-01  0.51100000000E-03 0.  1.
</event>
<event>
 8    1  0.1054086E+005  0.1043930E+01  0.7957747E-01            NaN
         13   -1    0    0    0    0  0.00000000000E+00  0.00000000000E+00  0.74505805969E-08  0.10566000000E+00  0.10566000000E+00 0.  1.
     999900   -1    0    0    0    0 -0.00000000000E+00 -0.00000000000E+00 -0.74505805969E-08  0.93827000000E+00  0.93827000000E+00 0.  1.
     999902    2    1    2    0    0 -0.75497701231E-02  0.20875534468E-01 -0.80753752218E-02  0.10203080049E+01  0.10200345221E+01 0.  0.
     999903    2    3    3    0    0 -0.65819170226E-01 -0.10248556108E+00 -0.38675655479E-01  0.12926947596E+00  0.19476593351E-01 0.  0.
         14    1    1    2    0    0  0.75497701231E-02 -0.20875534468E-01  0.80753752218E-02  0.23621995115E-01  0.00000000000E+00 0.  1.
     999901    1    3    3    0    0  0.58269400103E-01  0.12336109555E+00  0.30600280258E-01  0.89103852893E+00  0.88000000000E+00 0. -1.
        -11    1    4    4    0    0 -0.23460943075E-01 -0.38892549045E-01 -0.24312193421E-01  0.51520773394E-01  0.51100000000E-03 0. -1.
         11    1    4    4    0    0 -0.42358227151E-01 -0.63593012034E-01 -0.14363462058E-01  0.77748702563E-01  0.51100000000E-03 0.  1.
</event>
<event>
 8    1  0.1054086E+005  0.1043930E+01  0.7957747E-01            NaN
         13   -1    0    0    0    0  0.00000000000E+00  0.00000000000E+00  0.74505805969E-08  0.10566000000E+00  0.10566000000E+00 0. -1.
     999900   -1    0    0    0    0 -0.00000000000E+00 -0.00000000000E+00 -0.74505805969E-08  0.93827000000E+00  0.93827000000E+00 0. -1.
     999902    2    1    2    0    0 -0.86996095930E-02  0.20129083592E-01  0.83377923135E-02  0.10204697785E+01  0.10202000719E+01 0.  0.
     999903    2    3    3    0    0  0.35314167912E-01 -0.23344932024E-01 -0.12021744233E+00  0.12898020983E+00  0.19788501274E-01 0.  0.
         14    1    1    2    0    0  0.86996095930E-02 -0.20129083592E-01 -0.83377923135E-02  0.23460221525E-01  0.00000000000E+00 0.  1.
     999901    1    3    3    0    0 -0.44013777505E-01  0.43474015616E-01  0.12855523464E+00  0.89148956864E+00  0.88000000000E+00 0.  1.
        -11    1    4    4    0    0 -0.10847478820E-02 -0.64221087968E-02 -0.14795077090E-01  0.16173298565E-01  0.51100000000E-03 0. -1.
         11    1    4    4    0    0  0.36398915794E-01 -0.16922823227E-01 -0.10542236524E+00  0.11280691127E+00  0.51100000000E-03 0.  1.
</event>
<event>
 8    1  0.1054086E+005  0.1043930E+01  0.7957747E-01            NaN
         13   -1    0    0    0    0  0.00000000000E+00  0.00000000000E+00  0.74505805969E-08  0.10566000000E+00  0.10566000000E+00 0.  1.
     999900   -1    0    0    0    0 -0.00000000000E+00 -0.00000000000E+00 -0.74505805969E-08  0.93827000000E+00  0.93827000000E+00 0.  1.
     999902    2    1    2    0    0 -0.23155090612E-01  0.35406406882E-02  0.31518468877E-02  0.10202946769E+01  0.10200208818E+01 0.  0.
     999903    2    3    3    0    0 -0.30956149570E-01 -0.91951411000E-01  0.86032871606E-01  0.13122277168E+00  0.20110087729E-01 0.  0.
         14    1    1    2    0    0  0.23155090612E-01 -0.35406406882E-02 -0.31518468877E-02  0.23635323068E-01  0.00000000000E+00 0. -1.
     999901    1    3    3    0    0  0.78010589577E-02  0.95492051688E-01 -0.82881024718E-01  0.88907190526E+00  0.88000000000E+00 0.  1.
        -11    1    4    4    0    0 -0.27203537066E-01 -0.65730552393E-01  0.52123004866E-01  0.88190740467E-01  0.51100000000E-03 0.  1.
         11    1    4    4    0    0 -0.37526125040E-02 -0.26220858607E-01  0.33909866740E-01  0.43032031209E-01  0.51100000000E-03 0. -1.
</event>
<event>
 8    1  0.1054086E+005  0.1043930E+01  0.7957747E-01            NaN
         13   -1    0    0    0    0  0.00000000000E+00  0.00000000000E+00  0.74505805969E-08  0.10566000000E+00  0.10566000000E+00 0. -1.
     999900   -1    0    0    0    0 -0.00000000000E+00 -0.00000000000E+00 -0.74505805969E-08  0.93827000000E+00  0.93827000000E+00 0. -1.
     999902    2    1    2    0    0  0.17076679320E-01  0.16311193345E-01  0.28467560415E-02  0.10201440372E+01  0.10198666995E+01 0.  0.
     999903    2    3    3    0    0  0.41434994554E-01 -0.48396459488E-01  0.11233152155E+00  0.13066816812E+00  0.19917915582E-01 0.  0.
         14    1    1    2    0    0 -0.17076679320E-01 -0.16311193345E-01 -0.28467560415E-02  0.23785962770E-01  0.00000000000E+00 0.  1.
     999901    1    3    3    0    0 -0.24358315234E-01  0.64707652833E-01 -0.10948476551E+00  0.88947586911E+00  0.88000000000E+00 0. -1.
        -11    1    4    4    0    0  0.80431281245E-02 -0.22486343678E-01  0.49215133180E-01  0.54705740256E-01  0.51100000000E-03 0. -1.
         11    1    4    4    0    0  0.33391866430E-01 -0.25910115810E-01  0.63116388368E-01  0.75962427861E-01  0.51100000000E-03 0.  1.
</event>
<event>
 8    1  0.1054086E+005  0.1043930E+01  0.7957747E-01            NaN
         13   -1    0    0    0    0  0.00000000000E+00  0.00000000000E+00  0.74505805969E-08  0.10566000000E+00  0.10566000000E+00 0.  1.
     999900   -1    0    0    0    0 -0.00000000000E+00 -0.00000000000E+00 -0.74505805969E-08  0.93827000000E+00  0.93827000000E+00 0. -1.
     999902    2    1    2    0    0  0.21686580580E-01 -0.74897669885E-02  0.19544353636E-02  0.10209034022E+01  0.10206436854E+01 0.  0.
     999903    2    3    3    0    0  0.65006005428E-01  0.11201302886E+00  0.12654062247E-01  0.13170602663E+00  0.20338455723E-01 0.  0.
         14    1    1    2    0    0 -0.21686580580E-01  0.74897669885E-02 -0.19544353636E-02  0.23026597759E-01  0.00000000000E+00 0. -1.
     999901    1    3    3    0    0 -0.43319424849E-01 -0.11950279585E+00 -0.10699626883E-01  0.88919737562E+00  0.88000000000E+00 0. -1.
        -11    1    4    4    0    0  0.21570129647E-01  0.21216002654E-01  0.58764975224E-02  0.30825048349E-01  0.51100000000E-03 0. -1.
         11    1    4    4    0    0  0.43435875781E-01  0.90797026209E-01  0.67775647246E-02  0.10088097828E+00  0.51100000000E-03 0.  1.
</event>
<event>
 8    1  0.1054086E+005  0.1043930E+01  0.7957747E-01            NaN
         13   -1    0    0    0    0  0.00000000000E+00  0.00000000000E+00  0.74505805969E-08  0.10566000000E+00  0.10566000000E+00 0.  1.
     999900   -1    0    0    0    0 -0.00000000000E+00 -0.00000000000E+00 -0.74505805969E-08  0.93827000000E+00  0.93827000000E+00 0. -1.
     999902    2    1    2    0    0 -0.18503777352E-01  0.11721060496E-01  0.42760733439E-02  0.10216127905E+01  0.10213690009E+01 0.  0.
     999903    2    3    3    0    0  0.78866769381E-01  0.10270050734E+00  0.66250537118E-02  0.13157694809E+00  0.22388399030E-01 0.  0.
         14    1    1    2    0    0  0.18503777352E-01 -0.11721060496E-01 -0.42760733439E-02  0.22317209473E-01  0.00000000000E+00 0.  1.
     999901    1    3    3    0    0 -0.97370546732E-01 -0.90979446842E-01 -0.23489803680E-02  0.89003584244E+00  0.88000000000E+00 0. -1.
        -11    1    4    4    0    0  0.66683840983E-01  0.96028443226E-01  0.97904098498E-02  0.11732139533E+00  0.51100000000E-03 0.  1.
         11    1    4    4    0    0  0.12182928398E-01  0.66720641118E-02 -0.31653561379E-02  0.14255552754E-01  0.51100000000E-03 0. -1.
</event>
<event>
 8    1  0.1054086E+005  0.1043930E+01  0.7957747E-01            NaN
         13   -1    0    0    0    0  0.00000000000E+00  0.00000000000E+00  0.74505805969E-08  0.10566000000E+00  0.10566000000E+00 0. -1.
     999900   -1    0    0    0    0 -0.00000000000E+00 -0.00000000000E+00 -0.74505805969E-08  0.93827000000E+00  0.93827000000E+00 0. -1.
     999902    2    1    2    0    0 -0.59903564749E-02  0.20958501074E-01 -0.80135143870E-02  0.10207058843E+01  0.10204416410E+01 0.  0.
     999903    2    3    3    0    0  0.43136768396E-01  0.11025213036E+00  0.55493664800E-01  0.13255049898E+00  0.21766371118E-01 0.  0.
         14    1    1    2    0    0  0.59903564749E-02 -0.20958501074E-01  0.80135143870E-02  0.23224115716E-01  0.00000000000E+00 0. -1.
     999901    1    3    3    0    0 -0.49127124871E-01 -0.89293629284E-01 -0.63507179187E-01  0.88815538530E+00  0.88000000000E+00 0. -1.
        -11    1    4    4    0    0  0.84426183937E-02  0.69129889156E-02  0.19307716090E-02  0.11093070860E-01  0.51100000000E-03 0. -1.
         11    1    4    4    0    0  0.34694150003E-01  0.10333914144E+00  0.53562893191E-01  0.12145742812E+00  0.51100000000E-03 0.  1.
</event>
<event>
 8    1  0.1054086E+005  0.1043930E+01  0.7957747E-01            NaN
         13   -1    0    0    0    0  0.00000000000E+00  0.00000000000E+00  0.74505805969E-08  0.10566000000E+00  0.10566000000E+00 0.  1.
     999900   -1    0    0    0    0 -0.00000000000E+00 -0.00000000000E+00 -0.74505805969E-08  0.93827000000E+00  0.93827000000E+00 0.  1.
     999902    2    1    2    0    0  0.16336431869E-01  0.17415010240E-01 -0.11161884617E-02  0.10200258693E+01  0.10197457362E+01 0.  0.
     999903    2    3    3    0    0  0.32763162181E-01 -0.12159832108E+00  0.18936892977E-01  0.12873653927E+00  0.18839165076E-01 0.  0.
         14    1    1    2    0    0 -0.16336431869E-01 -0.17415010240E-01  0.11161884617E-02  0.23904130700E-01  0.00000000000E+00 0. -1.
     999901    1    3    3    0    0 -0.16426730312E-01  0.13901333132E+00 -0.20053081438E-01  0.89128933003E+00  0.88000000000E+00 0.  1.
        -11    1    4    4    0    0  0.48668772393E-02 -0.44510352459E-02 -0.94515426887E-03  0.66822635697E-02  0.51100000000E-03 0.  1.
         11    1    4    4    0    0  0.27896284942E-01 -0.11714728584E+00  0.19882047245E-01  0.12205427570E+00  0.51100000000E-03 0. -1.
</event>
<event>
 8    1  0.1054086E+005  0.1043930E+01  0.7957747E-01            NaN
         13   -1    0    0    0    0  0.00000000000E+00  0.00000000000E+00  0.74505805969E-08  0.10566000000E+00  0.10566000000E+00 0.  1.
     999900   -1    0    0    0    0 -0.00000000000E+00 -0.00000000000E+00 -0.74505805969E-08  0.93827000000E+00  0.93827000000E+00 0.  1.
     999902    2    1    2    0    0  0.17836472500E-01 -0.20896910201E-02  0.15494897820E-01  0.10202108428E+01  0.10199350790E+01 0.  0.
     999903    2    3    3    0    0  0.10328391941E-01  0.12516857541E+00 -0.28406049347E-01  0.12994215818E+00  0.17441699575E-01 0.  0.
         14    1    1    2    0    0 -0.17836472500E-01  0.20896910201E-02 -0.15494897820E-01  0.23719157199E-01  0.00000000000E+00 0.  1.
     999901    1    3    3    0    0  0.75080805594E-02 -0.12725826643E+00  0.43900947166E-01  0.89026868462E+00  0.88000000000E+00 0. -1.
        -11    1    4    4    0    0  0.10623521417E-01  0.51152926513E-01 -0.59047020012E-02  0.52579537130E-01  0.51100000000E-03 0.  1.
         11    1    4    4    0    0 -0.29512947624E-03  0.74015648895E-01 -0.22501347346E-01  0.77362621053E-01  0.51100000000E-03 0. -1.
</event>
<event>
 8    1  0.1054086E+005  0.1043930E+01  0.7957747E-01            NaN
         13   -1    0    0    0    0  0.00000000000E+00  0.00000000000E+00  0.74505805969E-08  0.10566000000E+00  0.10566000000E+00 0. -1.
     999900   -1    0    0    0    0 -0.00000000000E+00 -0.00000000000E+00 -0.74505805969E-08  0.93827000000E+00  0.93827000000E+00 0.  1.
     999902    2    1    2    0    0  0.86897819558E-02 -0.18255376707E-01 -0.16139151588E-01  0.10180602628E+01  0.10177315242E+01 0.  0.
     999903    2    3    3    0    0  0.50308049617E-01  0.27312092315E-01 -0.11533084300E+00  0.13033988673E+00  0.20259133333E-01 0.  0.
         14    1    1    2    0    0 -0.86897819558E-02  0.18255376707E-01  0.16139151588E-01  0.25869737207E-01  0.00000000000E+00 0. -1.
     999901    1    3    3    0    0 -0.41618267662E-01 -0.45567469022E-01  0.99191691408E-01  0.88772037606E+00  0.88000000000E+00 0.  1.
        -11    1    4    4    0    0  0.91476550302E-02  0.40038005889E-02 -0.72201615620E-02  0.12332958513E-01  0.51100000000E-03 0.  1.
         11    1    4    4    0    0  0.41160394587E-01  0.23308291726E-01 -0.10811068143E+00  0.11800692822E+00  0.51100000000E-03 0. -1.
</event>
<event>
 8    1  0.1054086E+005  0.1043930E+01  0.7957747E-01            NaN
         13   -1    0    0    0    0  0.00000000000E+00  0.00000000000E+00  0.74505805969E-08  0.10566000000E+00  0.10566000000E+00 0. -1.
     999900   -1    0    0    0    0 -0.00000000000E+00 -0.00000000000E+00 -0.74505805969E-08  0.93827000000E+00  0.93827000000E+00 0. -1.
     999902    2    1    2    0    0  0.15501155658E-01  0.10404627764E-01  0.14273504068E-01  0.10204294676E+01  0.10201588226E+01 0.  0.
     999903    2    3    3    0    0  0.58033075746E-02 -0.12654867334E+00 -0.16796396519E-01  0.12924172436E+00  0.19314742441E-01 0.  0.
         14    1    1    2    0    0 -0.15501155658E-01 -0.10404627764E-01 -0.14273504068E-01  0.23500532420E-01  0.00000000000E+00 0. -1.
     999901    1    3    3    0    0  0.96978480833E-02  0.13695330111E+00  0.31069900586E-01  0.89118774322E+00  0.88000000000E+00 0.  1.
        -11    1    4    4    0    0 -0.28062180854E-03 -0.85548686132E-01 -0.31771528148E-02  0.85609648221E-01  0.51100000000E-03 0. -1.
         11    1    4    4    0    0  0.60839293832E-02 -0.40999987213E-01 -0.13619243704E-01  0.43632076140E-01  0.51100000000E-03 0.  1.
</event>
<event>
 8    1  0.1054086E+005  0.1043930E+01  0.7957747E-01            NaN
         13   -1    0    0    0    0  0.00000000000E+00  0.00000000000E+00  0.74505805969E-08  0.10566000000E+00  0.10566000000E+00 0.  1.
     999900   -1    0    0    0    0 -0.00000000000E+00 -0.00000000000E+00 -0.74505805969E-08  0.93827000000E+00  0.93827000000E+00 0.  1.
     999902    2    1    2    0    0  0.12273719904E-01  0.19423908325E-01 -0.50870988702E-02  0.10203968109E+01  0.10201254044E+01 0.  0.
     999903    2    3    3    0    0 -0.39988296860E-01  0.12341992224E+00  0.84062956394E-02  0.13263076006E+00  0.26243315636E-01 0.  0.
         14    1    1    2    0    0 -0.12273719904E-01 -0.19423908325E-01  0.50870988702E-02  0.23533189113E-01  0.00000000000E+00 0. -1.
     999901    1    3    3    0    0  0.52262016765E-01 -0.10399601392E+00 -0.13493394510E-01  0.88776605083E+00  0.88000000000E+00 0.  1.
        -11    1    4    4    0    0 -0.32566377066E-01  0.11965405121E+00  0.84074591240E-02  0.12429242687E+00  0.51100000000E-03 0.  1.
         11    1    4    4    0    0 -0.74219197943E-02  0.37658710274E-02 -0.11634845755E-05  0.83383331897E-02  0.51100000000E-03 0. -1.
</event>
<event>
 8    1  0.1054086E+005  0.1043930E+01  0.7957747E-01            NaN
         13   -1    0    0    0    0  0.00000000000E+00  0.00000000000E+00  0.74505805969E-08  0.10566000000E+00  0.10566000000E+00 0.  1.
     999900   -1    0    0    0    0 -0.00000000000E+00 -0.00000000000E+00 -0.74505805969E-08  0.93827000000E+00  0.93827000000E+00 0.  1.
     999902    2    1    2    0    0 -0.48672569390E-02  0.12562263386E-01 -0.19661858936E-01  0.10200953750E+01  0.10198168879E+01 0.  0.
     999903    2    3    3    0    0 -0.12663521609E+00  0.27711306412E-01 -0.64308125957E-02  0.13148297921E+00  0.21024367143E-01 0.  0.
         14    1    1    2    0    0  0.48672569390E-02 -0.12562263386E-01  0.19661858936E-01  0.23834624988E-01  0.00000000000E+00 0.  1.
     999901    1    3    3    0    0  0.12176795915E+00 -0.15149043026E-01 -0.13231046341E-01  0.88861239580E+00  0.88000000000E+00 0. -1.
        -11    1    4    4    0    0 -0.38382264152E-01  0.14565353364E-01  0.56411952100E-02  0.41441910241E-01  0.51100000000E-03 0. -1.
         11    1    4    4    0    0 -0.88252951942E-01  0.13145953048E-01 -0.12072007806E-01  0.90041068971E-01  0.51100000000E-03 0.  1.
</event>
<event>
 7    1  0.1054086E+005  0.1043930E+01  0.7957747E-01            NaN
         13   -1    0    0    0    0  0.00000000000E+00  0.00000000000E+00  0.74505805969E-08  0.10566000000E+00  0.10566000000E+00 0.  1.
     999900   -1    0    0    0    0 -0.00000000000E+00 -0.00000000000E+00 -0.74505805969E-08  0.93827000000E+00  0.93827000000E+00 0.  1.
     999903    2    1    2    0    0 -0.50469080542E-01 -0.99010571420E-01 -0.19222018139E-01  0.11464528176E+00  0.20587212161E-01 0.  0.
         14    1    1    2    0    0  0.97759275659E-02 -0.34303357520E-01  0.13945928152E-01  0.38298537948E-01  0.00000000000E+00 0.  1.
     999901    1    1    2    0    0  0.40693152977E-01  0.13331392894E+00  0.52760899873E-02  0.89098618029E+00  0.88000000000E+00 0. -1.
        -11    1    3    3    0    0 -0.15895749590E-01 -0.49704918175E-01 -0.14881455499E-01  0.54267601611E-01  0.51100000000E-03 0. -1.
         11    1    3    3    0    0 -0.34573330952E-01 -0.49305653245E-01 -0.43405626400E-02  0.60377680148E-01  0.51100000000E-03 0.  1.
</event>
<event>
 8    1  0.1054086E+005  0.1043930E+01  0.7957747E-01            NaN
         13   -1    0    0    0    0  0.00000000000E+00  0.00000000000E+00  0.74505805969E-08  0.10566000000E+00  0.10566000000E+00 0.  1.
     999900   -1    0    0    0    0 -0.00000000000E+00 -0.00000000000E+00 -0.74505805969E-08  0.93827000000E+00  0.93827000000E+00 0. -1.
     999902    2    1    2    0    0 -0.13314381347E-01 -0.11820467977E-01 -0.17013336803E-01  0.10193037976E+01  0.10190062718E+01 0.  0.
     999903    2    3    3    0    0 -0.38424471075E-01 -0.42882008883E-01  0.11352813039E+00  0.12877787966E+00  0.19488438525E-01 0.  0.
         14    1    1    2    0    0  0.13314381347E-01  0.11820467977E-01  0.17013336803E-01  0.24626202367E-01  0.00000000000E+00 0.  1.
     999901    1    3    3    0    0  0.25110089728E-01  0.31061540906E-01 -0.13054146719E+00  0.89052591798E+00  0.88000000000E+00 0. -1.
        -11    1    4    4    0    0 -0.30607572278E-01 -0.42967983012E-01  0.10205956742E+00  0.11488902240E+00  0.51100000000E-03 0.  1.
         11    1    4    4    0    0 -0.78168987972E-02  0.85974128635E-04  0.11468562965E-01  0.13888857254E-01  0.51100000000E-03 0. -1.
</event>
<event>
 8    1  0.1054086E+005  0.1043930E+01  0.7957747E-01            NaN
         13   -1    0    0    0    0  0.00000000000E+00  0.00000000000E+00  0.74505805969E-08  0.10566000000E+00  0.10566000000E+00 0.  1.
     999900   -1    0    0    0    0 -0.00000000000E+00 -0.00000000000E+00 -0.74505805969E-08  0.93827000000E+00  0.93827000000E+00 0.  1.
     999902    2    1    2    0    0 -0.22641555579E-01 -0.20726885154E-02  0.74621474981E-02  0.10200005261E+01  0.10197197917E+01 0.  0.
     999903    2    3    3    0    0  0.42068513961E-01  0.11613354554E+00  0.32137376160E-01  0.12940018150E+00  0.21326878768E-01 0.  0.
         14    1    1    2    0    0  0.22641555579E-01  0.20726885154E-02 -0.74621474981E-02  0.23929473918E-01  0.00000000000E+00 0. -1.
     999901    1    3    3    0    0 -0.64710069539E-01 -0.11820623406E+00 -0.24675228662E-01  0.89060034459E+00  0.88000000000E+00 0. -1.
        -11    1    4    4    0    0  0.39600439362E-01  0.87390784437E-01  0.19531961906E-01  0.97913751123E-01  0.51100000000E-03 0. -1.
         11    1    4    4    0    0  0.24680745993E-02  0.28742761103E-01  0.12605414254E-01  0.31486430372E-01  0.51100000000E-03 0.  1.
</event>
<event>
 8    1  0.1054086E+005  0.1043930E+01  0.7957747E-01            NaN
         13   -1    0    0    0    0  0.00000000000E+00  0.00000000000E+00  0.74505805969E-08  0.10566000000E+00  0.10566000000E+00 0. -1.
     999900   -1    0    0    0    0 -0.00000000000E+00 -0.00000000000E+00 -0.74505805969E-08  0.93827000000E+00  0.93827000000E+00 0.  1.
     999902    2    1    2    0    0  0.10807057144E-01  0.23521802675E-02  0.20947516629E-01  0.10202419505E+01  0.10199669180E+01 0.  0.
     999903    2    3    3    0    0  0.10696811984E+00  0.46499158438E-01  0.60170035806E-01  0.13303604899E+00  0.21767101907E-01 0.  0.
         14    1    1    2    0    0 -0.10807057144E-01 -0.23521802675E-02 -0.20947516629E-01  0.23688049499E-01  0.00000000000E+00 0.  1.
     999901    1    3    3    0    0 -0.96161062695E-01 -0.44146978171E-01 -0.39222519176E-01  0.88720590151E+00  0.88000000000E+00 0.  1.
        -11    1    4    4    0    0  0.85573389924E-01  0.39426388181E-01  0.57397953908E-01  0.11032692954E+00  0.51100000000E-03 0. -1.
         11    1    4    4    0    0  0.21394729915E-01  0.70727702569E-02  0.27720818981E-02  0.22709119452E-01  0.51100000000E-03 0.  1.
</event>
<event>
 8    1  0.1054086E+005  0.1043930E+01  0.7957747E-01            NaN
         13   -1    0    0    0    0  0.00000000000E+00  0.00000000000E+00  0.74505805969E-08  0.10566000000E+00  0.10566000000E+00 0. -1.
     999900   -1    0    0    0    0 -0.00000000000E+00 -0.00000000000E+00 -0.74505805969E-08  0.93827000000E+00  0.93827000000E+00 0. -1.
     999902    2    1    2    0    0  0.15004834544E-01 -0.16335940086E-01 -0.71590059862E-02  0.10206220751E+01  0.10203558991E+01 0.  0.
     999903    2    3    3    0    0  0.11825539382E+00 -0.43637151145E-01 -0.39421103386E-01  0.13357817703E+00  0.20014166418E-01 0.  0.
         14    1    1    2    0    0 -0.15004834544E-01  0.16335940086E-01  0.71590059862E-02  0.23307924938E-01  0.00000000000E+00 0. -1.
     999901    1    3    3    0    0 -0.10325055928E+00  0.27301211059E-01  0.32262097400E-01  0.88704389804E+00  0.88000000000E+00 0.  1.
        -11    1    4    4    0    0  0.28752020689E-01 -0.19128184327E-01 -0.67183194751E-02  0.35184699329E-01  0.51100000000E-03 0.  1.
         11    1    4    4    0    0  0.89503373132E-01 -0.24508966818E-01 -0.32702783911E-01  0.98393477696E-01  0.51100000000E-03 0. -1.
</event>
<event>
 8    1  0.1054086E+005  0.1043930E+01  0.7957747E-01            NaN
         13   -1    0    0    0    0  0.00000000000E+00  0.00000000000E+00  0.74505805969E-08  0.10566000000E+00  0.10566000000E+00 0.  1.
     999900   -1    0    0    0    0 -0.00000000000E+00 -0.00000000000E+00 -0.74505805969E-08  0.93827000000E+00  0.93827000000E+00 0. -1.
     999902    2    1    2    0    0  0.10400335249E-01 -0.19385858026E-01 -0.60051638385E-02  0.10211256044E+01  0.10208709319E+01 0.  0.
     999903    2    3    3    0    0  0.10950442238E+00 -0.11961364180E-01 -0.71671290082E-01  0.13310038895E+00  0.21086653622E-01 0.  0.
         14    1    1    2    0    0 -0.10400335249E-01  0.19385858026E-01  0.60051638385E-02  0.22804395572E-01  0.00000000000E+00 0.  1.
     999901    1    3    3    0    0 -0.99104087135E-01 -0.74244938454E-02  0.65666126244E-01  0.88802521548E+00  0.88000000000E+00 0.  1.
        -11    1    4    4    0    0  0.13310602246E-01 -0.33734538901E-02 -0.17141622344E-02  0.13847447291E-01  0.51100000000E-03 0.  1.
         11    1    4    4    0    0  0.96193820137E-01 -0.85879102901E-02 -0.69957127848E-01  0.11925294166E+00  0.51100000000E-03 0. -1.
</event>
<event>
 8    1  0.1054086E+005  0.1043930E+01  0.7957747E-01            NaN
         13   -1    0    0    0    0  0.00000000000E+00  0.00000000000E+00  0.74505805969E-08  0.10566000000E+00  0.10566000000E+00 0. -1.
     999900   -1    0    0    0    0 -0.00000000000E+00 -0.00000000000E+00 -0.74505805969E-08  0.93827000000E+00  0.93827000000E+00 0.  1.
     999902    2    1    2    0    0  0.91820783197E-02 -0.78689229236E-02 -0.20783539302E-01  0.10198845011E+01  0.10196010051E+01 0.  0.
     999903    2    3    3    0    0 -0.76573342989E-01 -0.41542281866E-01  0.91481836612E-01  0.12798125412E+00  0.20519184617E-01 0.  0.
         14    1    1    2    0    0 -0.91820783197E-02  0.78689229236E-02  0.20783539302E-01  0.24045498875E-01  0.00000000000E+00 0. -1.
     999901    1    3    3    0    0  0.85755421309E-01  0.33673358943E-01 -0.11226537591E+00  0.89190324700E+00  0.88000000000E+00 0.  1.
        -11    1    4    4    0    0 -0.43360651003E-01 -0.21348498975E-01  0.64763326124E-01  0.80811224440E-01  0.51100000000E-03 0. -1.
         11    1    4    4    0    0 -0.33212691986E-01 -0.20193782891E-01  0.26718510488E-01  0.47170029681E-01  0.51100000000E-03 0.  1.
</event>
<event>
 8    1  0.1054086E+005  0.1043930E+01  0.7957747E-01            NaN
         13   -1    0    0    0    0  0.00000000000E+00  0.00000000000E+00  0.74505805969E-08  0.10566000000E+00  0.10566000000E+00 0.  1.
     999900   -1    0    0    0    0 -0.00000000000E+00 -0.00000000000E+00 -0.74505805969E-08  0.93827000000E+00  0.93827000000E+00 0. -1.
     999902    2    1    2    0    0 -0.87688660257E-02  0.15412812343E-01 -0.15619835599E-01  0.10202989387E+01  0.10200252434E+01 0.  0.
     999903    2    3    3    0    0 -0.37873201560E-01  0.58205517957E-01 -0.11228020388E+00  0.13349484260E+00  0.19793107423E-01 0.  0.
         14    1    1    2    0    0  0.87688660257E-02 -0.15412812343E-01  0.15619835599E-01  0.23631061336E-01  0.00000000000E+00 0.  1.
     999901    1    3    3    0    0  0.29104335535E-01 -0.42792705615E-01  0.96660368276E-01  0.88680409606E+00  0.88000000000E+00 0.  1.
        -11    1    4    4    0    0 -0.25540087803E-01  0.36626897058E-01 -0.53588587441E-01  0.69755454969E-01  0.51100000000E-03 0. -1.
         11    1    4    4    0    0 -0.12333113758E-01  0.21578620900E-01 -0.58691616435E-01  0.63739387631E-01  0.51100000000E-03 0.  1.
</event>
<event>
 8    1  0.1054086E+005  0.1043930E+01  0.7957747E-01            NaN
         13   -1    0    0    0    0  0.00000000000E+00  0.00000000000E+00  0.74505805969E-08  0.10566000000E+00  0.10566000000E+00 0.  1.
     999900   -1    0    0    0    0 -0.00000000000E+00 -0.00000000000E+00 -0.74505805969E-08  0.93827000000E+00  0.93827000000E+00 0.  1.
     999902    2    1    2    0    0  0.60051742249E-02 -0.32155623925E-02 -0.22750407704E-01  0.10201816735E+01  0.10199052231E+01 0.  0.
     999903    2    3    3    0    0  0.10425055198E+00 -0.68590093730E-01 -0.38879717608E-01  0.13215794737E+00  0.19527213467E-01 0.  0.
         14    1    1    2    0    0 -0.60051742249E-02  0.32155623925E-02  0.22750407704E-01  0.23748326460E-01  0.00000000000E+00 0.  1.
     999901    1    3    3    0    0 -0.98245377758E-01  0.65374531338E-01  0.16129309904E-01  0.88802372617E+00  0.88000000000E+00 0. -1.
        -11    1    4    4    0    0  0.96369858877E-01 -0.56081895517E-01 -0.33659225596E-01  0.11647116937E+00  0.51100000000E-03 0.  1.
         11    1    4    4    0    0  0.78806931055E-02 -0.12508198214E-01 -0.52204920112E-02  0.15686778006E-01  0.51100000000E-03 0. -1.
</event>
<event>
 8    1  0.1054086E+005  0.1043930E+01  0.7957747E-01            NaN
         13   -1    0    0    0    0  0.00000000000E+00  0.00000000000E+00  0.74505805969E-08  0.10566000000E+00  0.10566000000E+00 0.  1.
     999900   -1    0    0    0    0 -0.00000000000E+00 -0.00000000000E+00 -0.74505805969E-08  0.93827000000E+00  0.93827000000E+00 0.  1.
     999902    2    1    2    0    0 -0.23420779214E-02  0.19897443058E-01 -0.11554898200E-01  0.10208018950E+01  0.10205398569E+01 0.  0.
     999903    2    3    3    0    0  0.39571856663E-01  0.12394763292E+00  0.18875967173E-01  0.13315936700E+00  0.21122673511E-01 0.  0.
         14    1    1    2    0    0  0.23420779214E-02 -0.19897443058E-01  0.11554898200E-01  0.23128105016E-01  0.00000000000E+00 0.  1.
     999901    1    3    3    0    0 -0.41913934584E-01 -0.10405018986E+00 -0.30430865373E-01  0.88764252799E+00  0.88000000000E+00 0. -1.
        -11    1    4    4    0    0  0.34726271241E-01  0.10552075546E+00  0.23497093855E-01  0.11354698714E+00  0.51100000000E-03 0.  1.
         11    1    4    4    0    0  0.48455854225E-02  0.18426877460E-01 -0.46211266816E-02  0.19612379861E-01  0.51100000000E-03 0. -1.
</event>
<event>
 8    1  0.1054086E+005  0.1043930E+01  0.7957747E-01            NaN
         13   -1    0    0    0    0  0.00000000000E+00  0.00000000000E+00  0.74505805969E-08  0.10566000000E+00  0.10566000000E+00 0. -1.
     999900   -1    0    0    0    0 -0.00000000000E+00 -0.00000000000E+00 -0.74505805969E-08  0.93827000000E+00  0.93827000000E+00 0.  1.
     999902    2    1    2    0    0 -0.22087056300E-01  0.90493563916E-02  0.21604700605E-02  0.10199634287E+01  0.10196818128E+01 0.  0.
     999903    2    3    3    0    0  0.11449331840E+00 -0.44910093720E-01 -0.26213323437E-01  0.12734318857E+00  0.20087629859E-01 0.  0.
         14    1    1    2    0    0  0.22087056300E-01 -0.90493563916E-02 -0.21604700605E-02  0.23966571260E-01  0.00000000000E+00 0. -1.
     999901    1    3    3    0    0 -0.13658037470E+00  0.53959450112E-01  0.28373793497E-01  0.89262024017E+00  0.88000000000E+00 0. -1.
        -11    1    4    4    0    0  0.65766711843E-01 -0.35575569614E-01 -0.11987492887E-01  0.75728743860E-01  0.51100000000E-03 0. -1.
         11    1    4    4    0    0  0.48726606554E-01 -0.93345241068E-02 -0.14225830550E-01  0.51614444707E-01  0.51100000000E-03 0.  1.
</event>
<event>
 8    1  0.1054086E+005  0.1043930E+01  0.7957747E-01            NaN
         13   -1    0    0    0    0  0.00000000000E+00  0.00000000000E+00  0.74505805969E-08  0.10566000000E+00  0.10566000000E+00 0.  1.
     999900   -1    0    0    0    0 -0.00000000000E+00 -0.00000000000E+00 -0.74505805969E-08  0.93827000000E+00  0.93827000000E+00 0. -1.
     999902    2    1    2    0    0 -0.11524033689E-01  0.13771842660E-01 -0.15436379523E-01  0.10202498645E+01  0.10199750180E+01 0.  0.
     999903    2    3    3    0    0  0.58832117185E-01  0.10982632937E+00  0.34544292750E-01  0.13082616349E+00  0.19978394744E-01 0.  0.
         14    1    1    2    0    0  0.11524033689E-01 -0.13771842660E-01  0.15436379523E-01  0.23680135462E-01  0.00000000000E+00 0.  1.
     999901    1    3    3    0    0 -0.70356150874E-01 -0.96054486712E-01 -0.49980672272E-01  0.88942370105E+00  0.88000000000E+00 0. -1.
        -11    1    4    4    0    0  0.10064991948E-01  0.38053295043E-01  0.91998873669E-02  0.40425936911E-01  0.51100000000E-03 0. -1.
         11    1    4    4    0    0  0.48767125237E-01  0.71773034329E-01  0.25344405383E-01  0.90400226580E-01  0.51100000000E-03 0.  1.
</event>
<event>
 8    1  0.1054086E+005  0.1043930E+01  0.7957747E-01            NaN
         13   -1    0    0    0    0  0.00000000000E+00  0.00000000000E+00  0.74505805969E-08  0.10566000000E+00  0.10566000000E+00 0. -1.
     999900   -1    0    0    0    0 -0.00000000000E+00 -0.00000000000E+00 -0.74505805969E-08  0.93827000000E+00  0.93827000000E+00 0.  1.
     999902    2    1    2    0    0  0.13867779617E-01 -0.87207314042E-03  0.19151374595E-01  0.10202688299E+01  0.10199944285E+01 0.  0.
     999903    2    3    3    0    0  0.82987351394E-01 -0.98740688530E-01 -0.15773703796E-01  0.13146314684E+00  0.19927999988E-01 0.  0.
         14    1    1    2    0    0 -0.13867779617E-01  0.87207314042E-03 -0.19151374595E-01  0.23661170130E-01  0.00000000000E+00 0.  1.
     999901    1    3    3    0    0 -0.69119571777E-01  0.97868615390E-01  0.34925078390E-01  0.88880568303E+00  0.88000000000E+00 0. -1.
        -11    1    4    4    0    0  0.40478704188E-01 -0.60366038597E-01 -0.14855158623E-01  0.74185719430E-01  0.51100000000E-03 0. -1.
         11    1    4    4    0    0  0.42508647205E-01 -0.38374649933E-01 -0.91854517262E-03  0.57277427412E-01  0.51100000000E-03 0.  1.
</event>
<event>
 8    1  0.1054086E+005  0.1043930E+01  0.7957747E-01            NaN
         13   -1    0    0    0    0  0.00000000000E+00  0.00000000000E+00  0.74505805969E-08  0.10566000000E+00  0.10566000000E+00 0. -1.
     999900   -1    0    0    0    0 -0.00000000000E+00 -0.00000000000E+00 -0.74505805969E-08  0.93827000000E+00  0.93827000000E+00 0. -1.
     999902    2    1    2    0    0  0.19171464633E-01 -0.61804954777E-02 -0.11409077665E-01  0.10207802563E+01  0.10205177220E+01 0.  0.
     999903    2    3    3    0    0  0.55333449628E-01 -0.93836463921E-01  0.71466884486E-01  0.13181474343E+00  0.20013455419E-01 0.  0.
         14    1    1    2    0    0 -0.19171464633E-01  0.61804954777E-02  0.11409077665E-01  0.23149743706E-01  0.00000000000E+00 0.  1.
     999901    1    3    3    0    0 -0.36161984995E-01  0.87655968444E-01 -0.82875962150E-01  0.88896551287E+00  0.88000000000E+00 0. -1.
        -11    1    4    4    0    0  0.22391863089E-01 -0.40954196822E-01  0.19137420536E-01  0.50449417794E-01  0.51100000000E-03 0.  1.
         11    1    4    4    0    0  0.32941586539E-01 -0.52882267099E-01  0.52329463950E-01  0.81365325634E-01  0.51100000000E-03 0. -1.
</event>
<event>
 8    1  0.1054086E+005  0.1043930E+01  0.7957747E-01            NaN
         13   -1    0    0    0    0  0.00000000000E+00  0.00000000000E+00  0.74505805969E-08  0.10566000000E+00  0.10566000000E+00 0. -1.
     999900   -1    0    0    0    0 -0.00000000000E+00 -0.00000000000E+00 -0.74505805969E-08  0.93827000000E+00  0.93827000000E+00 0.  1.
     999902    2    1    2    0    0 -0.24838535897E-01 -0.98313883422E-02 -0.20605110691E-02  0.10171371881E+01  0.10167842469E+01 0.  0.
     999903    2    3    3    0    0 -0.14674122576E-01 -0.74290847447E-01  0.10211393263E+00  0.12859306886E+00  0.19351026680E-01 0.  0.
         14    1    1    2    0    0  0.24838535897E-01  0.98313883422E-02  0.20605110691E-02  0.26792811874E-01  0.00000000000E+00 0. -1.
     999901    1    3    3    0    0 -0.10164413322E-01  0.64459459105E-01 -0.10417444370E+00  0.88854411927E+00  0.88000000000E+00 0.  1.
        -11    1    4    4    0    0 -0.19422999651E-01 -0.60668249750E-01  0.82094173344E-01  0.10391151939E+00  0.51100000000E-03 0.  1.
         11    1    4    4    0    0  0.47488770749E-02 -0.13622597697E-01  0.20019759285E-01  0.24681549471E-01  0.51100000000E-03 0. -1.
</event>
<event>
 8    1  0.1054086E+005  0.1043930E+01  0.7957747E-01            NaN
         13   -1    0    0    0    0  0.00000000000E+00  0.00000000000E+00  0.74505805969E-08  0.10566000000E+00  0.10566000000E+00 0.  1.
     999900   -1    0    0    0    0 -0.00000000000E+00 -0.00000000000E+00 -0.74505805969E-08  0.93827000000E+00  0.93827000000E+00 0.  1.
     999902    2    1    2    0    0 -0.70187198737E-02 -0.20127854509E-02 -0.22403480809E-01  0.10203666877E+01  0.10200945778E+01 0.  0.
     999903    2    3    3    0    0 -0.94606016197E-01  0.87853822211E-01  0.93778156805E-02  0.13089628772E+00  0.19424271750E-01 0.  0.
         14    1    1    2    0    0  0.70187198737E-02  0.20127854509E-02  0.22403480809E-01  0.23563312295E-01  0.00000000000E+00 0.  1.
     999901    1    3    3    0    0  0.87587296324E-01 -0.89866607662E-01 -0.31781296490E-01  0.88947039999E+00  0.88000000000E+00 0. -1.
        -11    1    4    4    0    0 -0.88431662902E-01  0.78887627999E-01  0.35993208863E-02  0.11856067260E+00  0.51100000000E-03 0. -1.
         11    1    4    4    0    0 -0.61743532958E-02  0.89661942124E-02  0.57784947942E-02  0.12335615119E-01  0.51100000000E-03 0.  1.
</event>
<event>
 8    1  0.1054086E+005  0.1043930E+01  0.7957747E-01            NaN
         13   -1    0    0    0    0  0.00000000000E+00  0.00000000000E+00  0.74505805969E-08  0.10566000000E+00  0.10566000000E+00 0.  1.
     999900   -1    0    0    0    0 -0.00000000000E+00 -0.00000000000E+00 -0.74505805969E-08  0.93827000000E+00  0.93827000000E+00 0. -1.
     999902    2    1    2    0    0 -0.14922700837E-01  0.11464649035E-01  0.15620098881E-01  0.10194736579E+01  0.10191802719E+01 0.  0.
     999903    2    3    3    0    0 -0.70050998381E-01  0.54084674352E-01 -0.93010123399E-01  0.13006030019E+00  0.20796736717E-01 0.  0.
         14    1    1    2    0    0  0.14922700837E-01 -0.11464649035E-01 -0.15620098881E-01  0.24456342057E-01  0.00000000000E+00 0. -1.
     999901    1    3    3    0    0  0.55128297544E-01 -0.42620025317E-01  0.10863022228E+00  0.88941335775E+00  0.88000000000E+00 0.  1.
        -11    1    4    4    0    0 -0.57017185759E-01  0.41017629920E-01 -0.60639808475E-01  0.92794681578E-01  0.51100000000E-03 0.  1.
         11    1    4    4    0    0 -0.13033812622E-01  0.13067044432E-01 -0.32370314924E-01  0.37265618617E-01  0.51100000000E-03 0. -1.
</event>
<event>
 8    1  0.1054086E+005  0.1043930E+01  0.7957747E-01            NaN
         13   -1    0    0    0    0  0.00000000000E+00  0.00000000000E+00  0.74505805969E-08  0.10566000000E+00  0.10566000000E+00 0. -1.
     999900   -1    0    0    0    0 -0.00000000000E+00 -0.00000000000E+00 -0.74505805969E-08  0.93827000000E+00  0.93827000000E+00 0. -1.
     999902    2    1    2    0    0  0.67707324850E-02 -0.99071204980E-02  0.22088335538E-01  0.10187926091E+01  0.10184824456E+01 0.  0.
     999903    2    3    3    0    0 -0.16034385785E-01  0.85473835158E-01 -0.89488139174E-01  0.12634266101E+00  0.19785421751E-01 0.  0.
         14    1    1    2    0    0 -0.67707324850E-02  0.99071204980E-02 -0.22088335538E-01  0.25137390910E-01  0.00000000000E+00 0.  1.
     999901    1    3    3    0    0  0.22805118270E-01 -0.95380955656E-01  0.11157647471E+00  0.89244994808E+00  0.88000000000E+00 0.  1.
        -11    1    4    4    0    0 -0.52693713902E-02  0.68432008517E-01 -0.64022088146E-01  0.93860507968E-01  0.51100000000E-03 0. -1.
         11    1    4    4    0    0 -0.10765014395E-01  0.17041826641E-01 -0.25466051028E-01  0.32482153040E-01  0.51100000000E-03 0.  1.
</event>
<event>
 8    1  0.1054086E+005  0.1043930E+01  0.7957747E-01            NaN
         13   -1    0    0    0    0  0.00000000000E+00  0.00000000000E+00  0.74505805969E-08  0.10566000000E+00  0.10566000000E+00 0.  1.
     999900   -1    0    0    0    0 -0.00000000000E+00 -0.00000000000E+00 -0.74505805969E-08  0.93827000000E+00  0.93827000000E+00 0. -1.
     999902    2    1    2    0    0 -0.19626896752E-01  0.12347515044E-01  0.54835854578E-02  0.10201025806E+01  0.10198242638E+01 0.  0.
     999903    2    3    3    0    0  0.53438109364E-01  0.11389373389E+00  0.30338187498E-01  0.13090750591E+00  0.19721950502E-01 0.  0.
         14    1    1    2    0    0  0.19626896752E-01 -0.12347515044E-01 -0.54835854578E-02  0.23827419360E-01  0.00000000000E+00 0. -1.
     999901    1    3    3    0    0 -0.73065006116E-01 -0.10154621884E+00 -0.24854602040E-01  0.88919507473E+00  0.88000000000E+00 0.  1.
        -11    1    4    4    0    0  0.24495864161E-01  0.34063487054E-01  0.47969289865E-02  0.42233164219E-01  0.51100000000E-03 0.  1.
         11    1    4    4    0    0  0.28942245203E-01  0.79830246835E-01  0.25541258511E-01  0.88674341691E-01  0.51100000000E-03 0. -1.
</event>
<event>
 8    1  0.1054086E+005  0.1043930E+01  0.7957747E-01            NaN
         13   -1    0    0    0    0  0.00000000000E+00  0.00000000000E+00  0.74505805969E-08  0.10566000000E+00  0.10566000000E+00 0.  1.
     999900   -1    0    0    0    0 -0.00000000000E+00 -0.00000000000E+00 -0.74505805969E-08  0.93827000000E+00  0.93827000000E+00 0. -1.
     999902    2    1    2    0    0  0.11426533866E-01  0.19091290521E-01  0.11040995329E-01  0.10190915897E+01  0.10187888503E+01 0.  0.
     999903    2    3    3    0    0 -0.11146252968E+00  0.17565235761E-02  0.61498107927E-01  0.12895219817E+00  0.20485878960E-01 0.  0.
         14    1    1    2    0    0 -0.11426533866E-01 -0.19091290521E-01 -0.11040995329E-01  0.24838410332E-01  0.00000000000E+00 0. -1.
     999901    1    3    3    0    0  0.12288906355E+00  0.17334766945E-01 -0.50457112598E-01  0.89013939150E+00  0.88000000000E+00 0.  1.
        -11    1    4    4    0    0 -0.46752834328E-01  0.70977315319E-02  0.17079064402E-01  0.50280820125E-01  0.51100000000E-03 0. -1.
         11    1    4    4    0    0 -0.64709695352E-01 -0.53412079558E-02  0.44419043525E-01  0.78671378046E-01  0.51100000000E-03 0.  1.
</event>
<event>
 8    1  0.1054086E+005  0.1043930E+01  0.7957747E-01            NaN
         13   -1    0    0    0    0  0.00000000000E+00  0.00000000000E+00  0.74505805969E-08  0.10566000000E+00  0.10566000000E+00 0. -1.
     999900   -1    0    0    0    0 -0.00000000000E+00 -0.00000000000E+00 -0.74505805969E-08  0.93827000000E+00  0.93827000000E+00 0.  1.
     999902    2    1    2    0    0  0.73957721604E-02  0.58124003762E-02 -0.20516624754E-01  0.10213598131E+01  0.10211104027E+01 0.  0.
     999903    2    3    3    0    0  0.96107114196E-02 -0.60536266835E-01  0.11170042531E+00  0.12900988181E+00  0.20237569372E-01 0.  0.
         14    1    1    2    0    0 -0.73957721604E-02 -0.58124003762E-02  0.20516624754E-01  0.22570186869E-01  0.00000000000E+00 0. -1.
     999901    1    3    3    0    0 -0.22149392592E-02  0.66348667211E-01 -0.13221705007E+00  0.89234993132E+00  0.88000000000E+00 0.  1.
        -11    1    4    4    0    0 -0.48273437857E-02 -0.19783020267E-01  0.26090757869E-01  0.33100753860E-01  0.51100000000E-03 0. -1.
         11    1    4    4    0    0  0.14438055205E-01 -0.40753246568E-01  0.85609667442E-01  0.95909127952E-01  0.51100000000E-03 0.  1.
</event>
<event>
 8    1  0.1054086E+005  0.1043930E+01  0.7957747E-01            NaN
         13   -1    0    0    0    0  0.00000000000E+00  0.00000000000E+00  0.74505805969E-08  0.10566000000E+00  0.10566000000E+00 0. -1.
     999900   -1    0    0    0    0 -0.00000000000E+00 -0.00000000000E+00 -0.74505805969E-08  0.93827000000E+00  0.93827000000E+00 0. -1.
     999902    2    1    2    0    0  0.10009925433E-01  0.21310885077E-01 -0.25448069674E-02  0.10202481827E+01  0.10199732966E+01 0.  0.
     999903    2    3    3    0    0  0.87867234269E-01 -0.49901298840E-01  0.79563858868E-01  0.13015000342E+00  0.19945557634E-01 0.  0.
         14    1    1    2    0    0 -0.10009925433E-01 -0.21310885077E-01  0.25448069674E-02  0.23681817338E-01  0.00000000000E+00 0.  1.
     999901    1    3    3    0    0 -0.77857308836E-01  0.71212183917E-01 -0.82108665835E-01  0.89009817924E+00  0.88000000000E+00 0. -1.
        -11    1    4    4    0    0  0.81707569418E-02 -0.71033473991E-02  0.16996913413E-01  0.20158744996E-01  0.51100000000E-03 0.  1.
         11    1    4    4    0    0  0.79696477327E-01 -0.42797951440E-01  0.62566945455E-01  0.10999125843E+00  0.51100000000E-03 0. -1.
</event>
<event>
 8    1  0.1054086E+005  0.1043930E+01  0.7957747E-01            NaN
         13   -1    0    0    0    0  0.00000000000E+00  0.00000000000E+00  0.74505805969E-08  0.10566000000E+00  0.10566000000E+00 0. -1.
     999900   -1    0    0    0    0 -0.00000000000E+00 -0.00000000000E+00 -0.74505805969E-08  0.93827000000E+00  0.93827000000E+00 0.  1.
     999902    2    1    2    0    0  0.37513966438E-02 -0.20186840606E-01 -0.60714421728E-02  0.10225186964E+01  0.10222944980E+01 0.  0.
     999903    2    3    3    0    0 -0.49041117090E-01  0.11834239885E+00  0.97107744607E-02  0.12997935385E+00  0.19758004894E-01 0.  0.
         14    1    1    2    0    0 -0.37513966438E-02  0.20186840606E-01  0.60714421728E-02  0.21411303568E-01  0.00000000000E+00 0.  1.
     999901    1    3    3    0    0  0.52792513733E-01 -0.13852923945E+00 -0.15782216633E-01  0.89253934258E+00  0.88000000000E+00 0.  1.
        -11    1    4    4    0    0 -0.32049360151E-01  0.51697846630E-01  0.37818187620E-02  0.60945812870E-01  0.51100000000E-03 0.  1.
         11    1    4    4    0    0 -0.16991756939E-01  0.66644552216E-01  0.59289556986E-02  0.69033540983E-01  0.51100000000E-03 0. -1.
</event>
<event>
 8    1  0.1054086E+005  0.1043930E+01  0.7957747E-01            NaN
         13   -1    0    0    0    0  0.00000000000E+00  0.00000000000E+00  0.74505805969E-08  0.10566000000E+00  0.10566000000E+00 0. -1.
     999900   -1    0    0    0    0 -0.00000000000E+00 -0.00000000000E+00 -0.74505805969E-08  0.93827000000E+00  0.93827000000E+00 0.  1.
     999902    2    1    2    0    0  0.11453906887E-02  0.23127204579E-01  0.43849054509E-02  0.10203629275E+01  0.10200907297E+01 0.  0.
     999903    2    3    3    0    0 -0.10199351649E-02  0.55746735743E-01  0.11844013937E+00  0.13240047397E+00  0.19826247286E-01 0.  0.
         14    1    1    2    0    0 -0.11453906887E-02 -0.23127204579E-01 -0.43849054509E-02  0.23567072523E-01  0.00000000000E+00 0. -1.
     999901    1    3    3    0    0  0.21653258536E-02 -0.32619531164E-01 -0.11405523392E+00  0.88796245350E+00  0.88000000000E+00 0.  1.
        -11    1    4    4    0    0  0.35190355183E-02  0.14948110997E-01  0.16718072357E-01  0.22706490211E-01  0.51100000000E-03 0. -1.
         11    1    4    4    0    0 -0.45389706832E-02  0.40798624747E-01  0.10172206701E+00  0.10969398376E+00  0.51100000000E-03 0.  1.
</event>
<event>
 8    1  0.1054086E+005  0.1043930E+01  0.7957747E-01            NaN
         13   -1    0    0    0    0  0.00000000000E+00  0.00000000000E+00  0.74505805969E-08  0.10566000000E+00  0.10566000000E+00 0.  1.
     999900   -1    0    0    0    0 -0.00000000000E+00 -0.00000000000E+00 -0.74505805969E-08  0.93827000000E+00  0.93827000000E+00 0. -1.
     999902    2    1    2    0    0  0.62233123793E-02  0.23597894913E-01  0.42871768023E-02  0.10191515790E+01  0.10188503182E+01 0.  0.
     999903    2    3    3    0    0 -0.16688346455E-01  0.30737686996E-01  0.12476996762E+00  0.13061794228E+00  0.16437631081E-01 0.  0.
         14    1    1    2    0    0 -0.62233123793E-02 -0.23597894913E-01 -0.42871768023E-02  0.24778420979E-01  0.00000000000E+00 0.  1.
     999901    1    3    3    0    0  0.22911658834E-01 -0.71397920829E-02 -0.12048279082E+00  0.88853363674E+00  0.88000000000E+00 0. -1.
        -11    1    4    4    0    0 -0.16085958184E-01  0.15811064171E-01  0.58896093800E-01  0.63069475872E-01  0.51100000000E-03 0. -1.
         11    1    4    4    0    0 -0.60238827108E-03  0.14926622824E-01  0.65873873820E-01  0.67548466405E-01  0.51100000000E-03 0.  1.
</event>
<event>
 8    1  0.1054086E+005  0.1043930E+01  0.7957747E-01            NaN
         13   -1    0    0    0    0  0.00000000000E+00  0.00000000000E+00  0.74505805969E-08  0.10566000000E+00  0.10566000000E+00 0.  1.
     999900   -1    0    0    0    0 -0.00000000000E+00 -0.00000000000E+00 -0.74505805969E-08  0.93827000000E+00  0.93827000000E+00 0. -1.
     999902    2    1    2    0    0 -0.44501496983E-02 -0.16618322190E-01 -0.14267269204E-01  0.10215798896E+01  0.10213353726E+01 0.  0.
     999903    2    3    3    0    0 -0.11127760408E+00 -0.27670634202E-01  0.61777901555E-01  0.13179501300E+00  0.20125783589E-01 0.  0.
         14    1    1    2    0    0  0.44501496983E-02  0.16618322190E-01  0.14267269204E-01  0.22350110409E-01  0.00000000000E+00 0. -1.
     999901    1    3    3    0    0  0.10682745438E+00  0.11052312012E-01 -0.76045170759E-01  0.88978487659E+00  0.88000000000E+00 0. -1.
        -11    1    4    4    0    0 -0.51686336921E-01 -0.12733013750E-01  0.17397049617E-01  0.56004691945E-01  0.51100000000E-03 0.  1.
         11    1    4    4    0    0 -0.59591267157E-01 -0.14937620452E-01  0.44380851938E-01  0.75790321057E-01  0.51100000000E-03 0. -1.
</event>
<event>
 8    1  0.1054086E+005  0.1043930E+01  0.7957747E-01            NaN
         13   -1    0    0    0    0  0.00000000000E+00  0.00000000000E+00  0.74505805969E-08  0.10566000000E+00  0.10566000000E+00 0.  1.
     999900   -1    0    0    0    0 -0.00000000000E+00 -0.00000000000E+00 -0.74505805969E-08  0.93827000000E+00  0.93827000000E+00 0.  1.
     999902    2    1    2    0    0 -0.11596116441E-01 -0.16899268794E-01 -0.11360733506E-01  0.10204966591E+01  0.10202275774E+01 0.  0.
     999903    2    3    3    0    0  0.10934253161E+00 -0.20717609205E-01  0.62425335554E-01  0.12915771100E+00  0.19994580315E-01 0.  0.
         14    1    1    2    0    0  0.11596116441E-01  0.16899268794E-01  0.11360733506E-01  0.23433340950E-01  0.00000000000E+00 0.  1.
     999901    1    3    3    0    0 -0.12093864805E+00  0.38183404111E-02 -0.73786069060E-01  0.89133894805E+00  0.88000000000E+00 0.  1.
        -11    1    4    4    0    0  0.73680405487E-01 -0.11040301033E-01  0.31188371483E-01  0.80769214658E-01  0.51100000000E-03 0.  1.
         11    1    4    4    0    0  0.35662126126E-01 -0.96773081716E-02  0.31236964071E-01  0.48388496347E-01  0.51100000000E-03 0. -1.
</event>
<event>
 8    1  0.1170116E+005  0.1043930E+01  0.7957747E-01            NaN
         13   -1    0    0    0    0  0.00000000000E+00  0.00000000000E+00  0.74505805969E-08  0.10566000000E+00  0.10566000000E+00 0.  1.
     999900   -1    0    0    0    0 -0.00000000000E+00 -0.00000000000E+00 -0.74505805969E-08  0.93827000000E+00  0.93827000000E+00 0.  1.
     999902    2    1    2    0    0 -0.17456134811E-01 -0.48197262569E-02  0.13824341398E-01  0.10211471376E+01  0.10208929512E+01 0.  0.
     999903    2    3    3    0    0 -0.50174010849E-01  0.36611471238E-01  0.11665055698E+00  0.13358855692E+00  0.19512019497E-01 0.  0.
         14    1    1    2    0    0  0.17456134811E-01  0.48197262569E-02 -0.13824341398E-01  0.22782862393E-01  0.00000000000E+00 0. -1.
     999901    1    3    3    0    0  0.32717876037E-01 -0.41431197495E-01 -0.10282621558E+00  0.88755858069E+00  0.88000000000E+00 0.  1.
        -11    1    4    4    0    0 -0.14386003070E-01  0.14618486291E-02  0.33276261931E-01  0.36285876245E-01  0.51100000000E-03 0.  1.
         11    1    4    4    0    0 -0.35788007778E-01  0.35149622609E-01  0.83374295051E-01  0.97302680675E-01  0.51100000000E-03 0. -1.
</event>
<event>
 7    1  0.1054086E+005  0.1043930E+01  0.7957747E-01            NaN
         13   -1    0    0    0    0  0.00000000000E+00  0.00000000000E+00  0.74505805969E-08  0.10566000000E+00  0.10566000000E+00 0.  1.
     999900   -1    0    0    0    0 -0.00000000000E+00 -0.00000000000E+00 -0.74505805969E-08  0.93827000000E+00  0.93827000000E+00 0. -1.
     999903    2    1    2    0    0  0.14295247723E-01  0.76266891960E-02 -0.50692709993E-01  0.57062828520E-01  0.20588711877E-01 0.  0.
         14    1    1    2    0    0  0.56592184626E-01 -0.47512994201E-01 -0.61350546470E-01  0.96041915489E-01  0.00000000000E+00 0. -1.
     999901    1    1    2    0    0 -0.70887432349E-01  0.39886305005E-01  0.11204325646E+00  0.89082525599E+00  0.88000000000E+00 0. -1.
        -11    1    3    3    0    0 -0.25452537978E-03  0.97652111370E-02 -0.10947268218E-01  0.14680869666E-01  0.51100000000E-03 0.  1.
         11    1    3    3    0    0  0.14549773103E-01 -0.21385219410E-02 -0.39745441774E-01  0.42381958854E-01  0.51100000000E-03 0. -1.
</event>
<event>
 8    1  0.1054086E+005  0.1043930E+01  0.7957747E-01            NaN
         13   -1    0    0    0    0  0.00000000000E+00  0.00000000000E+00  0.74505805969E-08  0.10566000000E+00  0.10566000000E+00 0. -1.
     999900   -1    0    0    0    0 -0.00000000000E+00 -0.00000000000E+00 -0.74505805969E-08  0.93827000000E+00  0.93827000000E+00 0.  1.
     999902    2    1    2    0    0 -0.15499679789E-01  0.19181824569E-01 -0.12958476338E-02  0.10192346221E+01  0.10189354019E+01 0.  0.
     999903    2    3    3    0    0  0.70358794031E-01  0.95814748474E-01 -0.49891385817E-01  0.13041191265E+00  0.19679701687E-01 0.  0.
         14    1    1    2    0    0  0.15499679789E-01 -0.19181824569E-01  0.12958476338E-02  0.24695377876E-01  0.00000000000E+00 0.  1.
     999901    1    3    3    0    0 -0.85858473820E-01 -0.76632923905E-01  0.48595538183E-01  0.88882270948E+00  0.88000000000E+00 0. -1.
        -11    1    4    4    0    0  0.28854286716E-01  0.42753280173E-01 -0.11411217400E-01  0.52828873081E-01  0.51100000000E-03 0.  1.
         11    1    4    4    0    0  0.41504507315E-01  0.53061468301E-01 -0.38480168416E-01  0.77583039565E-01  0.51100000000E-03 0. -1.
</event>
<event>
 8    1  0.1054086E+005  0.1043930E+01  0.7957747E-01            NaN
         13   -1    0    0    0    0  0.00000000000E+00  0.00000000000E+00  0.74505805969E-08  0.10566000000E+00  0.10566000000E+00 0.  1.
     999900   -1    0    0    0    0 -0.00000000000E+00 -0.00000000000E+00 -0.74505805969E-08  0.93827000000E+00  0.93827000000E+00 0.  1.
     999902    2    1    2    0    0 -0.23112494323E-01 -0.22863309028E-02 -0.31108768072E-02  0.10204972823E+01  0.10202282151E+01 0.  0.
     999903    2    3    3    0    0 -0.39297322395E-02  0.87233411622E-01  0.94713647919E-01  0.13035605741E+00  0.19922743367E-01 0.  0.
         14    1    1    2    0    0  0.23112494323E-01  0.22863309028E-02  0.31108768072E-02  0.23432717669E-01  0.00000000000E+00 0. -1.
     999901    1    3    3    0    0 -0.19182762084E-01 -0.89519742525E-01 -0.97824524726E-01  0.89014122492E+00  0.88000000000E+00 0.  1.
        -11    1    4    4    0    0 -0.10519331096E-01  0.63911868662E-01  0.62213858726E-01  0.89812073916E-01  0.51100000000E-03 0.  1.
         11    1    4    4    0    0  0.65895988563E-02  0.23321542960E-01  0.32499789193E-01  0.40543983496E-01  0.51100000000E-03 0. -1.
</event>
<event>
 8    1  0.1054086E+005  0.1043930E+01  0.7957747E-01            NaN
         13   -1    0    0    0    0  0.00000000000E+00  0.00000000000E+00  0.74505805969E-08  0.10566000000E+00  0.10566000000E+00 0. -1.
     999900   -1    0    0    0    0 -0.00000000000E+00 -0.00000000000E+00 -0.74505805969E-08  0.93827000000E+00  0.93827000000E+00 0.  1.
     999902    2    1    2    0    0 -0.17466049404E-01 -0.14723146507E-01 -0.68135834690E-02  0.10200918196E+01  0.10198132484E+01 0.  0.
     999903    2    3    3    0    0  0.66241721015E-01  0.67879495569E-01  0.79605304461E-01  0.12807253086E+00  0.32710505045E-01 0.  0.
         14    1    1    2    0    0  0.17466049404E-01  0.14723146507E-01  0.68135834690E-02  0.23838180394E-01  0.00000000000E+00 0.  1.
     999901    1    3    3    0    0 -0.83707770419E-01 -0.82602642076E-01 -0.86418887930E-01  0.89201928875E+00  0.88000000000E+00 0. -1.
        -11    1    4    4    0    0  0.17921332786E-01  0.10023807236E-01  0.34715787532E-01  0.40337301661E-01  0.51100000000E-03 0.  1.
         11    1    4    4    0    0  0.48320388229E-01  0.57855688333E-01  0.44889516929E-01  0.87735229197E-01  0.51100000000E-03 0. -1.
</event>
<event>
 8    1  0.1054086E+005  0.1043930E+01  0.7957747E-01            NaN
         13   -1    0    0    0    0  0.00000000000E+00  0.00000000000E+00  0.74505805969E-08  0.10566000000E+00  0.10566000000E+00 0.  1.
     999900   -1    0    0    0    0 -0.00000000000E+00 -0.00000000000E+00 -0.74505805969E-08  0.93827000000E+00  0.93827000000E+00 0.  1.
     999902    2    1    2    0    0 -0.22966410635E-02  0.14555929009E-01 -0.18880356962E-01  0.10199796867E+01  0.10196984572E+01 0.  0.
     999903    2    3    3    0    0  0.88138771559E-01  0.89878959404E-01  0.23939980042E-01  0.13111203397E+00  0.27759186066E-01 0.  0.
         14    1    1    2    0    0  0.22966410635E-02 -0.14555929009E-01  0.18880356962E-01  0.23950313328E-01  0.00000000000E+00 0.  1.
     999901    1    3    3    0    0 -0.90435412623E-01 -0.75323030395E-01 -0.42820337004E-01  0.88886765270E+00  0.88000000000E+00 0. -1.
        -11    1    4    4    0    0  0.41266341098E-01  0.60221270969E-01  0.82734812159E-02  0.73472607121E-01  0.51100000000E-03 0. -1.
         11    1    4    4    0    0  0.46872430462E-01  0.29657688435E-01  0.15666498826E-01  0.57639426846E-01  0.51100000000E-03 0.  1.
</event>
<event>
 8    1  0.1054086E+005  0.1043930E+01  0.7957747E-01            NaN
         13   -1    0    0    0    0  0.00000000000E+00  0.00000000000E+00  0.74505805969E-08  0.10566000000E+00  0.10566000000E+00 0.  1.
     999900   -1    0    0    0    0 -0.00000000000E+00 -0.00000000000E+00 -0.74505805969E-08  0.93827000000E+00  0.93827000000E+00 0.  1.
     999902    2    1    2    0    0  0.20187672128E-01 -0.63556627549E-02  0.14768202099E-01  0.10181223200E+01  0.10177951769E+01 0.  0.
     999903    2    3    3    0    0 -0.53629324310E-01  0.94133600894E-01 -0.61523924558E-01  0.12606428954E+00  0.19229471167E-01 0.  0.
         14    1    1    2    0    0 -0.20187672128E-01  0.63556627549E-02 -0.14768202099E-01  0.25807680025E-01  0.00000000000E+00 0.  1.
     999901    1    3    3    0    0  0.73816996438E-01 -0.10048926365E+00  0.76292126657E-01  0.89205803043E+00  0.88000000000E+00 0. -1.
        -11    1    4    4    0    0 -0.14066706439E-01  0.15061164677E-01 -0.18648826099E-01  0.27798394690E-01  0.51100000000E-03 0. -1.
         11    1    4    4    0    0 -0.39562617870E-01  0.79072436217E-01 -0.42875098459E-01  0.98265894852E-01  0.51100000000E-03 0.  1.
</event>
<event>
 8    1  0.1054086E+005  0.1043930E+01  0.7957747E-01            NaN
         13   -1    0    0    0    0  0.00000000000E+00  0.00000000000E+00  0.74505805969E-08  0.10566000000E+00  0.10566000000E+00 0. -1.
     999900   -1    0    0    0    0 -0.00000000000E+00 -0.00000000000E+00 -0.74505805969E-08  0.93827000000E+00  0.93827000000E+00 0. -1.
     999902    2    1    2    0    0 -0.23728794001E-01  0.46856787935E-02  0.72529717655E-03  0.10197321219E+01  0.10194449779E+01 0.  0.
     999903    2    3    3    0    0 -0.29945607851E-01 -0.72505619797E-02  0.12553797977E+00  0.13082305544E+00  0.20138952101E-01 0.  0.
         14    1    1    2    0    0  0.23728794001E-01 -0.46856787935E-02 -0.72529717655E-03  0.24197878140E-01  0.00000000000E+00 0.  1.
     999901    1    3    3    0    0  0.62168138504E-02  0.11936240773E-01 -0.12481268260E+00  0.88890906642E+00  0.88000000000E+00 0. -1.
        -11    1    4    4    0    0 -0.84066463882E-02 -0.56403730210E-02  0.77375767200E-01  0.78036888598E-01  0.51100000000E-03 0. -1.
         11    1    4    4    0    0 -0.21538961463E-01 -0.16101889587E-02  0.48162212574E-01  0.52786166847E-01  0.51100000000E-03 0.  1.
</event>
<event>
 8    1  0.1054086E+005  0.1043930E+01  0.7957747E-01            NaN
         13   -1    0    0    0    0  0.00000000000E+00  0.00000000000E+00  0.74505805969E-08  0.10566000000E+00  0.10566000000E+00 0. -1.
     999900   -1    0    0    0    0 -0.00000000000E+00 -0.00000000000E+00 -0.74505805969E-08  0.93827000000E+00  0.93827000000E+00 0. -1.
     999902    2    1    2    0    0 -0.13253731588E-01 -0.15265217676E-01 -0.13255576363E-01  0.10197556629E+01  0.10194690841E+01 0.  0.
     999903    2    3    3    0    0 -0.17472130753E-01 -0.41733860721E-01 -0.12294768743E+00  0.13254050113E+00  0.20096271118E-01 0.  0.
         14    1    1    2    0    0  0.13253731588E-01  0.15265217676E-01  0.13255576363E-01  0.24174337145E-01  0.00000000000E+00 0. -1.
     999901    1    3    3    0    0  0.42183991654E-02  0.26468643045E-01  0.10969211107E+00  0.88721516172E+00  0.88000000000E+00 0.  1.
        -11    1    4    4    0    0 -0.10567100163E-01 -0.40458775052E-01 -0.96498313742E-01  0.10517015623E+00  0.51100000000E-03 0.  1.
         11    1    4    4    0    0 -0.69050305903E-02 -0.12750856688E-02 -0.26449373688E-01  0.27370344909E-01  0.51100000000E-03 0. -1.
</event>
<event>
 8    1  0.1054086E+005  0.1043930E+01  0.7957747E-01            NaN
         13   -1    0    0    0    0  0.00000000000E+00  0.00000000000E+00  0.74505805969E-08  0.10566000000E+00  0.10566000000E+00 0. -1.
     999900   -1    0    0    0    0 -0.00000000000E+00 -0.00000000000E+00 -0.74505805969E-08  0.93827000000E+00  0.93827000000E+00 0.  1.
     999902    2    1    2    0    0 -0.48788407904E-03  0.61909488600E-02  0.22833539187E-01  0.10202670249E+01  0.10199925812E+01 0.  0.
     999903    2    3    3    0    0 -0.33476256176E-01 -0.76321785009E-01 -0.94955624720E-01  0.12798294958E+00  0.20430127802E-01 0.  0.
         14    1    1    2    0    0  0.48788407904E-03 -0.61909488600E-02 -0.22833539187E-01  0.23662975098E-01  0.00000000000E+00 0.  1.
     999901    1    3    3    0    0  0.32988372097E-01  0.82512733869E-01  0.11778916391E+00  0.89228407532E+00  0.88000000000E+00 0. -1.
        -11    1    4    4    0    0 -0.12286804014E-01 -0.51724032186E-01 -0.62841184830E-01  0.82314134207E-01  0.51100000000E-03 0. -1.
         11    1    4    4    0    0 -0.21189452161E-01 -0.24597752823E-01 -0.32114439890E-01  0.45668815370E-01  0.51100000000E-03 0.  1.
</event>
<event>
 8    1  0.1054086E+005  0.1043930E+01  0.7957747E-01            NaN
         13   -1    0    0    0    0  0.00000000000E+00  0.00000000000E+00  0.74505805969E-08  0.10566000000E+00  0.10566000000E+00 0.  1.
     999900   -1    0    0    0    0 -0.00000000000E+00 -0.00000000000E+00 -0.74505805969E-08  0.93827000000E+00  0.93827000000E+00 0. -1.
     999902    2    1    2    0    0  0.13088416496E-01  0.15612743760E-01 -0.10779870322E-01  0.10208807046E+01  0.10206204696E+01 0.  0.
     999903    2    3    3    0    0  0.12970705353E+00  0.21732522670E-01  0.25436432408E-02  0.13306604252E+00  0.20096747835E-01 0.  0.
         14    1    1    2    0    0 -0.13088416496E-01 -0.15612743760E-01  0.10779870322E-01  0.23049295396E-01  0.00000000000E+00 0.  1.
     999901    1    3    3    0    0 -0.11661863703E+00 -0.61197789097E-02 -0.13323513563E-01  0.88781466208E+00  0.88000000000E+00 0.  1.
        -11    1    4    4    0    0  0.74662627376E-01  0.19599591028E-01 -0.55190340920E-02  0.77391037940E-01  0.51100000000E-03 0.  1.
         11    1    4    4    0    0  0.55044426155E-01  0.21329316424E-02  0.80626773328E-02  0.55675004579E-01  0.51100000000E-03 0. -1.
</event>
<event>
 8    1  0.1054086E+005  0.1043930E+01  0.7957747E-01            NaN
         13   -1    0    0    0    0  0.00000000000E+00  0.00000000000E+00  0.74505805969E-08  0.10566000000E+00  0.10566000000E+00 0. -1.
     999900   -1    0    0    0    0 -0.00000000000E+00 -0.00000000000E+00 -0.74505805969E-08  0.93827000000E+00  0.93827000000E+00 0. -1.
     999902    2    1    2    0    0 -0.19874560624E-01  0.65790576692E-02  0.10688382325E-01  0.10204241778E+01  0.10201534095E+01 0.  0.
     999903    2    3    3    0    0 -0.51510142893E-01 -0.92893831649E-02 -0.11773078726E+00  0.13039940254E+00  0.20096727447E-01 0.  0.
         14    1    1    2    0    0  0.19874560624E-01 -0.65790576692E-02 -0.10688382325E-01  0.23505822184E-01  0.00000000000E+00 0.  1.
     999901    1    3    3    0    0  0.31635582269E-01  0.15868440834E-01  0.12841916959E+00  0.89002477527E+00  0.88000000000E+00 0.  1.
        -11    1    4    4    0    0 -0.95421168321E-02 -0.27405548179E-02 -0.45761500904E-01  0.46828823606E-01  0.51100000000E-03 0. -1.
         11    1    4    4    0    0 -0.41968026061E-01 -0.65488283470E-02 -0.71969286359E-01  0.83570578939E-01  0.51100000000E-03 0.  1.
</event>
<event>
 8    1  0.1054086E+005  0.1043930E+01  0.7957747E-01            NaN
         13   -1    0    0    0    0  0.00000000000E+00  0.00000000000E+00  0.74505805969E-08  0.10566000000E+00  0.10566000000E+00 0. -1.
     999900   -1    0    0    0    0 -0.00000000000E+00 -0.00000000000E+00 -0.74505805969E-08  0.93827000000E+00  0.93827000000E+00 0. -1.
     999902    2    1    2    0    0 -0.14151310693E-01 -0.19440661542E-01 -0.11265009689E-02  0.10198578601E+01  0.10195737280E+01 0.  0.
     999903    2    3    3    0    0  0.47962299362E-01  0.11519878442E+00  0.14169182165E-01  0.12732223677E+00  0.20953380667E-01 0.  0.
         14    1    1    2    0    0  0.14151310693E-01  0.19440661542E-01  0.11265009689E-02  0.24072139913E-01  0.00000000000E+00 0. -1.
     999901    1    3    3    0    0 -0.62113610055E-01 -0.13463944596E+00 -0.15295683134E-01  0.89253562331E+00  0.88000000000E+00 0. -1.
        -11    1    4    4    0    0  0.40404895103E-02  0.26286774074E-01 -0.26642462525E-02  0.26733487909E-01  0.51100000000E-03 0. -1.
         11    1    4    4    0    0  0.43921809852E-01  0.88912010347E-01  0.16833428418E-01  0.10058874886E+00  0.51100000000E-03 0.  1.
</event>
<event>
 8    1  0.1054086E+005  0.1043930E+01  0.7957747E-01            NaN
         13   -1    0    0    0    0  0.00000000000E+00  0.00000000000E+00  0.74505805969E-08  0.10566000000E+00  0.10566000000E+00 0. -1.
     999900   -1    0    0    0    0 -0.00000000000E+00 -0.00000000000E+00 -0.74505805969E-08  0.93827000000E+00  0.93827000000E+00 0. -1.
     999902    2    1    2    0    0 -0.19837249898E-01 -0.78338706994E-02 -0.95585680921E-02  0.10205579603E+01  0.10202903009E+01 0.  0.
     999903    2    3    3    0    0 -0.99122567358E-01  0.78923016259E-01 -0.32963958731E-01  0.13243593533E+00  0.19963179539E-01 0.  0.
         14    1    1    2    0    0  0.19837249898E-01  0.78338706994E-02  0.95585680921E-02  0.23372039655E-01  0.00000000000E+00 0.  1.
     999901    1    3    3    0    0  0.79285317460E-01 -0.86756886959E-01  0.23405390639E-01  0.88812202501E+00  0.88000000000E+00 0.  1.
        -11    1    4    4    0    0 -0.47561214030E-01  0.30790642654E-01 -0.62288514299E-02  0.57001688275E-01  0.51100000000E-03 0. -1.
         11    1    4    4    0    0 -0.51561353329E-01  0.48132373605E-01 -0.26735107301E-01  0.75434247059E-01  0.51100000000E-03 0.  1.
</event>
<event>
 8    1  0.1054086E+005  0.1043930E+01  0.7957747E-01            NaN
         13   -1    0    0    0    0  0.00000000000E+00  0.00000000000E+00  0.74505805969E-08  0.10566000000E+00  0.10566000000E+00 0. -1.
     999900   -1    0    0    0    0 -0.00000000000E+00 -0.00000000000E+00 -0.74505805969E-08  0.93827000000E+00  0.93827000000E+00 0. -1.
     999902    2    1    2    0    0 -0.17340113505E-01  0.41079091591E-02 -0.15123564321E-01  0.10205574381E+01  0.10202897665E+01 0.  0.
     999903    2    3    3    0    0 -0.87786542709E-01  0.94583744356E-01  0.14168836056E-02  0.13296397111E+00  0.32013251598E-01 0.  0.
         14    1    1    2    0    0  0.17340113505E-01 -0.41079091591E-02  0.15123564321E-01  0.23372561943E-01  0.00000000000E+00 0. -1.
     999901    1    3    3    0    0  0.70446429205E-01 -0.90475835197E-01 -0.16540447927E-01  0.88759346694E+00  0.88000000000E+00 0.  1.
        -11    1    4    4    0    0 -0.52485356479E-01  0.67862333907E-01  0.14015413660E-01  0.86929292814E-01  0.51100000000E-03 0.  1.
         11    1    4    4    0    0 -0.35301186230E-01  0.26721410450E-01 -0.12598530054E-01  0.46034678300E-01  0.51100000000E-03 0. -1.
</event>
<event>
 8    1  0.1054086E+005  0.1043930E+01  0.7957747E-01            NaN
         13   -1    0    0    0    0  0.00000000000E+00  0.00000000000E+00  0.74505805969E-08  0.10566000000E+00  0.10566000000E+00 0.  1.
     999900   -1    0    0    0    0 -0.00000000000E+00 -0.00000000000E+00 -0.74505805969E-08  0.93827000000E+00  0.93827000000E+00 0. -1.
     999902    2    1    2    0    0  0.15427988826E-01  0.11498254693E-01 -0.74230777027E-02  0.10233063538E+01  0.10230985089E+01 0.  0.
     999903    2    3    3    0    0 -0.10481754388E+00  0.64622680942E-01  0.43354595047E-01  0.13209394093E+00  0.20158867071E-01 0.  0.
         14    1    1    2    0    0 -0.15427988826E-01 -0.11498254693E-01  0.74230777027E-02  0.20623646205E-01  0.00000000000E+00 0. -1.
     999901    1    3    3    0    0  0.12024553270E+00 -0.53124426249E-01 -0.50777672750E-01  0.89121241287E+00  0.88000000000E+00 0. -1.
        -11    1    4    4    0    0 -0.62593078574E-01  0.45209015132E-01  0.35398219103E-01  0.84941412581E-01  0.51100000000E-03 0. -1.
         11    1    4    4    0    0 -0.42224465303E-01  0.19413665810E-01  0.79563759434E-02  0.47152528347E-01  0.51100000000E-03 0.  1.
</event>
<event>
 8    1  0.1054086E+005  0.1043930E+01  0.7957747E-01            NaN
         13   -1    0    0    0    0  0.00000000000E+00  0.00000000000E+00  0.74505805969E-08  0.10566000000E+00  0.10566000000E+00 0. -1.
     999900   -1    0    0    0    0 -0.00000000000E+00 -0.00000000000E+00 -0.74505805969E-08  0.93827000000E+00  0.93827000000E+00 0.  1.
     999902    2    1    2    0    0  0.26642858758E-01  0.57014382956E-02 -0.17836507901E-01  0.10113648448E+01  0.10108404226E+01 0.  0.
     999903    2    3    3    0    0  0.94477790201E-01 -0.77607486485E-01 -0.15270723044E-01  0.12482745800E+00  0.19993111058E-01 0.  0.
         14    1    1    2    0    0 -0.26642858758E-01 -0.57014382956E-02  0.17836507901E-01  0.32565155236E-01  0.00000000000E+00 0. -1.
     999901    1    3    3    0    0 -0.67834931443E-01  0.83308924780E-01 -0.25657848570E-02  0.88653738676E+00  0.88000000000E+00 0. -1.
        -11    1    4    4    0    0  0.42219067496E-01 -0.46296547305E-01 -0.12142994597E-01  0.63824238275E-01  0.51100000000E-03 0. -1.
         11    1    4    4    0    0  0.52258722705E-01 -0.31310939179E-01 -0.31277284466E-02  0.61003219729E-01  0.51100000000E-03 0.  1.
</event>
<event>
 8    1  0.1054086E+005  0.1043930E+01  0.7957747E-01            NaN
         13   -1    0    0    0    0  0.00000000000E+00  0.00000000000E+00  0.74505805969E-08  0.10566000000E+00  0.10566000000E+00 0. -1.
     999900   -1    0    0    0    0 -0.00000000000E+00 -0.00000000000E+00 -0.74505805969E-08  0.93827000000E+00  0.93827000000E+00 0.  1.
     999902    2    1    2    0    0  0.22891646100E-01  0.77087478688E-02  0.59995804992E-03  0.10197677939E+01  0.10194815061E+01 0.  0.
     999903    2    3    3    0    0  0.13127896824E+00  0.56095821178E-02 -0.69252953239E-02  0.13308360685E+00  0.19941208151E-01 0.  0.
         14    1    1    2    0    0 -0.22891646100E-01 -0.77087478688E-02 -0.59995804992E-03  0.24162206119E-01  0.00000000000E+00 0.  1.
     999901    1    3    3    0    0 -0.10838732214E+00  0.20991657510E-02  0.75252533738E-02  0.88668418703E+00  0.88000000000E+00 0.  1.
        -11    1    4    4    0    0  0.73013014634E-01 -0.18612867195E-02  0.47370727712E-02  0.73191978206E-01  0.51100000000E-03 0.  1.
         11    1    4    4    0    0  0.58265953606E-01  0.74708688373E-02 -0.11662368095E-01  0.59891628641E-01  0.51100000000E-03 0. -1.
</event>
<event>
 8    1  0.1054086E+005  0.1043930E+01  0.7957747E-01            NaN
         13   -1    0    0    0    0  0.00000000000E+00  0.00000000000E+00  0.74505805969E-08  0.10566000000E+00  0.10566000000E+00 0. -1.
     999900   -1    0    0    0    0 -0.00000000000E+00 -0.00000000000E+00 -0.74505805969E-08  0.93827000000E+00  0.93827000000E+00 0.  1.
     999902    2    1    2    0    0  0.12904794384E-01  0.33337465759E-02  0.19503684906E-01  0.10203071020E+01  0.10200335980E+01 0.  0.
     999903    2    3    3    0    0  0.30302103305E-01 -0.12416862042E+00  0.20584291800E-01  0.13094739545E+00  0.19683585695E-01 0.  0.
         14    1    1    2    0    0 -0.12904794384E-01 -0.33337465759E-02 -0.19503684906E-01  0.23622897986E-01  0.00000000000E+00 0.  1.
     999901    1    3    3    0    0 -0.17397308921E-01  0.12750236699E+00 -0.10806068943E-02  0.88935970656E+00  0.88000000000E+00 0.  1.
        -11    1    4    4    0    0  0.15928223497E-01 -0.91645383148E-01  0.21092715642E-01  0.95382117455E-01  0.51100000000E-03 0.  1.
         11    1    4    4    0    0  0.14373879808E-01 -0.32523237268E-01 -0.50842384168E-03  0.35565277996E-01  0.51100000000E-03 0. -1.
</event>
<event>
 8    1  0.1054086E+005  0.1043930E+01  0.7957747E-01            NaN
         13   -1    0    0    0    0  0.00000000000E+00  0.00000000000E+00  0.74505805969E-08  0.10566000000E+00  0.10566000000E+00 0.  1.
     999900   -1    0    0    0    0 -0.00000000000E+00 -0.00000000000E+00 -0.74505805969E-08  0.93827000000E+00  0.93827000000E+00 0.  1.
     999902    2    1    2    0    0  0.13953359379E-01  0.76497854499E-03  0.19506214743E-01  0.10199347121E+01  0.10196524128E+01 0.  0.
     999903    2    3    3    0    0 -0.72033823289E-01  0.79160857850E-01 -0.67476354057E-01  0.12802346268E+00  0.19535494034E-01 0.  0.
         14    1    1    2    0    0 -0.13953359379E-01 -0.76497854499E-03 -0.19506214743E-01  0.23995287949E-01  0.00000000000E+00 0. -1.
     999901    1    3    3    0    0  0.85987182668E-01 -0.78395879305E-01  0.86982568800E-01  0.89191124937E+00  0.88000000000E+00 0. -1.
        -11    1    4    4    0    0 -0.15579702395E-01  0.30229418283E-01 -0.23340337778E-01  0.41250179939E-01  0.51100000000E-03 0. -1.
         11    1    4    4    0    0 -0.56454120893E-01  0.48931439567E-01 -0.44136016279E-01  0.86773282743E-01  0.51100000000E-03 0.  1.
</event>
<event>
 8    1  0.1054086E+005  0.1043930E+01  0.7957747E-01            NaN
         13   -1    0    0    0    0  0.00000000000E+00  0.00000000000E+00  0.74505805969E-08  0.10566000000E+00  0.10566000000E+00 0. -1.
     999900   -1    0    0    0    0 -0.00000000000E+00 -0.00000000000E+00 -0.74505805969E-08  0.93827000000E+00  0.93827000000E+00 0.  1.
     999902    2    1    2    0    0  0.13941546880E-01 -0.87203289747E-02 -0.17616567528E-01  0.10198311552E+01  0.10195463849E+01 0.  0.
     999903    2    3    3    0    0 -0.31830580006E-01 -0.79857661645E-01 -0.98378416772E-01  0.13209353411E+00  0.19492483663E-01 0.  0.
         14    1    1    2    0    0 -0.13941546880E-01  0.87203289747E-02  0.17616567528E-01  0.24098844751E-01  0.00000000000E+00 0. -1.
     999901    1    3    3    0    0  0.45772126886E-01  0.71137332670E-01  0.80761849244E-01  0.88773762114E+00  0.88000000000E+00 0. -1.
        -11    1    4    4    0    0 -0.10184289437E-01 -0.37158291045E-01 -0.31085552977E-01  0.49507888964E-01  0.51100000000E-03 0. -1.
         11    1    4    4    0    0 -0.21646290569E-01 -0.42699370600E-01 -0.67292863795E-01  0.82585645143E-01  0.51100000000E-03 0.  1.
</event>
<event>
 8    1  0.1054086E+005  0.1043930E+01  0.7957747E-01            NaN
         13   -1    0    0    0    0  0.00000000000E+00  0.00000000000E+00  0.74505805969E-08  0.10566000000E+00  0.10566000000E+00 0. -1.
     999900   -1    0    0    0    0 -0.00000000000E+00 -0.00000000000E+00 -0.74505805969E-08  0.93827000000E+00  0.93827000000E+00 0.  1.
     999902    2    1    2    0    0  0.81653802560E-02 -0.52302273749E-03  0.21942115023E-01  0.10205119856E+01  0.10202432599E+01 0.  0.
     999903    2    3    3    0    0  0.10775549297E+00 -0.62760802621E-01 -0.34512536318E-01  0.13091721298E+00  0.19950861641E-01 0.  0.
         14    1    1    2    0    0 -0.81653802560E-02  0.52302273749E-03 -0.21942115023E-01  0.23418014416E-01  0.00000000000E+00 0.  1.
     999901    1    3    3    0    0 -0.99590112710E-01  0.62237779883E-01  0.56454651341E-01  0.88959477261E+00  0.88000000000E+00 0.  1.
        -11    1    4    4    0    0  0.88260587554E-01 -0.52216348424E-01 -0.36028046097E-01  0.10869572018E+00  0.51100000000E-03 0.  1.
         11    1    4    4    0    0  0.19494905412E-01 -0.10544454197E-01  0.15155097787E-02  0.22221492799E-01  0.51100000000E-03 0. -1.
</event>
<event>
 8    1  0.1054086E+005  0.1043930E+01  0.7957747E-01            NaN
         13   -1    0    0    0    0  0.00000000000E+00  0.00000000000E+00  0.74505805969E-08  0.10566000000E+00  0.10566000000E+00 0.  1.
     999900   -1    0    0    0    0 -0.00000000000E+00 -0.00000000000E+00 -0.74505805969E-08  0.93827000000E+00  0.93827000000E+00 0. -1.
     999902    2    1    2    0    0 -0.10045880566E-01  0.14165393133E-01  0.13443463674E-01  0.10219685612E+01  0.10217325654E+01 0.  0.
     999903    2    3    3    0    0 -0.12216318034E+00  0.33696550401E-01  0.39687474616E-01  0.13425210696E+00  0.19728974644E-01 0.  0.
         14    1    1    2    0    0  0.10045880566E-01 -0.14165393133E-01 -0.13443463674E-01  0.21961438808E-01  0.00000000000E+00 0. -1.
     999901    1    3    3    0    0  0.11211729977E+00 -0.19531157268E-01 -0.26244010942E-01  0.88771645424E+00  0.88000000000E+00 0.  1.
        -11    1    4    4    0    0 -0.88514875165E-01  0.20509487314E-01  0.19782973360E-01  0.92990049744E-01  0.51100000000E-03 0.  1.
         11    1    4    4    0    0 -0.33648305176E-01  0.13187063086E-01  0.19904501256E-01  0.41262057211E-01  0.51100000000E-03 0. -1.
</event>
<event>
 8    1  0.1054086E+005  0.1043930E+01  0.7957747E-01            NaN
         13   -1    0    0    0    0  0.00000000000E+00  0.00000000000E+00  0.74505805969E-08  0.10566000000E+00  0.10566000000E+00 0.  1.
     999900   -1    0    0    0    0 -0.00000000000E+00 -0.00000000000E+00 -0.74505805969E-08  0.93827000000E+00  0.93827000000E+00 0. -1.
     999902    2    1    2    0    0 -0.24845562119E-01 -0.17388821679E-01  0.87423936915E-02  0.10123689081E+01  0.10118768223E+01 0.  0.
     999903    2    3    3    0    0 -0.57010660436E-02 -0.11083863220E+00  0.55935382310E-01  0.12595672573E+00  0.20460332859E-01 0.  0.
         14    1    1    2    0    0  0.24845562119E-01  0.17388821679E-01 -0.87423936915E-02  0.31561091931E-01  0.00000000000E+00 0. -1.
     999901    1    3    3    0    0 -0.19144496076E-01  0.93449810524E-01 -0.47192988619E-01  0.88641218233E+00  0.88000000000E+00 0. -1.
        -11    1    4    4    0    0  0.73082247719E-02 -0.44829918389E-01  0.19370288750E-01  0.49382192533E-01  0.51100000000E-03 0. -1.
         11    1    4    4    0    0 -0.13009290815E-01 -0.66008713815E-01  0.36565093560E-01  0.76574533202E-01  0.51100000000E-03 0.  1.
</event>
<event>
 8    1  0.1054086E+005  0.1043930E+01  0.7957747E-01            NaN
         13   -1    0    0    0    0  0.00000000000E+00  0.00000000000E+00  0.74505805969E-08  0.10566000000E+00  0.10566000000E+00 0.  1.
     999900   -1    0    0    0    0 -0.00000000000E+00 -0.00000000000E+00 -0.74505805969E-08  0.93827000000E+00  0.93827000000E+00 0. -1.
     999902    2    1    2    0    0  0.22776185811E-01  0.81894255625E-02  0.60179897446E-03  0.10197187734E+01  0.10194313088E+01 0.  0.
     999903    2    3    3    0    0  0.81906236960E-01  0.62685126795E-01  0.80756238117E-01  0.13242464037E+00  0.19407694580E-01 0.  0.
         14    1    1    2    0    0 -0.22776185811E-01 -0.81894255625E-02 -0.60179897446E-03  0.24211226593E-01  0.00000000000E+00 0.  1.
     999901    1    3    3    0    0 -0.59130051149E-01 -0.54495701232E-01 -0.80154439143E-01  0.88729413303E+00  0.88000000000E+00 0.  1.
        -11    1    4    4    0    0  0.71468264550E-01  0.46066167553E-01  0.61625365970E-01  0.10501310148E+00  0.51100000000E-03 0.  1.
         11    1    4    4    0    0  0.10437972410E-01  0.16618959241E-01  0.19130872147E-01  0.27411538891E-01  0.51100000000E-03 0. -1.
</event>
<event>
 8    1  0.1054086E+005  0.1043930E+01  0.7957747E-01            NaN
         13   -1    0    0    0    0  0.00000000000E+00  0.00000000000E+00  0.74505805969E-08  0.10566000000E+00  0.10566000000E+00 0.  1.
     999900   -1    0    0    0    0 -0.00000000000E+00 -0.00000000000E+00 -0.74505805969E-08  0.93827000000E+00  0.93827000000E+00 0. -1.
     999902    2    1    2    0    0 -0.20908338446E-01 -0.13161380231E-01 -0.60315089892E-02  0.10184985304E+01  0.10181809745E+01 0.  0.
     999903    2    3    3    0    0  0.37673630732E-01 -0.12251092574E+00  0.18902580600E-02  0.12976239147E+00  0.20161244669E-01 0.  0.
         14    1    1    2    0    0  0.20908338446E-01  0.13161380231E-01  0.60315089892E-02  0.25431469616E-01  0.00000000000E+00 0.  1.
     999901    1    3    3    0    0 -0.58581969177E-01  0.10934954551E+00 -0.79217670492E-02  0.88873613891E+00  0.88000000000E+00 0. -1.
        -11    1    4    4    0    0  0.29389321567E-01 -0.69274216790E-01 -0.51307580447E-02  0.75427018589E-01  0.51100000000E-03 0. -1.
         11    1    4    4    0    0  0.82843091649E-02 -0.53236708950E-01  0.70210161047E-02  0.54335372883E-01  0.51100000000E-03 0.  1.
</event>
<event>
 8    1  0.1054086E+005  0.1043930E+01  0.7957747E-01            NaN
         13   -1    0    0    0    0  0.00000000000E+00  0.00000000000E+00  0.74505805969E-08  0.10566000000E+00  0.10566000000E+00 0. -1.
     999900   -1    0    0    0    0 -0.00000000000E+00 -0.00000000000E+00 -0.74505805969E-08  0.93827000000E+00  0.93827000000E+00 0.  1.
     999902    2    1    2    0    0 -0.20193570846E-02 -0.94042208017E-02  0.22388330823E-01  0.10195629212E+01  0.10192716987E+01 0.  0.
     999903    2    3    3    0    0 -0.10459785354E+00 -0.52698665715E-01  0.57169812209E-01  0.13186561449E+00  0.20057231219E-01 0.  0.
         14    1    1    2    0    0  0.20193570846E-02  0.94042208017E-02 -0.22388330823E-01  0.24367078794E-01  0.00000000000E+00 0.  1.
     999901    1    3    3    0    0  0.10257849646E+00  0.43294444913E-01 -0.34781481385E-01  0.88769730671E+00  0.88000000000E+00 0. -1.
        -11    1    4    4    0    0 -0.92139649024E-01 -0.40626750464E-01  0.53855595193E-01  0.11419690902E+00  0.51100000000E-03 0. -1.
         11    1    4    4    0    0 -0.12458204518E-01 -0.12071915250E-01  0.33142170151E-02  0.17668705472E-01  0.51100000000E-03 0.  1.
</event>
<event>
 8    1  0.1054086E+005  0.1043930E+01  0.7957747E-01            NaN
         13   -1    0    0    0    0  0.00000000000E+00  0.00000000000E+00  0.74505805969E-08  0.10566000000E+00  0.10566000000E+00 0. -1.
     999900   -1    0    0    0    0 -0.00000000000E+00 -0.00000000000E+00 -0.74505805969E-08  0.93827000000E+00  0.93827000000E+00 0. -1.
     999902    2    1    2    0    0 -0.17229019105E-02 -0.24086987162E-01  0.24278929562E-03  0.10197802528E+01  0.10194942637E+01 0.  0.
     999903    2    3    3    0    0  0.61325623217E-01  0.73451481111E-01  0.82985021352E-01  0.12830106279E+00  0.20462082104E-01 0.  0.
         14    1    1    2    0    0  0.17229019105E-02  0.24086987162E-01 -0.24278929562E-03  0.24149747166E-01  0.00000000000E+00 0. -1.
     999901    1    3    3    0    0 -0.63048525127E-01 -0.97538468274E-01 -0.82742232057E-01  0.89147919004E+00  0.88000000000E+00 0. -1.
        -11    1    4    4    0    0  0.48125220682E-01  0.57070765934E-01  0.52534698985E-01  0.91286718138E-01  0.51100000000E-03 0. -1.
         11    1    4    4    0    0  0.13200402535E-01  0.16380715177E-01  0.30450322367E-01  0.37014344652E-01  0.51100000000E-03 0.  1.
</event>
<event>
 8    1  0.1054086E+005  0.1043930E+01  0.7957747E-01            NaN
         13   -1    0    0    0    0  0.00000000000E+00  0.00000000000E+00  0.74505805969E-08  0.10566000000E+00  0.10566000000E+00 0. -1.
     999900   -1    0    0    0    0 -0.00000000000E+00 -0.00000000000E+00 -0.74505805969E-08  0.93827000000E+00  0.93827000000E+00 0.  1.
     999902    2    1    2    0    0 -0.14821809917E-01  0.11257218615E-01 -0.14038748232E-01  0.10206169678E+01  0.10203506737E+01 0.  0.
     999903    2    3    3    0    0 -0.11408238750E+00  0.66162773501E-01 -0.27022926330E-02  0.13326371373E+00  0.18963419397E-01 0.  0.
         14    1    1    2    0    0  0.14821809917E-01 -0.11257218615E-01  0.14038748232E-01  0.23313032237E-01  0.00000000000E+00 0. -1.
     999901    1    3    3    0    0  0.99260577587E-01 -0.54905554886E-01 -0.11336455599E-01  0.88735325403E+00  0.88000000000E+00 0. -1.
        -11    1    4    4    0    0 -0.78285282080E-01  0.41038170451E-01 -0.98799434871E-02  0.88941504533E-01  0.51100000000E-03 0. -1.
         11    1    4    4    0    0 -0.35797105424E-01  0.25124603051E-01  0.71776508541E-02  0.44322209196E-01  0.51100000000E-03 0.  1.
</event>
<event>
 7    1  0.1054086E+005  0.1043930E+01  0.7957747E-01            NaN
         13   -1    0    0    0    0  0.00000000000E+00  0.00000000000E+00  0.74505805969E-08  0.10566000000E+00  0.10566000000E+00 0. -1.
     999900   -1    0    0    0    0 -0.00000000000E+00 -0.00000000000E+00 -0.74505805969E-08  0.93827000000E+00  0.93827000000E+00 0. -1.
     999902    2    1    2    0    0  0.13965155716E-01  0.10091390782E-01 -0.15635900115E-01  0.10206632186E+01  0.10203979923E+01 0.  0.
         14    1    1    2    0    0 -0.13965155716E-01 -0.10091390782E-01  0.15635900115E-01  0.23266781352E-01  0.00000000000E+00 0. -1.
     999901    1    3    3    0    0  0.81930476916E-01  0.39081746066E-01 -0.11471154459E+00  0.89207551496E+00  0.88000000000E+00 0. -1.
        -11    1    3    3    0    0 -0.31882191490E-01  0.31310076909E-02  0.52351877956E-01  0.61377989458E-01  0.51100000000E-03 0.  1.
         11    1    3    3    0    0 -0.36083129710E-01 -0.32121362975E-01  0.46723766515E-01  0.67209714233E-01  0.51100000000E-03 0. -1.
</event>
<event>
 8    1  0.1054086E+005  0.1043930E+01  0.7957747E-01            NaN
         13   -1    0    0    0    0  0.00000000000E+00  0.00000000000E+00  0.74505805969E-08  0.10566000000E+00  0.10566000000E+00 0. -1.
     999900   -1    0    0    0    0 -0.00000000000E+00 -0.00000000000E+00 -0.74505805969E-08  0.93827000000E+00  0.93827000000E+00 0. -1.
     999902    2    1    2    0    0 -0.79710342397E-03  0.17564742206E-01  0.13422349334E-01  0.10218095343E+01  0.10215700707E+01 0.  0.
     999903    2    3    3    0    0  0.11394966408E+00 -0.60248868527E-01  0.11224396871E-01  0.13095230122E+00  0.20200643750E-01 0.  0.
         14    1    1    2    0    0  0.79710342397E-03 -0.17564742206E-01 -0.13422349334E-01  0.22120465733E-01  0.00000000000E+00 0.  1.
     999901    1    3    3    0    0 -0.11474676751E+00  0.77813610733E-01  0.21979524631E-02  0.89085723304E+00  0.88000000000E+00 0. -1.
        -11    1    4    4    0    0  0.64125404111E-01 -0.42235574782E-01 -0.33152768273E-04  0.76786544717E-01  0.51100000000E-03 0. -1.
         11    1    4    4    0    0  0.49824259970E-01 -0.18013293746E-01  0.11257549639E-01  0.54165756508E-01  0.51100000000E-03 0.  1.
</event>
<event>
 8    1  0.1054086E+005  0.1043930E+01  0.7957747E-01            NaN
         13   -1    0    0    0    0  0.00000000000E+00  0.00000000000E+00  0.74505805969E-08  0.10566000000E+00  0.10566000000E+00 0. -1.
     999900   -1    0    0    0    0 -0.00000000000E+00 -0.00000000000E+00 -0.74505805969E-08  0.93827000000E+00  0.93827000000E+00 0.  1.
     999902    2    1    2    0    0 -0.13909214233E-01 -0.16854095371E-01  0.84320455685E-02  0.10205072298E+01  0.10202383937E+01 0.  0.
     999903    2    3    3    0    0  0.26427283533E-03  0.27665903757E-01 -0.12468330820E+00  0.12927066442E+00  0.19987627800E-01 0.  0.
         14    1    1    2    0    0  0.13909214233E-01  0.16854095371E-01 -0.84320455685E-02  0.23422770199E-01  0.00000000000E+00 0. -1.
     999901    1    3    3    0    0 -0.14173487068E-01 -0.44519999128E-01  0.13311535377E+00  0.89123656538E+00  0.88000000000E+00 0. -1.
        -11    1    4    4    0    0 -0.53701006366E-02  0.24558612202E-01 -0.73498090763E-01  0.77680073899E-01  0.51100000000E-03 0. -1.
         11    1    4    4    0    0  0.56343734719E-02  0.31072915542E-02 -0.51185217439E-01  0.51590590523E-01  0.51100000000E-03 0.  1.
</event>
<event>
 8    1  0.1054086E+005  0.1043930E+01  0.7957747E-01            NaN
         13   -1    0    0    0    0  0.00000000000E+00  0.00000000000E+00  0.74505805969E-08  0.10566000000E+00  0.10566000000E+00 0. -1.
     999900   -1    0    0    0    0 -0.00000000000E+00 -0.00000000000E+00 -0.74505805969E-08  0.93827000000E+00  0.93827000000E+00 0.  1.
     999902    2    1    2    0    0  0.21203671698E-01 -0.91244778512E-02  0.71628055080E-02  0.10197606481E+01  0.10194741889E+01 0.  0.
     999903    2    3    3    0    0  0.88863558562E-01  0.60150843996E-01  0.75703295668E-01  0.13179965271E+00  0.11193900369E-01 0.  0.
         14    1    1    2    0    0 -0.21203671698E-01  0.91244778512E-02 -0.71628055080E-02  0.24169351921E-01  0.00000000000E+00 0.  1.
     999901    1    3    3    0    0 -0.67659886864E-01 -0.69275321847E-01 -0.68540490160E-01  0.88796099537E+00  0.88000000000E+00 0.  1.
        -11    1    4    4    0    0  0.74868814536E-01  0.55232492831E-01  0.64728467887E-01  0.11334021056E+00  0.51100000000E-03 0.  1.
         11    1    4    4    0    0  0.13994744026E-01  0.49183511654E-02  0.10974827781E-01  0.18459442147E-01  0.51100000000E-03 0. -1.
</event>
<event>
 8    1  0.1054086E+005  0.1043930E+01  0.7957747E-01            NaN
         13   -1    0    0    0    0  0.00000000000E+00  0.00000000000E+00  0.74505805969E-08  0.10566000000E+00  0.10566000000E+00 0. -1.
     999900   -1    0    0    0    0 -0.00000000000E+00 -0.00000000000E+00 -0.74505805969E-08  0.93827000000E+00  0.93827000000E+00 0.  1.
     999902    2    1    2    0    0 -0.59313692617E-02 -0.18910572515E-01 -0.12453521019E-01  0.10205231403E+01  0.10202546735E+01 0.  0.
     999903    2    3    3    0    0 -0.38711940044E-01 -0.12637682847E+00  0.45792723664E-02  0.13321615960E+00  0.15995573370E-01 0.  0.
         14    1    1    2    0    0  0.59313692617E-02  0.18910572515E-01  0.12453521019E-01  0.23406859677E-01  0.00000000000E+00 0.  1.
     999901    1    3    3    0    0  0.32780570782E-01  0.10746625595E+00 -0.17032793385E-01  0.88730698072E+00  0.88000000000E+00 0.  1.
        -11    1    4    4    0    0 -0.99521997873E-02 -0.46789089176E-01  0.80871450152E-02  0.48517297761E-01  0.51100000000E-03 0.  1.
         11    1    4    4    0    0 -0.28759740256E-01 -0.79587739293E-01 -0.35078726488E-02  0.84698861839E-01  0.51100000000E-03 0. -1.
</event>
<event>
 8    1  0.1054086E+005  0.1043930E+01  0.7957747E-01            NaN
         13   -1    0    0    0    0  0.00000000000E+00  0.00000000000E+00  0.74505805969E-08  0.10566000000E+00  0.10566000000E+00 0. -1.
     999900   -1    0    0    0    0 -0.00000000000E+00 -0.00000000000E+00 -0.74505805969E-08  0.93827000000E+00  0.93827000000E+00 0. -1.
     999902    2    1    2    0    0  0.13187701410E-01 -0.16230389181E-01  0.14124193117E-01  0.10186944332E+01  0.10183818117E+01 0.  0.
     999903    2    3    3    0    0  0.49628634727E-01 -0.10678884405E+00  0.56806698688E-01  0.13226870496E+00  0.20028746759E-01 0.  0.
         14    1    1    2    0    0 -0.13187701410E-01  0.16230389181E-01 -0.14124193117E-01  0.25235566819E-01  0.00000000000E+00 0. -1.
     999901    1    3    3    0    0 -0.36440933317E-01  0.90558454872E-01 -0.42682505571E-01  0.88642572822E+00  0.88000000000E+00 0. -1.
        -11    1    4    4    0    0  0.16993879243E-01 -0.46055377794E-01  0.13756423797E-01  0.50984213951E-01  0.51100000000E-03 0. -1.
         11    1    4    4    0    0  0.32634755484E-01 -0.60733466260E-01  0.43050274892E-01  0.81284491010E-01  0.51100000000E-03 0.  1.
</event>
<event>
 8    1  0.1054086E+005  0.1043930E+01  0.7957747E-01            NaN
         13   -1    0    0    0    0  0.00000000000E+00  0.00000000000E+00  0.74505805969E-08  0.10566000000E+00  0.10566000000E+00 0. -1.
     999900   -1    0    0    0    0 -0.00000000000E+00 -0.00000000000E+00 -0.74505805969E-08  0.93827000000E+00  0.93827000000E+00 0. -1.
     999902    2    1    2    0    0 -0.23606768048E-01 -0.31807377705E-03 -0.47132411285E-02  0.10198552142E+01  0.10195710189E+01 0.  0.
     999903    2    3    3    0    0  0.58994411632E-01 -0.11162675092E+00 -0.11813174918E-01  0.12897756518E+00  0.23553961303E-01 0.  0.
         14    1    1    2    0    0  0.23606768048E-01  0.31807377705E-03  0.47132411285E-02  0.24074785784E-01  0.00000000000E+00 0. -1.
     999901    1    3    3    0    0 -0.82601179680E-01  0.11130867714E+00  0.70999337896E-02  0.89087764904E+00  0.88000000000E+00 0.  1.
        -11    1    4    4    0    0  0.20238496099E-01 -0.23321865226E-01  0.43754722512E-02  0.31191537320E-01  0.51100000000E-03 0. -1.
         11    1    4    4    0    0  0.38755915533E-01 -0.88304885695E-01 -0.16188647169E-01  0.97786027860E-01  0.51100000000E-03 0.  1.
</event>
<event>
 8    1  0.1054086E+005  0.1043930E+01  0.7957747E-01            NaN
         13   -1    0    0    0    0  0.00000000000E+00  0.00000000000E+00  0.74505805969E-08  0.10566000000E+00  0.10566000000E+00 0.  1.
     999900   -1    0    0    0    0 -0.00000000000E+00 -0.00000000000E+00 -0.74505805969E-08  0.93827000000E+00  0.93827000000E+00 0. -1.
     999902    2    1    2    0    0  0.14936801402E-01  0.17746353907E-01  0.55182238838E-02  0.10200869317E+01  0.10198082448E+01 0.  0.
     999903    2    3    3    0    0  0.43610416286E-01  0.12414047209E+00 -0.46707273303E-02  0.13315643872E+00  0.19902167224E-01 0.  0.
         14    1    1    2    0    0 -0.14936801402E-01 -0.17746353907E-01 -0.55182238838E-02  0.23843068342E-01  0.00000000000E+00 0. -1.
     999901    1    3    3    0    0 -0.28673614884E-01 -0.10639411818E+00  0.10188951214E-01  0.88693049294E+00  0.88000000000E+00 0.  1.
        -11    1    4    4    0    0  0.12950692877E-01  0.28463938465E-01 -0.91486015325E-02  0.32586412351E-01  0.51100000000E-03 0.  1.
         11    1    4    4    0    0  0.30659723409E-01  0.95676533624E-01  0.44778742022E-02  0.10057002637E+00  0.51100000000E-03 0. -1.
</event>
<event>
 8    1  0.1054086E+005  0.1043930E+01  0.7957747E-01            NaN
         13   -1    0    0    0    0  0.00000000000E+00  0.00000000000E+00  0.74505805969E-08  0.10566000000E+00  0.10566000000E+00 0. -1.
     999900   -1    0    0    0    0 -0.00000000000E+00 -0.00000000000E+00 -0.74505805969E-08  0.93827000000E+00  0.93827000000E+00 0. -1.
     999902    2    1    2    0    0 -0.11131424365E-01  0.16543074696E-01 -0.14762007312E-01  0.10191207520E+01  0.10188187318E+01 0.  0.
     999903    2    3    3    0    0  0.38390460215E-01  0.11531454389E-01 -0.12321830529E+00  0.13106652953E+00  0.19720104705E-01 0.  0.
         14    1    1    2    0    0  0.11131424365E-01 -0.16543074696E-01  0.14762007312E-01  0.24809248047E-01  0.00000000000E+00 0. -1.
     999901    1    3    3    0    0 -0.49521884580E-01  0.50116203074E-02  0.10845629798E+00  0.88805422242E+00  0.88000000000E+00 0.  1.
        -11    1    4    4    0    0  0.16016339438E-01  0.13286068089E-01 -0.75743664500E-01  0.78551935477E-01  0.51100000000E-03 0.  1.
         11    1    4    4    0    0  0.22374120777E-01 -0.17546137003E-02 -0.47474640787E-01  0.52514594054E-01  0.51100000000E-03 0. -1.
</event>
<event>
 8    1  0.1430140E+005  0.1043930E+01  0.7957747E-01            NaN
         13   -1    0    0    0    0  0.00000000000E+00  0.00000000000E+00  0.74505805969E-08  0.10566000000E+00  0.10566000000E+00 0. -1.
     999900   -1    0    0    0    0 -0.00000000000E+00 -0.00000000000E+00 -0.74505805969E-08  0.93827000000E+00  0.93827000000E+00 0.  1.
     999902    2    1    2    0    0  0.82102996219E-02 -0.20386279717E-01  0.50945633779E-02  0.10213697696E+01  0.10211205816E+01 0.  0.
     999903    2    3    3    0    0  0.37712405946E-01  0.92196193304E-02  0.12483834279E+00  0.13227727932E+00  0.20135536987E-01 0.  0.
         14    1    1    2    0    0 -0.82102996219E-02  0.20386279717E-01 -0.50945633779E-02  0.22560230420E-01  0.00000000000E+00 0.  1.
     999901    1    3    3    0    0 -0.29502106324E-01 -0.29605899047E-01 -0.11974377941E+00  0.88909249026E+00  0.88000000000E+00 0.  1.
        -11    1    4    4    0    0  0.67266849498E-02  0.10618633575E-01  0.40838435800E-01  0.42732220034E-01  0.51100000000E-03 0.  1.
         11    1    4    4    0    0  0.30985720996E-01 -0.13990142443E-02  0.83999906991E-01  0.89545059283E-01  0.51100000000E-03 0. -1.
</event>
<event>
 8    1  0.1054086E+005  0.1043930E+01  0.7957747E-01            NaN
         13   -1    0    0    0    0  0.00000000000E+00  0.00000000000E+00  0.74505805969E-08  0.10566000000E+00  0.10566000000E+00 0. -1.
     999900   -1    0    0    0    0 -0.00000000000E+00 -0.00000000000E+00 -0.74505805969E-08  0.93827000000E+00  0.93827000000E+00 0.  1.
     999902    2    1    2    0    0 -0.43777328648E-02 -0.55490145500E-02 -0.22213277327E-01  0.10206193630E+01  0.10203531243E+01 0.  0.
     999903    2    3    3    0    0 -0.12031329779E+00  0.23605325890E-01  0.39549647084E-01  0.13039147667E+00  0.20131109467E-01 0.  0.
         14    1    1    2    0    0  0.43777328648E-02  0.55490145500E-02  0.22213277327E-01  0.23310636996E-01  0.00000000000E+00 0. -1.
     999901    1    3    3    0    0  0.11593556492E+00 -0.29154340440E-01 -0.61762924411E-01  0.89022788634E+00  0.88000000000E+00 0.  1.
        -11    1    4    4    0    0 -0.11163953108E-01  0.82934634850E-02  0.27073181289E-02  0.14177661232E-01  0.51100000000E-03 0.  1.
         11    1    4    4    0    0 -0.10914934468E+00  0.15311862405E-01  0.36842328955E-01  0.11621381544E+00  0.51100000000E-03 0. -1.
</event>
<event>
 8    1  0.1054086E+005  0.1043930E+01  0.7957747E-01            NaN
         13   -1    0    0    0    0  0.00000000000E+00  0.00000000000E+00  0.74505805969E-08  0.10566000000E+00  0.10566000000E+00 0.  1.
     999900   -1    0    0    0    0 -0.00000000000E+00 -0.00000000000E+00 -0.74505805969E-08  0.93827000000E+00  0.93827000000E+00 0.  1.
     999902    2    1    2    0    0  0.66912143816E-02 -0.15253597070E-01  0.17352628691E-01  0.10198767612E+01  0.10195930805E+01 0.  0.
     999903    2    3    3    0    0 -0.77264140758E-01 -0.11337952455E-01  0.10382849768E+00  0.13165274114E+00  0.21302363855E-01 0.  0.
         14    1    1    2    0    0 -0.66912143816E-02  0.15253597070E-01 -0.17352628691E-01  0.24053238783E-01  0.00000000000E+00 0. -1.
     999901    1    3    3    0    0  0.83955355140E-01 -0.39156446145E-02 -0.86475868988E-01  0.88822402008E+00  0.88000000000E+00 0.  1.
        -11    1    4    4    0    0 -0.95932219372E-02 -0.77689614097E-02  0.99119066803E-02  0.15839623845E-01  0.51100000000E-03 0.  1.
         11    1    4    4    0    0 -0.67670918821E-01 -0.35689910455E-02  0.93916590998E-01  0.11581311729E+00  0.51100000000E-03 0. -1.
</event>
<event>
 8    1  0.1054086E+005  0.1043930E+01  0.7957747E-01            NaN
         13   -1    0    0    0    0  0.00000000000E+00  0.00000000000E+00  0.74505805969E-08  0.10566000000E+00  0.10566000000E+00 0. -1.
     999900   -1    0    0    0    0 -0.00000000000E+00 -0.00000000000E+00 -0.74505805969E-08  0.93827000000E+00  0.93827000000E+00 0. -1.
     999902    2    1    2    0    0 -0.23888719928E-01  0.30536436758E-02  0.23788076585E-03  0.10198457257E+01  0.10195613037E+01 0.  0.
     999903    2    3    3    0    0  0.13792101544E-01 -0.14843846327E-02 -0.12750043287E+00  0.12981341465E+00  0.20068302842E-01 0.  0.
         14    1    1    2    0    0  0.23888719928E-01 -0.30536436758E-02 -0.23788076585E-03  0.24084274263E-01  0.00000000000E+00 0. -1.
     999901    1    3    3    0    0 -0.37680821473E-01  0.45380283085E-02  0.12773831363E+00  0.89003231109E+00  0.88000000000E+00 0.  1.
        -11    1    4    4    0    0  0.32520509503E-02 -0.95034635490E-02 -0.36794502769E-01  0.38144307699E-01  0.51100000000E-03 0.  1.
         11    1    4    4    0    0  0.10540050594E-01  0.80190789162E-02 -0.90705930099E-01  0.91669106951E-01  0.51100000000E-03 0. -1.
</event>
<event>
 8    1  0.1054086E+005  0.1043930E+01  0.7957747E-01            NaN
         13   -1    0    0    0    0  0.00000000000E+00  0.00000000000E+00  0.74505805969E-08  0.10566000000E+00  0.10566000000E+00 0. -1.
     999900   -1    0    0    0    0 -0.00000000000E+00 -0.00000000000E+00 -0.74505805969E-08  0.93827000000E+00  0.93827000000E+00 0.  1.
     999902    2    1    2    0    0  0.22110064972E-01 -0.31208140361E-02 -0.83335049586E-02  0.10200963734E+01  0.10198179098E+01 0.  0.
     999903    2    3    3    0    0  0.98214516524E-01  0.37177323059E-01 -0.79714703056E-01  0.13301627392E+00  0.17625284077E-01 0.  0.
         14    1    1    2    0    0 -0.22110064972E-01  0.31208140361E-02  0.83335049586E-02  0.23833626628E-01  0.00000000000E+00 0. -1.
     999901    1    3    3    0    0 -0.76104451552E-01 -0.40298137095E-01  0.71381198097E-01  0.88708009945E+00  0.88000000000E+00 0. -1.
        -11    1    4    4    0    0  0.31045794797E-01  0.79964962485E-02 -0.33745818484E-01  0.46549185954E-01  0.51100000000E-03 0.  1.
         11    1    4    4    0    0  0.67168721728E-01  0.29180826810E-01 -0.45968884572E-01  0.86467087968E-01  0.51100000000E-03 0. -1.
</event>
<event>
 8    1  0.1054086E+005  0.1043930E+01  0.7957747E-01            NaN
         13   -1    0    0    0    0  0.00000000000E+00  0.00000000000E+00  0.74505805969E-08  0.10566000000E+00  0.10566000000E+00 0.  1.
     999900   -1    0    0    0    0 -0.00000000000E+00 -0.00000000000E+00 -0.74505805969E-08  0.93827000000E+00  0.93827000000E+00 0. -1.
     999902    2    1    2    0    0 -0.48533876558E-02  0.19589442914E-01 -0.11219418081E-01  0.10208393745E+01  0.10205781947E+01 0.  0.
     999903    2    3    3    0    0  0.55155921155E-01 -0.64213145657E-01  0.94453645940E-01  0.12854413888E+00  0.20894992102E-01 0.  0.
         14    1    1    2    0    0  0.48533876558E-02 -0.19589442914E-01  0.11219418081E-01  0.23090625533E-01  0.00000000000E+00 0. -1.
     999901    1    3    3    0    0 -0.60009308811E-01  0.83802588571E-01 -0.10567306402E+00  0.89229523559E+00  0.88000000000E+00 0. -1.
        -11    1    4    4    0    0  0.47937844478E-01 -0.47261370430E-01  0.63642146910E-01  0.92640477397E-01  0.51100000000E-03 0. -1.
         11    1    4    4    0    0  0.72180766777E-02 -0.16951775227E-01  0.30811499029E-01  0.35903661481E-01  0.51100000000E-03 0.  1.
</event>
<event>
 8    1  0.1054086E+005  0.1043930E+01  0.7957747E-01            NaN
         13   -1    0    0    0    0  0.00000000000E+00  0.00000000000E+00  0.74505805969E-08  0.10566000000E+00  0.10566000000E+00 0.  1.
     999900   -1    0    0    0    0 -0.00000000000E+00 -0.00000000000E+00 -0.74505805969E-08  0.93827000000E+00  0.93827000000E+00 0.  1.
     999902    2    1    2    0    0 -0.20272558145E-01 -0.95572633428E-02  0.10370908066E-01  0.10192343803E+01  0.10189351542E+01 0.  0.
     999903    2    3    3    0    0  0.77999839574E-01 -0.49594275378E-01 -0.83351508369E-01  0.12791832089E+00  0.29530590045E-01 0.  0.
         14    1    1    2    0    0  0.20272558145E-01  0.95572633428E-02 -0.10370908066E-01  0.24695619661E-01  0.00000000000E+00 0. -1.
     999901    1    3    3    0    0 -0.98272397719E-01  0.40037012036E-01  0.93722416435E-01  0.89131605945E+00  0.88000000000E+00 0. -1.
        -11    1    4    4    0    0  0.67529669999E-01 -0.50682800924E-01 -0.64243454158E-01  0.10609658412E+00  0.51100000000E-03 0.  1.
         11    1    4    4    0    0  0.10470169575E-01  0.10885255461E-02 -0.19108054211E-01  0.21821736767E-01  0.51100000000E-03 0. -1.
</event>
<event>
 8    1  0.1054086E+005  0.1043930E+01  0.7957747E-01            NaN
         13   -1    0    0    0    0  0.00000000000E+00  0.00000000000E+00  0.74505805969E-08  0.10566000000E+00  0.10566000000E+00 0. -1.
     999900   -1    0    0    0    0 -0.00000000000E+00 -0.00000000000E+00 -0.74505805969E-08  0.93827000000E+00  0.93827000000E+00 0. -1.
     999902    2    1    2    0    0 -0.16795596216E-02 -0.40799161111E-03 -0.20571132837E-01  0.10232863839E+01  0.10230781322E+01 0.  0.
     999903    2    3    3    0    0  0.11506196494E+00 -0.16217235904E-01 -0.65554508694E-01  0.13429705900E+00  0.15363981558E-01 0.  0.
         14    1    1    2    0    0  0.16795596216E-02  0.40799161111E-03  0.20571132837E-01  0.20643616056E-01  0.00000000000E+00 0. -1.
     999901    1    3    3    0    0 -0.11674152456E+00  0.15809244293E-01  0.44983375857E-01  0.88898932494E+00  0.88000000000E+00 0. -1.
        -11    1    4    4    0    0  0.65799973968E-01 -0.15109196775E-01 -0.43463104294E-01  0.80294625956E-01  0.51100000000E-03 0.  1.
         11    1    4    4    0    0  0.49261990973E-01 -0.11080391288E-02 -0.22091404399E-01  0.54002433044E-01  0.51100000000E-03 0. -1.
</event>
<event>
 8    1  0.1054086E+005  0.1043930E+01  0.7957747E-01            NaN
         13   -1    0    0    0    0  0.00000000000E+00  0.00000000000E+00  0.74505805969E-08  0.10566000000E+00  0.10566000000E+00 0.  1.
     999900   -1    0    0    0    0 -0.00000000000E+00 -0.00000000000E+00 -0.74505805969E-08  0.93827000000E+00  0.93827000000E+00 0. -1.
     999902    2    1    2    0    0  0.42399589229E-02  0.12928043548E-01 -0.19959477713E-01  0.10197744145E+01  0.10194882854E+01 0.  0.
     999903    2    3    3    0    0  0.61724378908E-01 -0.49520510685E-01 -0.10348945710E+00  0.13175327850E+00  0.19664148486E-01 0.  0.
         14    1    1    2    0    0 -0.42399589229E-02 -0.12928043548E-01  0.19959477713E-01  0.24155585529E-01  0.00000000000E+00 0.  1.
     999901    1    3    3    0    0 -0.57484419985E-01  0.62448554233E-01  0.83529979388E-01  0.88802113597E+00  0.88000000000E+00 0. -1.
        -11    1    4    4    0    0  0.38431279367E-01 -0.33298539771E-01 -0.50669991437E-01  0.71787639172E-01  0.51100000000E-03 0.  1.
         11    1    4    4    0    0  0.23293099541E-01 -0.16221970914E-01 -0.52819465664E-01  0.59965639333E-01  0.51100000000E-03 0. -1.
</event>
<event>
 8    1  0.1054086E+005  0.1043930E+01  0.7957747E-01            NaN
         13   -1    0    0    0    0  0.00000000000E+00  0.00000000000E+00  0.74505805969E-08  0.10566000000E+00  0.10566000000E+00 0. -1.
     999900   -1    0    0    0    0 -0.00000000000E+00 -0.00000000000E+00 -0.74505805969E-08  0.93827000000E+00  0.93827000000E+00 0. -1.
     999902    2    1    2    0    0 -0.14229454350E-01 -0.15630880481E-01 -0.11005104307E-01  0.10200990513E+01  0.10198206511E+01 0.  0.
     999903    2    3    3    0    0 -0.12378551072E+00  0.38111030463E-01  0.92732368480E-02  0.13144730083E+00  0.20422944604E-01 0.  0.
         14    1    1    2    0    0  0.14229454350E-01  0.15630880481E-01  0.11005104307E-01  0.23830948712E-01  0.00000000000E+00 0. -1.
     999901    1    3    3    0    0  0.10955605637E+00 -0.53741910944E-01 -0.20278341155E-01  0.88865175046E+00  0.88000000000E+00 0. -1.
        -11    1    4    4    0    0 -0.63219706032E-01  0.25690859170E-01  0.13149391135E-01  0.69497619268E-01  0.51100000000E-03 0. -1.
         11    1    4    4    0    0 -0.60565804685E-01  0.12420171293E-01 -0.38761542866E-02  0.61949681558E-01  0.51100000000E-03 0.  1.
</event>
<event>
 8    1  0.1054086E+005  0.1043930E+01  0.7957747E-01            NaN
         13   -1    0    0    0    0  0.00000000000E+00  0.00000000000E+00  0.74505805969E-08  0.10566000000E+00  0.10566000000E+00 0.  1.
     999900   -1    0    0    0    0 -0.00000000000E+00 -0.00000000000E+00 -0.74505805969E-08  0.93827000000E+00  0.93827000000E+00 0. -1.
     999902    2    1    2    0    0  0.93360497889E-02  0.17239490492E-01 -0.98850798909E-02  0.10219737557E+01  0.10217378728E+01 0.  0.
     999903    2    3    3    0    0  0.75803008107E-01 -0.84120735548E-01 -0.64850535228E-01  0.13196647865E+00  0.19676518513E-01 0.  0.
         14    1    1    2    0    0 -0.93360497889E-02 -0.17239490492E-01  0.98850798909E-02  0.21956244272E-01  0.00000000000E+00 0.  1.
     999901    1    3    3    0    0 -0.66466958318E-01  0.10136022604E+00  0.54965455337E-01  0.89000727708E+00  0.88000000000E+00 0.  1.
        -11    1    4    4    0    0  0.18290840422E-01 -0.30846472630E-01 -0.13883314378E-01  0.38458643452E-01  0.51100000000E-03 0. -1.
         11    1    4    4    0    0  0.57512167685E-01 -0.53274262918E-01 -0.50967220850E-01  0.93507835198E-01  0.51100000000E-03 0.  1.
</event>
<event>
 8    1  0.1054086E+005  0.1043930E+01  0.7957747E-01            NaN
         13   -1    0    0    0    0  0.00000000000E+00  0.00000000000E+00  0.74505805969E-08  0.10566000000E+00  0.10566000000E+00 0. -1.
     999900   -1    0    0    0    0 -0.00000000000E+00 -0.00000000000E+00 -0.74505805969E-08  0.93827000000E+00  0.93827000000E+00 0. -1.
     999902    2    1    2    0    0 -0.91959984475E-02 -0.20837652287E-01  0.86002955807E-03  0.10211371548E+01  0.10208827431E+01 0.  0.
     999903    2    3    3    0    0 -0.51551797675E-01 -0.14071237466E-01 -0.11892593388E+00  0.13198673159E+00  0.20531244483E-01 0.  0.
         14    1    1    2    0    0  0.91959984475E-02  0.20837652287E-01 -0.86002955807E-03  0.22792845174E-01  0.00000000000E+00 0. -1.
     999901    1    3    3    0    0  0.42355799227E-01 -0.67664148207E-02  0.11978596344E+00  0.88915042323E+00  0.88000000000E+00 0.  1.
        -11    1    4    4    0    0 -0.29523475225E-01 -0.16730331750E-01 -0.58745307961E-01  0.67844026401E-01  0.51100000000E-03 0.  1.
         11    1    4    4    0    0 -0.22028322450E-01  0.26590942842E-02 -0.60180625920E-01  0.64142705193E-01  0.51100000000E-03 0. -1.
</event>
<event>
 8    1  0.1054086E+005  0.1043930E+01  0.7957747E-01            NaN
         13   -1    0    0    0    0  0.00000000000E+00  0.00000000000E+00  0.74505805969E-08  0.10566000000E+00  0.10566000000E+00 0. -1.
     999900   -1    0    0    0    0 -0.00000000000E+00 -0.00000000000E+00 -0.74505805969E-08  0.93827000000E+00  0.93827000000E+00 0.  1.
     999902    2    1    2    0    0 -0.96155635520E-03  0.14591592050E-01  0.18277844948E-01  0.10205223353E+01  0.10202538499E+01 0.  0.
     999903    2    3    3    0    0  0.46402871061E-01 -0.43387981054E-01  0.11422119839E+00  0.13214733177E+00  0.19511324683E-01 0.  0.
         14    1    1    2    0    0  0.96155635520E-03 -0.14591592050E-01 -0.18277844948E-01  0.23407664666E-01  0.00000000000E+00 0.  1.
     999901    1    3    3    0    0 -0.47364427417E-01  0.57979573104E-01 -0.95943353441E-01  0.88837500356E+00  0.88000000000E+00 0.  1.
        -11    1    4    4    0    0  0.12822384165E-01 -0.62245777648E-02  0.41186333860E-01  0.43585939497E-01  0.51100000000E-03 0. -1.
         11    1    4    4    0    0  0.33580486896E-01 -0.37163403289E-01  0.73034864528E-01  0.88561392276E-01  0.51100000000E-03 0.  1.
</event>
<event>
 8    1  0.1054086E+005  0.1043930E+01  0.7957747E-01            NaN
         13   -1    0    0    0    0  0.00000000000E+00  0.00000000000E+00  0.74505805969E-08  0.10566000000E+00  0.10566000000E+00 0. -1.
     999900   -1    0    0    0    0 -0.00000000000E+00 -0.00000000000E+00 -0.74505805969E-08  0.93827000000E+00  0.93827000000E+00 0. -1.
     999902    2    1    2    0    0  0.74415413056E-02  0.89879269600E-02  0.19646742607E-01  0.10210793137E+01  0.10208235945E+01 0.  0.
     999903    2    3    3    0    0  0.17619525076E-01  0.12672241463E+00 -0.25864004345E-01  0.13201450786E+00  0.19745012846E-01 0.  0.
         14    1    1    2    0    0 -0.74415413056E-02 -0.89879269600E-02 -0.19646742607E-01  0.22850686272E-01  0.00000000000E+00 0.  1.
     999901    1    3    3    0    0 -0.10177983770E-01 -0.11773448767E+00  0.45510746951E-01  0.88906480587E+00  0.88000000000E+00 0. -1.
        -11    1    4    4    0    0  0.21332189101E-01  0.11141223737E+00 -0.19943327775E-01  0.11517702189E+00  0.51100000000E-03 0.  1.
         11    1    4    4    0    0 -0.37126640255E-02  0.15310177263E-01 -0.59206765698E-02  0.16837485977E-01  0.51100000000E-03 0. -1.
</event>
<event>
 7    1  0.1054086E+005  0.1043930E+01  0.7957747E-01            NaN
         13   -1    0    0    0    0  0.00000000000E+00  0.00000000000E+00  0.74505805969E-08  0.10566000000E+00  0.10566000000E+00 0.  1.
     999900   -1    0    0    0    0 -0.00000000000E+00 -0.00000000000E+00 -0.74505805969E-08  0.93827000000E+00  0.93827000000E+00 0.  1.
     999902    2    1    2    0    0 -0.19113337212E-01 -0.81982344809E-02  0.81456084049E-02  0.10215943414E+01  0.10213501441E+01 0.  0.
         14    1    1    2    0    0  0.19113337212E-01  0.81982344809E-02 -0.81456084049E-02  0.22335658582E-01  0.00000000000E+00 0.  1.
     999901    1    3    3    0    0  0.53623297366E-01 -0.69973857190E-01  0.91189241475E-01  0.88909351391E+00  0.88000000000E+00 0.  1.
        -11    1    3    3    0    0 -0.58489736606E-01  0.26841695554E-01 -0.61680625354E-01  0.89141946207E-01  0.51100000000E-03 0.  1.
         11    1    3    3    0    0 -0.14246897972E-01  0.34933927156E-01 -0.21363007715E-01  0.43358881304E-01  0.51100000000E-03 0. -1.
</event>
<event>
 8    1  0.1054086E+005  0.1043930E+01  0.7957747E-01            NaN
         13   -1    0    0    0    0  0.00000000000E+00  0.00000000000E+00  0.74505805969E-08  0.10566000000E+00  0.10566000000E+00 0.  1.
     999900   -1    0    0    0    0 -0.00000000000E+00 -0.00000000000E+00 -0.74505805969E-08  0.93827000000E+00  0.93827000000E+00 0. -1.
     999902    2    1    2    0    0  0.80058483371E-02  0.22071906456E-01 -0.25566555122E-02  0.10203122281E+01  0.10200388442E+01 0.  0.
     999903    2    3    3    0    0 -0.11126848331E+00  0.37973087401E-02  0.63654723173E-01  0.12961347219E+00  0.18778537178E-01 0.  0.
         14    1    1    2    0    0 -0.80058483371E-02 -0.22071906456E-01  0.25566555122E-02  0.23617771901E-01  0.00000000000E+00 0.  1.
     999901    1    3    3    0    0  0.11927433165E+00  0.18274597716E-01 -0.66211378686E-01  0.89069875591E+00  0.88000000000E+00 0.  1.
        -11    1    4    4    0    0 -0.56431729187E-01  0.74807041558E-02  0.41047145243E-01  0.70182834421E-01  0.51100000000E-03 0. -1.
         11    1    4    4    0    0 -0.54836754124E-01 -0.36833954158E-02  0.22607577930E-01  0.59430637768E-01  0.51100000000E-03 0.  1.
</event>
<event>
 8    1  0.1054086E+005  0.1043930E+01  0.7957747E-01            NaN
         13   -1    0    0    0    0  0.00000000000E+00  0.00000000000E+00  0.74505805969E-08  0.10566000000E+00  0.10566000000E+00 0.  1.
     999900   -1    0    0    0    0 -0.00000000000E+00 -0.00000000000E+00 -0.74505805969E-08  0.93827000000E+00  0.93827000000E+00 0.  1.
     999902    2    1    2    0    0 -0.15883424557E-01 -0.82092408134E-02  0.14987711020E-01  0.10205996273E+01  0.10203329324E+01 0.  0.
     999903    2    3    3    0    0  0.53420843965E-01 -0.16034252292E-02 -0.11501726063E+00  0.12832836185E+00  0.19566314635E-01 0.  0.
         14    1    1    2    0    0  0.15883424557E-01  0.82092408134E-02 -0.14987711020E-01  0.23330372737E-01  0.00000000000E+00 0. -1.
     999901    1    3    3    0    0 -0.69304268523E-01 -0.66058155842E-02  0.13000497165E+00  0.89227126542E+00  0.88000000000E+00 0. -1.
        -11    1    4    4    0    0  0.24316520195E-01 -0.21331589423E-02 -0.31319434998E-01  0.39711606000E-01  0.51100000000E-03 0.  1.
         11    1    4    4    0    0  0.29104323770E-01  0.52973371306E-03 -0.83697825634E-01  0.88616755846E-01  0.51100000000E-03 0. -1.
</event>
<event>
 8    1  0.1054086E+005  0.1043930E+01  0.7957747E-01            NaN
         13   -1    0    0    0    0  0.00000000000E+00  0.00000000000E+00  0.74505805969E-08  0.10566000000E+00  0.10566000000E+00 0. -1.
     999900   -1    0    0    0    0 -0.00000000000E+00 -0.00000000000E+00 -0.74505805969E-08  0.93827000000E+00  0.93827000000E+00 0.  1.
     999902    2    1    2    0    0  0.21299388085E-01  0.58217915545E-02  0.14765134208E-01  0.10173675005E+01  0.10170206806E+01 0.  0.
     999903    2    3    3    0    0 -0.97769118971E-01  0.13997527340E-01 -0.74082478901E-01  0.12487769646E+00  0.18748173141E-01 0.  0.
         14    1    1    2    0    0 -0.21299388085E-01 -0.58217915545E-02 -0.14765134208E-01  0.26562499466E-01  0.00000000000E+00 0.  1.
     999901    1    3    3    0    0  0.11906850706E+00 -0.81757357857E-02  0.88847613109E-01  0.89248980408E+00  0.88000000000E+00 0. -1.
        -11    1    4    4    0    0 -0.32580072150E-01 -0.23474265151E-02 -0.17727836779E-01  0.37168653868E-01  0.51100000000E-03 0. -1.
         11    1    4    4    0    0 -0.65189046821E-01  0.16344953855E-01 -0.56354642122E-01  0.87709042588E-01  0.51100000000E-03 0.  1.
</event>
<event>
 8    1  0.1054086E+005  0.1043930E+01  0.7957747E-01            NaN
         13   -1    0    0    0    0  0.00000000000E+00  0.00000000000E+00  0.74505805969E-08  0.10566000000E+00  0.10566000000E+00 0. -1.
     999900   -1    0    0    0    0 -0.00000000000E+00 -0.00000000000E+00 -0.74505805969E-08  0.93827000000E+00  0.93827000000E+00 0.  1.
     999902    2    1    2    0    0 -0.13914398441E-01 -0.17286408085E-01 -0.70950210326E-02  0.10206325814E+01  0.10203666481E+01 0.  0.
     999903    2    3    3    0    0  0.53580281217E-01 -0.93547107373E-01 -0.73891344748E-01  0.13224472982E+00  0.20170024842E-01 0.  0.
         14    1    1    2    0    0  0.13914398441E-01  0.17286408085E-01  0.70950210326E-02  0.23297418568E-01  0.00000000000E+00 0.  1.
     999901    1    3    3    0    0 -0.67494679659E-01  0.76260699288E-01  0.66796323715E-01  0.88838785162E+00  0.88000000000E+00 0.  1.
        -11    1    4    4    0    0  0.45760191656E-01 -0.75354405365E-01 -0.50531618542E-01  0.10161686446E+00  0.51100000000E-03 0.  1.
         11    1    4    4    0    0  0.78200895612E-02 -0.18192702008E-01 -0.23359726206E-01  0.30627865360E-01  0.51100000000E-03 0. -1.
</event>
<event>
 8    1  0.1334921E+005  0.1043930E+01  0.7957747E-01            NaN
         13   -1    0    0    0    0  0.00000000000E+00  0.00000000000E+00  0.74505805969E-08  0.10566000000E+00  0.10566000000E+00 0. -1.
     999900   -1    0    0    0    0 -0.00000000000E+00 -0.00000000000E+00 -0.74505805969E-08  0.93827000000E+00  0.93827000000E+00 0.  1.
     999902    2    1    2    0    0 -0.12027830047E-02  0.23527865229E-01 -0.45273535312E-02  0.10199403343E+01  0.10196581690E+01 0.  0.
     999903    2    3    3    0    0 -0.70536686102E-01 -0.29716221164E-01 -0.10340504096E+00  0.13009825849E+00  0.19351394749E-01 0.  0.
         14    1    1    2    0    0  0.12027830047E-02 -0.23527865229E-01  0.45273535312E-02  0.23989665674E-01  0.00000000000E+00 0.  1.
     999901    1    3    3    0    0  0.69333903097E-01  0.53244086393E-01  0.98877687434E-01  0.88984207584E+00  0.88000000000E+00 0. -1.
        -11    1    4    4    0    0 -0.22332751741E-01 -0.17479455074E-01 -0.47016813047E-01  0.54910153707E-01  0.51100000000E-03 0.  1.
         11    1    4    4    0    0 -0.48203934361E-01 -0.12236766091E-01 -0.56388227918E-01  0.75188104784E-01  0.51100000000E-03 0. -1.
</event>
<event>
 7    1  0.1054086E+005  0.1043930E+01  0.7957747E-01            NaN
         13   -1    0    0    0    0  0.00000000000E+00  0.00000000000E+00  0.74505805969E-08  0.10566000000E+00  0.10566000000E+00 0.  1.
     999900   -1    0    0    0    0 -0.00000000000E+00 -0.00000000000E+00 -0.74505805969E-08  0.93827000000E+00  0.93827000000E+00 0. -1.
     999903    2    1    2    0    0 -0.13309771362E-01 -0.67510835931E-01 -0.69633058294E-02  0.72224662802E-01  0.20809884840E-01 0.  0.
         14    1    1    2    0    0 -0.74118493815E-01 -0.32553061461E-01 -0.10004659540E-01  0.81568046123E-01  0.00000000000E+00 0.  1.
     999901    1    1    2    0    0  0.87428265177E-01  0.10006389739E+00  0.16967965369E-01  0.89013729107E+00  0.88000000000E+00 0.  1.
        -11    1    3    3    0    0 -0.71653393207E-02 -0.38146503766E-01 -0.14246387496E-01  0.41348742603E-01  0.51100000000E-03 0. -1.
         11    1    3    3    0    0 -0.61444320413E-02 -0.29364332165E-01  0.72830816666E-02  0.30875920199E-01  0.51100000000E-03 0.  1.
</event>
<event>
 8    1  0.1054086E+005  0.1043930E+01  0.7957747E-01            NaN
         13   -1    0    0    0    0  0.00000000000E+00  0.00000000000E+00  0.74505805969E-08  0.10566000000E+00  0.10566000000E+00 0. -1.
     999900   -1    0    0    0    0 -0.00000000000E+00 -0.00000000000E+00 -0.74505805969E-08  0.93827000000E+00  0.93827000000E+00 0. -1.
     999902    2    1    2    0    0  0.10922225252E-01 -0.65884362282E-02  0.19481022048E-01  0.10206445385E+01  0.10203788812E+01 0.  0.
     999903    2    3    3    0    0  0.56263636543E-01  0.31216741948E-01  0.11525682358E+00  0.13348160014E+00  0.19827264506E-01 0.  0.
         14    1    1    2    0    0 -0.10922225252E-01  0.65884362282E-02 -0.19481022048E-01  0.23285461481E-01  0.00000000000E+00 0.  1.
     999901    1    3    3    0    0 -0.45341411291E-01 -0.37805178176E-01 -0.95775801537E-01  0.88716293838E+00  0.88000000000E+00 0. -1.
        -11    1    4    4    0    0  0.25906102977E-01  0.19937214390E-01  0.40785882419E-01  0.52272057686E-01  0.51100000000E-03 0.  1.
         11    1    4    4    0    0  0.30357533566E-01  0.11279527558E-01  0.74470941166E-01  0.81209542452E-01  0.51100000000E-03 0. -1.
</event>
<event>
 8    1  0.1054086E+005  0.1043930E+01  0.7957747E-01            NaN
         13   -1    0    0    0    0  0.00000000000E+00  0.00000000000E+00  0.74505805969E-08  0.10566000000E+00  0.10566000000E+00 0. -1.
     999900   -1    0    0    0    0 -0.00000000000E+00 -0.00000000000E+00 -0.74505805969E-08  0.93827000000E+00  0.93827000000E+00 0.  1.
     999902    2    1    2    0    0 -0.12784674238E-01 -0.17906573990E-01  0.86163847391E-02  0.10203008787E+01  0.10200272289E+01 0.  0.
     999903    2    3    3    0    0 -0.37662652753E-01 -0.11840517988E+00  0.44814825312E-01  0.13349243789E+00  0.19328744673E-01 0.  0.
         14    1    1    2    0    0  0.12784674238E-01  0.17906573990E-01 -0.86163847391E-02  0.23629121300E-01  0.00000000000E+00 0.  1.
     999901    1    3    3    0    0  0.24877978515E-01  0.10049860589E+00 -0.36198440573E-01  0.88680844081E+00  0.88000000000E+00 0.  1.
        -11    1    4    4    0    0 -0.15947059423E-01 -0.65710116849E-01  0.15389942978E-01  0.69348681505E-01  0.51100000000E-03 0. -1.
         11    1    4    4    0    0 -0.21715593330E-01 -0.52695063028E-01  0.29424882335E-01  0.64143756381E-01  0.51100000000E-03 0.  1.
</event>
<event>
 8    1  0.1054086E+005  0.1043930E+01  0.7957747E-01            NaN
         13   -1    0    0    0    0  0.00000000000E+00  0.00000000000E+00  0.74505805969E-08  0.10566000000E+00  0.10566000000E+00 0.  1.
     999900   -1    0    0    0    0 -0.00000000000E+00 -0.00000000000E+00 -0.74505805969E-08  0.93827000000E+00  0.93827000000E+00 0.  1.
     999902    2    1    2    0    0  0.14916981480E-01  0.15620159150E-01 -0.90019203787E-02  0.10205304214E+01  0.10202621235E+01 0.  0.
     999903    2    3    3    0    0 -0.10726392458E+00  0.28465337822E-01 -0.62794537406E-01  0.13036930223E+00  0.27150986400E-01 0.  0.
         14    1    1    2    0    0 -0.14916981480E-01 -0.15620159150E-01  0.90019203787E-02  0.23399578604E-01  0.00000000000E+00 0. -1.
     999901    1    3    3    0    0  0.12218090606E+00 -0.12845178673E-01  0.53792617028E-01  0.89016111916E+00  0.88000000000E+00 0.  1.
        -11    1    4    4    0    0 -0.64150846263E-01  0.13347633981E-01 -0.51398208689E-01  0.83279813801E-01  0.51100000000E-03 0. -1.
         11    1    4    4    0    0 -0.43113078320E-01  0.15117703842E-01 -0.11396328717E-01  0.47089488433E-01  0.51100000000E-03 0.  1.
</event>
<event>
 8    1  0.1054086E+005  0.1043930E+01  0.7957747E-01            NaN
         13   -1    0    0    0    0  0.00000000000E+00  0.00000000000E+00  0.74505805969E-08  0.10566000000E+00  0.10566000000E+00 0. -1.
     999900   -1    0    0    0    0 -0.00000000000E+00 -0.00000000000E+00 -0.74505805969E-08  0.93827000000E+00  0.93827000000E+00 0. -1.
     999902    2    1    2    0    0 -0.67747787939E-02 -0.32365925594E-02 -0.21793566918E-01  0.10208793445E+01  0.10206190785E+01 0.  0.
     999903    2    3    3    0    0 -0.10911582280E+00  0.88255771530E-02 -0.69485175592E-01  0.13358363577E+00  0.32128562398E-01 0.  0.
         14    1    1    2    0    0  0.67747787939E-02  0.32365925594E-02  0.21793566918E-01  0.23050655481E-01  0.00000000000E+00 0. -1.
     999901    1    3    3    0    0  0.10234104400E+00 -0.12062169712E-01  0.47691608674E-01  0.88729570875E+00  0.88000000000E+00 0.  1.
        -11    1    4    4    0    0 -0.91765041308E-01 -0.49070886143E-02 -0.54287765685E-01  0.10673483475E+00  0.51100000000E-03 0.  1.
         11    1    4    4    0    0 -0.17350781489E-01  0.13732665767E-01 -0.15197409908E-01  0.26848801021E-01  0.51100000000E-03 0. -1.
</event>
<event>
 8    1  0.1054086E+005  0.1043930E+01  0.7957747E-01            NaN
         13   -1    0    0    0    0  0.00000000000E+00  0.00000000000E+00  0.74505805969E-08  0.10566000000E+00  0.10566000000E+00 0.  1.
     999900   -1    0    0    0    0 -0.00000000000E+00 -0.00000000000E+00 -0.74505805969E-08  0.93827000000E+00  0.93827000000E+00 0.  1.
     999902    2    1    2    0    0  0.33022389567E-02  0.21240667979E-01 -0.99477946587E-02  0.10202439413E+01  0.10199689556E+01 0.  0.
     999903    2    3    3    0    0 -0.69852430648E-01 -0.10560103952E+00 -0.41288153534E-03  0.12809410018E+00  0.19416137970E-01 0.  0.
         14    1    1    2    0    0 -0.33022389567E-02 -0.21240667979E-01  0.99477946587E-02  0.23686058703E-01  0.00000000000E+00 0.  1.
     999901    1    3    3    0    0  0.73154669605E-01  0.12684170750E+00 -0.95349131233E-02  0.89214984112E+00  0.88000000000E+00 0. -1.
        -11    1    4    4    0    0 -0.35001419597E-01 -0.38429638218E-01  0.50132920555E-02  0.52223851693E-01  0.51100000000E-03 0.  1.
         11    1    4    4    0    0 -0.34851011051E-01 -0.67171401300E-01 -0.54261735908E-02  0.75870248482E-01  0.51100000000E-03 0. -1.
</event>
<event>
 8    1  0.1054086E+005  0.1043930E+01  0.7957747E-01            NaN
         13   -1    0    0    0    0  0.00000000000E+00  0.00000000000E+00  0.74505805969E-08  0.10566000000E+00  0.10566000000E+00 0. -1.
     999900   -1    0    0    0    0 -0.00000000000E+00 -0.00000000000E+00 -0.74505805969E-08  0.93827000000E+00  0.93827000000E+00 0. -1.
     999902    2    1    2    0    0  0.18861011848E-01 -0.99991531829E-02 -0.10562301049E-01  0.10201122957E+01  0.10198342085E+01 0.  0.
     999903    2    3    3    0    0  0.74831970082E-01 -0.25775318212E-01  0.10247593968E+00  0.13097829043E+00  0.19743443828E-01 0.  0.
         14    1    1    2    0    0 -0.18861011848E-01  0.99991531829E-02  0.10562301049E-01  0.23817704251E-01  0.00000000000E+00 0. -1.
     999901    1    3    3    0    0 -0.55970958234E-01  0.15776165029E-01 -0.11303824073E+00  0.88913400532E+00  0.88000000000E+00 0. -1.
        -11    1    4    4    0    0  0.61835817254E-01 -0.21504521350E-01  0.70586623052E-01  0.96274842035E-01  0.51100000000E-03 0.  1.
         11    1    4    4    0    0  0.12996152829E-01 -0.42707968620E-02  0.31889316632E-01  0.34703448394E-01  0.51100000000E-03 0. -1.
</event>
<event>
 8    1  0.1054086E+005  0.1043930E+01  0.7957747E-01            NaN
         13   -1    0    0    0    0  0.00000000000E+00  0.00000000000E+00  0.74505805969E-08  0.10566000000E+00  0.10566000000E+00 0. -1.
     999900   -1    0    0    0    0 -0.00000000000E+00 -0.00000000000E+00 -0.74505805969E-08  0.93827000000E+00  0.93827000000E+00 0. -1.
     999902    2    1    2    0    0  0.19596273417E-01  0.10654358574E-01 -0.39032368422E-02  0.10212856951E+01  0.10210346255E+01 0.  0.
     999903    2    3    3    0    0  0.72680167227E-01  0.39481039670E-01 -0.10326389154E+00  0.13363631775E+00  0.18816878738E-01 0.  0.
         14    1    1    2    0    0 -0.19596273417E-01 -0.10654358574E-01  0.39032368422E-02  0.22644304942E-01  0.00000000000E+00 0.  1.
     999901    1    3    3    0    0 -0.53083893810E-01 -0.28826681096E-01  0.99360654698E-01  0.88764937730E+00  0.88000000000E+00 0.  1.
        -11    1    4    4    0    0  0.22325944496E-01  0.28857748727E-02 -0.29638512754E-01  0.37222010337E-01  0.51100000000E-03 0. -1.
         11    1    4    4    0    0  0.50354222731E-01  0.36595264797E-01 -0.73625378786E-01  0.96414307418E-01  0.51100000000E-03 0.  1.
</event>
<event>
 8    1  0.1054086E+005  0.1043930E+01  0.7957747E-01            NaN
         13   -1    0    0    0    0  0.00000000000E+00  0.00000000000E+00  0.74505805969E-08  0.10566000000E+00  0.10566000000E+00 0.  1.
     999900   -1    0    0    0    0 -0.00000000000E+00 -0.00000000000E+00 -0.74505805969E-08  0.93827000000E+00  0.93827000000E+00 0. -1.
     999902    2    1    2    0    0  0.46109072857E-02  0.17268809769E-01  0.15108422828E-01  0.10205262247E+01  0.10202578295E+01 0.  0.
     999903    2    3    3    0    0  0.27353239847E-01  0.11020771245E+00  0.67926685668E-01  0.13376547784E+00  0.19627246916E-01 0.  0.
         14    1    1    2    0    0 -0.46109072857E-02 -0.17268809769E-01 -0.15108422828E-01  0.23403775276E-01  0.00000000000E+00 0.  1.
     999901    1    3    3    0    0 -0.22742332561E-01 -0.92938902685E-01 -0.52818262840E-01  0.88676074688E+00  0.88000000000E+00 0.  1.
        -11    1    4    4    0    0  0.28742942913E-01  0.10146369340E+00  0.66779531687E-01  0.12482309409E+00  0.51100000000E-03 0. -1.
         11    1    4    4    0    0 -0.13897030654E-02  0.87440190532E-02  0.11471539809E-02  0.89423837464E-02  0.51100000000E-03 0.  1.
</event>
<event>
 8    1  0.1054086E+005  0.1043930E+01  0.7957747E-01            NaN
         13   -1    0    0    0    0  0.00000000000E+00  0.00000000000E+00  0.74505805969E-08  0.10566000000E+00  0.10566000000E+00 0.  1.
     999900   -1    0    0    0    0 -0.00000000000E+00 -0.00000000000E+00 -0.74505805969E-08  0.93827000000E+00  0.93827000000E+00 0.  1.
     999902    2    1    2    0    0  0.22740724735E-01  0.51341999295E-02 -0.35472935723E-02  0.10203485695E+01  0.10200760361E+01 0.  0.
     999903    2    3    3    0    0  0.45112833094E-01 -0.10666977211E+00  0.57567915460E-01  0.13089047151E+00  0.20115731388E-01 0.  0.
         14    1    1    2    0    0 -0.22740724735E-01 -0.51341999295E-02  0.35472935723E-02  0.23581430450E-01  0.00000000000E+00 0. -1.
     999901    1    3    3    0    0 -0.22372108359E-01  0.11180397204E+00 -0.61115209033E-01  0.88945809804E+00  0.88000000000E+00 0.  1.
        -11    1    4    4    0    0  0.29773722644E-01 -0.45172241420E-01  0.28650558219E-01  0.61221904268E-01  0.51100000000E-03 0. -1.
         11    1    4    4    0    0  0.15339110451E-01 -0.61497530691E-01  0.28917357241E-01  0.69668567240E-01  0.51100000000E-03 0.  1.
</event>
<event>
 8    1  0.1054086E+005  0.1043930E+01  0.7957747E-01            NaN
         13   -1    0    0    0    0  0.00000000000E+00  0.00000000000E+00  0.74505805969E-08  0.10566000000E+00  0.10566000000E+00 0. -1.
     999900   -1    0    0    0    0 -0.00000000000E+00 -0.00000000000E+00 -0.74505805969E-08  0.93827000000E+00  0.93827000000E+00 0.  1.
     999902    2    1    2    0    0  0.21825544056E-01 -0.18106102960E-02 -0.92012850373E-02  0.10201750778E+01  0.10198984719E+01 0.  0.
     999903    2    3    3    0    0  0.12671767059E+00 -0.24941295059E-01  0.25455137706E-01  0.13296684156E+00  0.18782456723E-01 0.  0.
         14    1    1    2    0    0 -0.21825544056E-01  0.18106102960E-02  0.92012850373E-02  0.23754922213E-01  0.00000000000E+00 0. -1.
     999901    1    3    3    0    0 -0.10489212653E+00  0.23130684763E-01 -0.34656422743E-01  0.88720823622E+00  0.88000000000E+00 0. -1.
        -11    1    4    4    0    0  0.56074093344E-01 -0.48132229613E-02  0.18202007987E-01  0.59152728385E-01  0.51100000000E-03 0.  1.
         11    1    4    4    0    0  0.70643577246E-01 -0.20128072098E-01  0.72531297186E-02  0.73814113178E-01  0.51100000000E-03 0. -1.
</event>
<event>
 8    1  0.1054086E+005  0.1043930E+01  0.7957747E-01            NaN
         13   -1    0    0    0    0  0.00000000000E+00  0.00000000000E+00  0.74505805969E-08  0.10566000000E+00  0.10566000000E+00 0. -1.
     999900   -1    0    0    0    0 -0.00000000000E+00 -0.00000000000E+00 -0.74505805969E-08  0.93827000000E+00  0.93827000000E+00 0. -1.
     999902    2    1    2    0    0 -0.17505307587E-01 -0.15979828770E-01 -0.52619441375E-02  0.10196508160E+01  0.10193617158E+01 0.  0.
     999903    2    3    3    0    0  0.88796061866E-01 -0.52958406827E-01 -0.75661512874E-01  0.12969379697E+00  0.20161423197E-01 0.  0.
         14    1    1    2    0    0  0.17505307587E-01  0.15979828770E-01  0.52619441375E-02  0.24279184034E-01  0.00000000000E+00 0. -1.
     999901    1    3    3    0    0 -0.10630136945E+00  0.36978578057E-01  0.70399568737E-01  0.88995701900E+00  0.88000000000E+00 0.  1.
        -11    1    4    4    0    0  0.12379315247E-01 -0.26325463612E-02 -0.34423497836E-02  0.13125876709E-01  0.51100000000E-03 0.  1.
         11    1    4    4    0    0  0.76416746619E-01 -0.50325860466E-01 -0.72219163091E-01  0.11656792026E+00  0.51100000000E-03 0. -1.
</event>
<event>
 8    1  0.1054086E+005  0.1043930E+01  0.7957747E-01            NaN
         13   -1    0    0    0    0  0.00000000000E+00  0.00000000000E+00  0.74505805969E-08  0.10566000000E+00  0.10566000000E+00 0.  1.
     999900   -1    0    0    0    0 -0.00000000000E+00 -0.00000000000E+00 -0.74505805969E-08  0.93827000000E+00  0.93827000000E+00 0. -1.
     999902    2    1    2    0    0  0.17006506508E-01  0.37834345766E-02  0.15444736935E-01  0.10206474842E+01  0.10203818950E+01 0.  0.
     999903    2    3    3    0    0 -0.23437635832E-01 -0.30924177653E-01  0.12449159494E+00  0.13231671013E+00  0.22448319171E-01 0.  0.
         14    1    1    2    0    0 -0.17006506508E-01 -0.37834345766E-02 -0.15444736935E-01  0.23282515753E-01  0.00000000000E+00 0. -1.
     999901    1    3    3    0    0  0.40444142340E-01  0.34707612229E-01 -0.10904685800E+00  0.88833077411E+00  0.88000000000E+00 0. -1.
        -11    1    4    4    0    0 -0.34814068188E-02 -0.12992975701E-02  0.45130277080E-01  0.45285885195E-01  0.51100000000E-03 0.  1.
         11    1    4    4    0    0 -0.19956229013E-01 -0.29624880083E-01  0.79361317858E-01  0.87030824939E-01  0.51100000000E-03 0. -1.
</event>
<event>
 8    1  0.1054086E+005  0.1043930E+01  0.7957747E-01            NaN
         13   -1    0    0    0    0  0.00000000000E+00  0.00000000000E+00  0.74505805969E-08  0.10566000000E+00  0.10566000000E+00 0.  1.
     999900   -1    0    0    0    0 -0.00000000000E+00 -0.00000000000E+00 -0.74505805969E-08  0.93827000000E+00  0.93827000000E+00 0.  1.
     999902    2    1    2    0    0  0.12557285999E-01  0.39103954271E-02 -0.20458813351E-01  0.10196084115E+01  0.10193182884E+01 0.  0.
     999903    2    3    3    0    0  0.11603287639E+00 -0.58231902683E-01 -0.21732660212E-02  0.13118102320E+00  0.18685686223E-01 0.  0.
         14    1    1    2    0    0 -0.12557285999E-01 -0.39103954271E-02  0.20458813351E-01  0.24321588513E-01  0.00000000000E+00 0. -1.
     999901    1    3    3    0    0 -0.10347559039E+00  0.62142298110E-01 -0.18285547330E-01  0.88842738829E+00  0.88000000000E+00 0.  1.
        -11    1    4    4    0    0  0.34737400377E-01 -0.24229118865E-01  0.55683979147E-02  0.42720081487E-01  0.51100000000E-03 0. -1.
         11    1    4    4    0    0  0.81295476009E-01 -0.34002783817E-01 -0.77416639359E-02  0.88460941711E-01  0.51100000000E-03 0.  1.
</event>
<event>
 8    1  0.1054086E+005  0.1043930E+01  0.7957747E-01            NaN
         13   -1    0    0    0    0  0.00000000000E+00  0.00000000000E+00  0.74505805969E-08  0.10566000000E+00  0.10566000000E+00 0.  1.
     999900   -1    0    0    0    0 -0.00000000000E+00 -0.00000000000E+00 -0.74505805969E-08  0.93827000000E+00  0.93827000000E+00 0. -1.
     999902    2    1    2    0    0  0.91532159265E-02 -0.20823850567E-01 -0.11207600328E-02  0.10211556676E+01  0.10209016736E+01 0.  0.
     999903    2    3    3    0    0  0.99077664909E-01  0.81958338499E-01 -0.86187450966E-02  0.13059022658E+00  0.21118039177E-01 0.  0.
         14    1    1    2    0    0 -0.91532159265E-02  0.20823850567E-01  0.11207600328E-02  0.22774332422E-01  0.00000000000E+00 0. -1.
     999901    1    3    3    0    0 -0.89924448983E-01 -0.10278218907E+00  0.74979850638E-02  0.89056544099E+00  0.88000000000E+00 0. -1.
        -11    1    4    4    0    0  0.38131013330E-01  0.19188892969E-01 -0.15621258452E-03  0.42690435865E-01  0.51100000000E-03 0. -1.
         11    1    4    4    0    0  0.60946651579E-01  0.62769445530E-01 -0.84625325121E-02  0.87899790719E-01  0.51100000000E-03 0.  1.
</event>
<event>
 8    1  0.1054086E+005  0.1043930E+01  0.7957747E-01            NaN
         13   -1    0    0    0    0  0.00000000000E+00  0.00000000000E+00  0.74505805969E-08  0.10566000000E+00  0.10566000000E+00 0.  1.
     999900   -1    0    0    0    0 -0.00000000000E+00 -0.00000000000E+00 -0.74505805969E-08  0.93827000000E+00  0.93827000000E+00 0. -1.
     999902    2    1    2    0    0 -0.17107923891E-01 -0.14489557748E-01  0.12037986883E-01  0.10184831638E+01  0.10181652192E+01 0.  0.
     999903    2    3    3    0    0 -0.11480301472E+00 -0.19599672617E-01 -0.54999394660E-01  0.13052795404E+00  0.21183342896E-01 0.  0.
         14    1    1    2    0    0  0.17107923891E-01  0.14489557748E-01 -0.12037986883E-01  0.25446836184E-01  0.00000000000E+00 0. -1.
     999901    1    3    3    0    0  0.97695090832E-01  0.51101148692E-02  0.67037381543E-01  0.88795520978E+00  0.88000000000E+00 0.  1.
        -11    1    4    4    0    0 -0.30531674054E-01  0.62370163438E-03 -0.22639391262E-01  0.38018091509E-01  0.51100000000E-03 0.  1.
         11    1    4    4    0    0 -0.84271340669E-01 -0.20223374251E-01 -0.32360003398E-01  0.92509862529E-01  0.51100000000E-03 0. -1.
</event>
<event>
 8    1  0.1054086E+005  0.1043930E+01  0.7957747E-01            NaN
         13   -1    0    0    0    0  0.00000000000E+00  0.00000000000E+00  0.74505805969E-08  0.10566000000E+00  0.10566000000E+00 0. -1.
     999900   -1    0    0    0    0 -0.00000000000E+00 -0.00000000000E+00 -0.74505805969E-08  0.93827000000E+00  0.93827000000E+00 0. -1.
     999902    2    1    2    0    0 -0.19837836235E-01 -0.13468541673E-01  0.93314764403E-03  0.10199339144E+01  0.10196515962E+01 0.  0.
     999903    2    3    3    0    0 -0.44670780571E-01  0.98545282142E-01 -0.68466081399E-01  0.12977661094E+00  0.21159233810E-01 0.  0.
         14    1    1    2    0    0  0.19837836235E-01  0.13468541673E-01 -0.93314764403E-03  0.23996085635E-01  0.00000000000E+00 0. -1.
     999901    1    3    3    0    0  0.24832944336E-01 -0.11201382382E+00  0.69399229043E-01  0.89015730343E+00  0.88000000000E+00 0. -1.
        -11    1    4    4    0    0 -0.26562986757E-01  0.77782837922E-01 -0.45774418116E-01  0.94081457341E-01  0.51100000000E-03 0. -1.
         11    1    4    4    0    0 -0.18107793814E-01  0.20762444221E-01 -0.22691663283E-01  0.35695153598E-01  0.51100000000E-03 0.  1.
</event>
<event>
 8    1  0.1054086E+005  0.1043930E+01  0.7957747E-01            NaN
         13   -1    0    0    0    0  0.00000000000E+00  0.00000000000E+00  0.74505805969E-08  0.10566000000E+00  0.10566000000E+00 0.  1.
     999900   -1    0    0    0    0 -0.00000000000E+00 -0.00000000000E+00 -0.74505805969E-08  0.93827000000E+00  0.93827000000E+00 0. -1.
     999902    2    1    2    0    0 -0.20659612642E-01 -0.10436947197E-02  0.12753586312E-01  0.10196285009E+01  0.10193388627E+01 0.  0.
     999903    2    3    3    0    0  0.96889948922E-02  0.89927214247E-02 -0.12593049486E+00  0.12819423975E+00  0.20013193370E-01 0.  0.
         14    1    1    2    0    0  0.20659612642E-01  0.10436947197E-02 -0.12753586312E-01  0.24301499069E-01  0.00000000000E+00 0. -1.
     999901    1    3    3    0    0 -0.30348607534E-01 -0.10036416144E-01  0.13868408118E+00  0.89143426118E+00  0.88000000000E+00 0.  1.
        -11    1    4    4    0    0  0.83934083362E-02 -0.42515068837E-02 -0.33159735618E-01  0.34472507909E-01  0.51100000000E-03 0. -1.
         11    1    4    4    0    0  0.12955865560E-02  0.13244228308E-01 -0.92770759246E-01  0.93721731845E-01  0.51100000000E-03 0.  1.
</event>
<event>
 8    1  0.1054086E+005  0.1043930E+01  0.7957747E-01            NaN
         13   -1    0    0    0    0  0.00000000000E+00  0.00000000000E+00  0.74505805969E-08  0.10566000000E+00  0.10566000000E+00 0.  1.
     999900   -1    0    0    0    0 -0.00000000000E+00 -0.00000000000E+00 -0.74505805969E-08  0.93827000000E+00  0.93827000000E+00 0. -1.
     999902    2    1    2    0    0  0.88796120212E-02 -0.14423712483E-01  0.20583554022E-01  0.10172734119E+01  0.10169240979E+01 0.  0.
     999903    2    3    3    0    0  0.15795468499E-01  0.12047322647E+00 -0.23392784944E-01  0.12588184163E+00  0.23145637694E-01 0.  0.
         14    1    1    2    0    0 -0.88796120212E-02  0.14423712483E-01 -0.20583554022E-01  0.26656588071E-01  0.00000000000E+00 0. -1.
     999901    1    3    3    0    0 -0.69158564779E-02 -0.13489693895E+00  0.43976338966E-01  0.89139157030E+00  0.88000000000E+00 0.  1.
        -11    1    4    4    0    0  0.59545286354E-02  0.10120618813E+00 -0.14210468469E-01  0.10237356818E+00  0.51100000000E-03 0. -1.
         11    1    4    4    0    0  0.98409398637E-02  0.19267038335E-01 -0.91823164743E-02  0.23508273447E-01  0.51100000000E-03 0.  1.
</event>
<event>
 7    1  0.1841583E+005  0.1043930E+01  0.7957747E-01            NaN
         13   -1    0    0    0    0  0.00000000000E+00  0.00000000000E+00  0.74505805969E-08  0.10566000000E+00  0.10566000000E+00 0.  1.
     999900   -1    0    0    0    0 -0.00000000000E+00 -0.00000000000E+00 -0.74505805969E-08  0.93827000000E+00  0.93827000000E+00 0.  1.
     999903    2    1    2    0    0  0.70094559350E-01 -0.17965341906E-01  0.36458195546E-01  0.83854734940E-01  0.21596661527E-01 0.  0.
         14    1    1    2    0    0  0.55675746386E-01  0.54621378410E-03  0.38676438977E-01  0.67793465888E-01  0.00000000000E+00 0. -1.
     999901    1    1    2    0    0 -0.12577030574E+00  0.17419128122E-01 -0.75134634523E-01  0.89228179917E+00  0.88000000000E+00 0.  1.
        -11    1    3    3    0    0  0.45549576709E-01 -0.11621703105E-02  0.24997247858E-01  0.51973436482E-01  0.51100000000E-03 0.  1.
         11    1    3    3    0    0  0.24544982640E-01 -0.16803171595E-01  0.11460947688E-01  0.31881298458E-01  0.51100000000E-03 0. -1.
</event>
<event>
 8    1  0.1054086E+005  0.1043930E+01  0.7957747E-01            NaN
         13   -1    0    0    0    0  0.00000000000E+00  0.00000000000E+00  0.74505805969E-08  0.10566000000E+00  0.10566000000E+00 0.  1.
     999900   -1    0    0    0    0 -0.00000000000E+00 -0.00000000000E+00 -0.74505805969E-08  0.93827000000E+00  0.93827000000E+00 0. -1.
     999902    2    1    2    0    0 -0.17595469037E-01 -0.13713908122E-01  0.57964022142E-02  0.10208807032E+01  0.10206204681E+01 0.  0.
     999903    2    3    3    0    0  0.12800051116E-01 -0.12114612010E+00  0.48849381955E-01  0.13278210115E+00  0.20114684753E-01 0.  0.
         14    1    1    2    0    0  0.17595469037E-01  0.13713908122E-01 -0.57964022142E-02  0.23049296849E-01  0.00000000000E+00 0. -1.
     999901    1    3    3    0    0 -0.30395520152E-01  0.10743221198E+00 -0.43052979741E-01  0.88809860200E+00  0.88000000000E+00 0. -1.
        -11    1    4    4    0    0  0.23608858678E-02 -0.14093750013E-01  0.13217859692E-01  0.19472557802E-01  0.51100000000E-03 0.  1.
         11    1    4    4    0    0  0.10439165248E-01 -0.10705237009E+00  0.35631522263E-01  0.11330954335E+00  0.51100000000E-03 0. -1.
</event>
<event>
 8    1  0.1054086E+005  0.1043930E+01  0.7957747E-01            NaN
         13   -1    0    0    0    0  0.00000000000E+00  0.00000000000E+00  0.74505805969E-08  0.10566000000E+00  0.10566000000E+00 0.  1.
     999900   -1    0    0    0    0 -0.00000000000E+00 -0.00000000000E+00 -0.74505805969E-08  0.93827000000E+00  0.93827000000E+00 0.  1.
     999902    2    1    2    0    0 -0.32610519777E-02 -0.25092953496E-01  0.65376332420E-02  0.10177951301E+01  0.10174595301E+01 0.  0.
     999903    2    3    3    0    0 -0.10058615158E+00 -0.80757837879E-01  0.76236438352E-02  0.13068074416E+00  0.19491913183E-01 0.  0.
         14    1    1    2    0    0  0.32610519777E-02  0.25092953496E-01 -0.65376332420E-02  0.26134869879E-01  0.00000000000E+00 0. -1.
     999901    1    3    3    0    0  0.97325099603E-01  0.55664884382E-01 -0.10860105932E-02  0.88711438596E+00  0.88000000000E+00 0.  1.
        -11    1    4    4    0    0 -0.77741702905E-01 -0.52309701192E-01  0.92281412731E-02  0.94156767795E-01  0.51100000000E-03 0. -1.
         11    1    4    4    0    0 -0.22844448675E-01 -0.28448136687E-01 -0.16044974380E-02  0.36523976362E-01  0.51100000000E-03 0.  1.
</event>
<event>
 8    1  0.1054086E+005  0.1043930E+01  0.7957747E-01            NaN
         13   -1    0    0    0    0  0.00000000000E+00  0.00000000000E+00  0.74505805969E-08  0.10566000000E+00  0.10566000000E+00 0.  1.
     999900   -1    0    0    0    0 -0.00000000000E+00 -0.00000000000E+00 -0.74505805969E-08  0.93827000000E+00  0.93827000000E+00 0.  1.
     999902    2    1    2    0    0 -0.16816290412E-01  0.15721798246E-01  0.43234846429E-02  0.10205066125E+01  0.10202377620E+01 0.  0.
     999903    2    3    3    0    0 -0.54549846878E-01  0.98866262904E-01 -0.67113919168E-01  0.13290302644E+00  0.20216640594E-01 0.  0.
         14    1    1    2    0    0  0.16816290412E-01 -0.15721798246E-01 -0.43234846429E-02  0.23423387517E-01  0.00000000000E+00 0.  1.
     999901    1    3    3    0    0  0.37733556466E-01 -0.83144464658E-01  0.71437403811E-01  0.88760358604E+00  0.88000000000E+00 0. -1.
        -11    1    4    4    0    0 -0.22149074539E-01  0.27925051376E-01 -0.29718182003E-01  0.46409282044E-01  0.51100000000E-03 0.  1.
         11    1    4    4    0    0 -0.32400772339E-01  0.70941211528E-01 -0.37395737165E-01  0.86493744400E-01  0.51100000000E-03 0. -1.
</event>
<event>
 8    1  0.1054086E+005  0.1043930E+01  0.7957747E-01            NaN
         13   -1    0    0    0    0  0.00000000000E+00  0.00000000000E+00  0.74505805969E-08  0.10566000000E+00  0.10566000000E+00 0.  1.
     999900   -1    0    0    0    0 -0.00000000000E+00 -0.00000000000E+00 -0.74505805969E-08  0.93827000000E+00  0.93827000000E+00 0. -1.
     999902    2    1    2    0    0 -0.13105710731E-01  0.76350591919E-02  0.15877736588E-01  0.10219719422E+01  0.10217360199E+01 0.  0.
     999903    2    3    3    0    0  0.54412783152E-01 -0.63550547083E-01 -0.96572759285E-01  0.12940751788E+00  0.20508165301E-01 0.  0.
         14    1    1    2    0    0  0.13105710731E-01 -0.76350591919E-02 -0.15877736588E-01  0.21958057787E-01  0.00000000000E+00 0. -1.
     999901    1    3    3    0    0 -0.67518493883E-01  0.71185606275E-01  0.11245049587E+00  0.89256442433E+00  0.88000000000E+00 0.  1.
        -11    1    4    4    0    0  0.51781176382E-01 -0.49854431829E-01 -0.84647019224E-01  0.11105013996E+00  0.51100000000E-03 0. -1.
         11    1    4    4    0    0  0.26316067694E-02 -0.13696115254E-01 -0.11925740060E-01  0.18357377924E-01  0.51100000000E-03 0.  1.
</event>
<event>
 8    1  0.1054086E+005  0.1043930E+01  0.7957747E-01            NaN
         13   -1    0    0    0    0  0.00000000000E+00  0.00000000000E+00  0.74505805969E-08  0.10566000000E+00  0.10566000000E+00 0.  1.
     999900   -1    0    0    0    0 -0.00000000000E+00 -0.00000000000E+00 -0.74505805969E-08  0.93827000000E+00  0.93827000000E+00 0.  1.
     999902    2    1    2    0    0 -0.46859372403E-02  0.10015300027E-02 -0.23455715500E-01  0.10199898317E+01  0.10197088433E+01 0.  0.
     999903    2    3    3    0    0  0.26303838912E-02  0.11228775396E+00 -0.65716498905E-01  0.13194471682E+00  0.21801180202E-01 0.  0.
         14    1    1    2    0    0  0.46859372403E-02 -0.10015300027E-02  0.23455715500E-01  0.23940168333E-01  0.00000000000E+00 0.  1.
     999901    1    3    3    0    0 -0.73163211315E-02 -0.11128622396E+00  0.42260783404E-01  0.88804511485E+00  0.88000000000E+00 0. -1.
        -11    1    4    4    0    0 -0.28065809892E-02  0.13048973219E-01 -0.11106045519E-02  0.13403251934E-01  0.51100000000E-03 0. -1.
         11    1    4    4    0    0  0.54369648804E-02  0.99238780742E-01 -0.64605894353E-01  0.11854146488E+00  0.51100000000E-03 0.  1.
</event>
<event>
 8    1  0.1054086E+005  0.1043930E+01  0.7957747E-01            NaN
         13   -1    0    0    0    0  0.00000000000E+00  0.00000000000E+00  0.74505805969E-08  0.10566000000E+00  0.10566000000E+00 0. -1.
     999900   -1    0    0    0    0 -0.00000000000E+00 -0.00000000000E+00 -0.74505805969E-08  0.93827000000E+00  0.93827000000E+00 0. -1.
     999902    2    1    2    0    0 -0.82275589837E-02  0.11547407517E-01 -0.18744128675E-01  0.10204272830E+01  0.10201565871E+01 0.  0.
     999903    2    3    3    0    0 -0.38389136711E-01 -0.11106994209E+00 -0.53636928953E-01  0.13072944512E+00  0.20075104465E-01 0.  0.
         14    1    1    2    0    0  0.82275589837E-02 -0.11547407517E-01  0.18744128675E-01  0.23502717013E-01  0.00000000000E+00 0.  1.
     999901    1    3    3    0    0  0.30161577727E-01  0.12261734961E+00  0.34892800277E-01  0.88969783787E+00  0.88000000000E+00 0.  1.
        -11    1    4    4    0    0 -0.17652369074E-01 -0.78237631567E-01 -0.39454352202E-01  0.89384787049E-01  0.51100000000E-03 0.  1.
         11    1    4    4    0    0 -0.20736767637E-01 -0.32832310527E-01 -0.14182576751E-01  0.41344658069E-01  0.51100000000E-03 0. -1.
</event>
<event>
 8    1  0.1054086E+005  0.1043930E+01  0.7957747E-01            NaN
         13   -1    0    0    0    0  0.00000000000E+00  0.00000000000E+00  0.74505805969E-08  0.10566000000E+00  0.10566000000E+00 0.  1.
     999900   -1    0    0    0    0 -0.00000000000E+00 -0.00000000000E+00 -0.74505805969E-08  0.93827000000E+00  0.93827000000E+00 0. -1.
     999902    2    1    2    0    0  0.22454528694E-01  0.60549758502E-02 -0.30730013134E-02  0.10204712718E+01  0.10202016000E+01 0.  0.
     999903    2    3    3    0    0  0.40155800187E-01 -0.12047751440E+00 -0.16877726332E-01  0.13113760184E+00  0.28015945572E-01 0.  0.
         14    1    1    2    0    0 -0.22454528694E-01 -0.60549758502E-02  0.30730013134E-02  0.23458728194E-01  0.00000000000E+00 0. -1.
     999901    1    3    3    0    0 -0.17701271493E-01  0.12653249025E+00  0.13804725018E-01  0.88933366997E+00  0.88000000000E+00 0. -1.
        -11    1    4    4    0    0  0.34902687427E-01 -0.77372165139E-01 -0.21219386472E-01  0.87493845562E-01  0.51100000000E-03 0. -1.
         11    1    4    4    0    0  0.52531127604E-02 -0.43105349258E-01  0.43416601399E-02  0.43643756279E-01  0.51100000000E-03 0.  1.
</event>
<event>
 8    1  0.1054086E+005  0.1043930E+01  0.7957747E-01            NaN
         13   -1    0    0    0    0  0.00000000000E+00  0.00000000000E+00  0.74505805969E-08  0.10566000000E+00  0.10566000000E+00 0. -1.
     999900   -1    0    0    0    0 -0.00000000000E+00 -0.00000000000E+00 -0.74505805969E-08  0.93827000000E+00  0.93827000000E+00 0.  1.
     999902    2    1    2    0    0 -0.21944908036E-01  0.71231722458E-02  0.36413981514E-02  0.10205723813E+01  0.10203050559E+01 0.  0.
     999903    2    3    3    0    0  0.17162202317E-01 -0.45585950571E-01 -0.11855125058E+00  0.12970838431E+00  0.19931027746E-01 0.  0.
         14    1    1    2    0    0  0.21944908036E-01 -0.71231722458E-02 -0.36413981514E-02  0.23357618716E-01  0.00000000000E+00 0. -1.
     999901    1    3    3    0    0 -0.39107110354E-01  0.52709122817E-01  0.12219264873E+00  0.89086399698E+00  0.88000000000E+00 0. -1.
        -11    1    4    4    0    0  0.10865754809E-01 -0.27353685320E-01 -0.93883437012E-01  0.98390292176E-01  0.51100000000E-03 0.  1.
         11    1    4    4    0    0  0.62964475086E-02 -0.18232265251E-01 -0.24667813569E-01  0.31318092130E-01  0.51100000000E-03 0. -1.
</event>
<event>
 8    1  0.1054086E+005  0.1043930E+01  0.7957747E-01            NaN
         13   -1    0    0    0    0  0.00000000000E+00  0.00000000000E+00  0.74505805969E-08  0.10566000000E+00  0.10566000000E+00 0.  1.
     999900   -1    0    0    0    0 -0.00000000000E+00 -0.00000000000E+00 -0.74505805969E-08  0.93827000000E+00  0.93827000000E+00 0. -1.
     999902    2    1    2    0    0  0.17335927515E-01 -0.10285953002E-01  0.11183696856E-01  0.10208776620E+01  0.10206173575E+01 0.  0.
     999903    2    3    3    0    0  0.55899270252E-01 -0.99863339691E-01  0.66304155488E-01  0.13377591780E+00  0.20058417636E-01 0.  0.
         14    1    1    2    0    0 -0.17335927515E-01  0.10285953002E-01 -0.11183696856E-01  0.23052338001E-01  0.00000000000E+00 0. -1.
     999901    1    3    3    0    0 -0.38563342738E-01  0.89577386689E-01 -0.55120458632E-01  0.88710174420E+00  0.88000000000E+00 0. -1.
        -11    1    4    4    0    0  0.37562055345E-01 -0.68454270986E-01  0.55610634912E-01  0.95862918036E-01  0.51100000000E-03 0.  1.
         11    1    4    4    0    0  0.18337214907E-01 -0.31409068706E-01  0.10693520575E-01  0.37912999760E-01  0.51100000000E-03 0. -1.
</event>
<event>
 8    1  0.1054086E+005  0.1043930E+01  0.7957747E-01            NaN
         13   -1    0    0    0    0  0.00000000000E+00  0.00000000000E+00  0.74505805969E-08  0.10566000000E+00  0.10566000000E+00 0. -1.
     999900   -1    0    0    0    0 -0.00000000000E+00 -0.00000000000E+00 -0.74505805969E-08  0.93827000000E+00  0.93827000000E+00 0. -1.
     999902    2    1    2    0    0 -0.63369582405E-02  0.19759253761E-01  0.12204778216E-01  0.10198563264E+01  0.10195721577E+01 0.  0.
     999903    2    3    3    0    0  0.95332407419E-01  0.63337593166E-01  0.61664805316E-01  0.13155343558E+00  0.20095760371E-01 0.  0.
         14    1    1    2    0    0  0.63369582405E-02 -0.19759253761E-01 -0.12204778216E-01  0.24073673592E-01  0.00000000000E+00 0.  1.
     999901    1    3    3    0    0 -0.10166936566E+00 -0.43578339405E-01 -0.49460027100E-01  0.88830289083E+00  0.88000000000E+00 0. -1.
        -11    1    4    4    0    0  0.39563960618E-01  0.20798528457E-01  0.33961155935E-01  0.56138284612E-01  0.51100000000E-03 0. -1.
         11    1    4    4    0    0  0.55768446801E-01  0.42539064709E-01  0.27703649381E-01  0.75415150964E-01  0.51100000000E-03 0.  1.
</event>
<event>
 8    1  0.1054086E+005  0.1043930E+01  0.7957747E-01            NaN
         13   -1    0    0    0    0  0.00000000000E+00  0.00000000000E+00  0.74505805969E-08  0.10566000000E+00  0.10566000000E+00 0.  1.
     999900   -1    0    0    0    0 -0.00000000000E+00 -0.00000000000E+00 -0.74505805969E-08  0.93827000000E+00  0.93827000000E+00 0. -1.
     999902    2    1    2    0    0 -0.48252054744E-02 -0.20857258983E-01  0.79825729923E-02  0.10210820388E+01  0.10208263812E+01 0.  0.
     999903    2    3    3    0    0 -0.27418892928E-01  0.22336932997E-02  0.12802170571E+00  0.13234526101E+00  0.19207443917E-01 0.  0.
         14    1    1    2    0    0  0.48252054744E-02  0.20857258983E-01 -0.79825729923E-02  0.22847961216E-01  0.00000000000E+00 0. -1.
     999901    1    3    3    0    0  0.22593687454E-01 -0.23090952282E-01 -0.12003913272E+00  0.88873677778E+00  0.88000000000E+00 0. -1.
        -11    1    4    4    0    0 -0.24695047368E-01  0.63390020171E-02  0.77639031645E-01  0.81719695709E-01  0.51100000000E-03 0.  1.
         11    1    4    4    0    0 -0.27238455598E-02 -0.41053087175E-02  0.50382674069E-01  0.50625565297E-01  0.51100000000E-03 0. -1.
</event>
<event>
 8    1  0.1054086E+005  0.1043930E+01  0.7957747E-01            NaN
         13   -1    0    0    0    0  0.00000000000E+00  0.00000000000E+00  0.74505805969E-08  0.10566000000E+00  0.10566000000E+00 0. -1.
     999900   -1    0    0    0    0 -0.00000000000E+00 -0.00000000000E+00 -0.74505805969E-08  0.93827000000E+00  0.93827000000E+00 0.  1.
     999902    2    1    2    0    0 -0.11741324815E-01  0.55298861224E-02  0.21634494224E-01  0.10187012527E+01  0.10183888023E+01 0.  0.
     999903    2    3    3    0    0 -0.11149323879E+00 -0.29286279510E-01 -0.54401784987E-01  0.12912600268E+00  0.20628666806E-01 0.  0.
         14    1    1    2    0    0  0.11741324815E-01 -0.55298861224E-02 -0.21634494224E-01  0.25228747279E-01  0.00000000000E+00 0. -1.
     999901    1    3    3    0    0  0.99751913977E-01  0.34816165632E-01  0.76036279211E-01  0.88957525004E+00  0.88000000000E+00 0.  1.
        -11    1    4    4    0    0 -0.39021198304E-01 -0.35816783383E-02 -0.10465178133E-01  0.40561846742E-01  0.51100000000E-03 0.  1.
         11    1    4    4    0    0 -0.72472040488E-01 -0.25704601172E-01 -0.43936606854E-01  0.88564155937E-01  0.51100000000E-03 0. -1.
</event>
<event>
 8    1  0.1054086E+005  0.1043930E+01  0.7957747E-01            NaN
         13   -1    0    0    0    0  0.00000000000E+00  0.00000000000E+00  0.74505805969E-08  0.10566000000E+00  0.10566000000E+00 0.  1.
     999900   -1    0    0    0    0 -0.00000000000E+00 -0.00000000000E+00 -0.74505805969E-08  0.93827000000E+00  0.93827000000E+00 0.  1.
     999902    2    1    2    0    0 -0.16366619775E-01  0.75217771928E-02 -0.13797131563E-01  0.10212407026E+01  0.10209886231E+01 0.  0.
     999903    2    3    3    0    0 -0.11104870203E+00  0.30196446518E-01 -0.64732584419E-01  0.13440742762E+00  0.25127863243E-01 0.  0.
         14    1    1    2    0    0  0.16366619775E-01 -0.75217771928E-02  0.13797131563E-01  0.22689297353E-01  0.00000000000E+00 0. -1.
     999901    1    3    3    0    0  0.94682082251E-01 -0.22674669325E-01  0.50935452856E-01  0.88683327502E+00  0.88000000000E+00 0.  1.
        -11    1    4    4    0    0 -0.27888574500E-01  0.17755136638E-01 -0.12115040786E-01  0.35214383409E-01  0.51100000000E-03 0.  1.
         11    1    4    4    0    0 -0.83160127527E-01  0.12441309880E-01 -0.52617543633E-01  0.99193044216E-01  0.51100000000E-03 0. -1.
</event>
<event>
 8    1  0.1054086E+005  0.1043930E+01  0.7957747E-01            NaN
         13   -1    0    0    0    0  0.00000000000E+00  0.00000000000E+00  0.74505805969E-08  0.10566000000E+00  0.10566000000E+00 0. -1.
     999900   -1    0    0    0    0 -0.00000000000E+00 -0.00000000000E+00 -0.74505805969E-08  0.93827000000E+00  0.93827000000E+00 0. -1.
     999902    2    1    2    0    0  0.64111964892E-02  0.19996247207E-01  0.62271447780E-02  0.10220272450E+01  0.10217925224E+01 0.  0.
     999903    2    3    3    0    0  0.56687942459E-01  0.75163480956E-01 -0.92441233228E-01  0.13337285570E+00  0.19490134642E-01 0.  0.
         14    1    1    2    0    0 -0.64111964892E-02 -0.19996247207E-01 -0.62271447780E-02  0.21902754961E-01  0.00000000000E+00 0. -1.
     999901    1    3    3    0    0 -0.50276745970E-01 -0.55167233749E-01  0.98668378006E-01  0.88865438933E+00  0.88000000000E+00 0.  1.
        -11    1    4    4    0    0  0.25238324944E-01  0.49132475721E-01 -0.55727272937E-01  0.78465044997E-01  0.51100000000E-03 0.  1.
         11    1    4    4    0    0  0.31449617515E-01  0.26031005236E-01 -0.36713960291E-01  0.54907810708E-01  0.51100000000E-03 0. -1.
</event>
<event>
 8    1  0.1054086E+005  0.1043930E+01  0.7957747E-01            NaN
         13   -1    0    0    0    0  0.00000000000E+00  0.00000000000E+00  0.74505805969E-08  0.10566000000E+00  0.10566000000E+00 0.  1.
     999900   -1    0    0    0    0 -0.00000000000E+00 -0.00000000000E+00 -0.74505805969E-08  0.93827000000E+00  0.93827000000E+00 0.  1.
     999902    2    1    2    0    0 -0.19685158762E-01  0.10787977358E-01  0.19265454616E-02  0.10214000753E+01  0.10211515638E+01 0.  0.
     999903    2    3    3    0    0  0.68178019381E-01  0.10558482092E+00 -0.32607339775E-01  0.13128830203E+00  0.19416047699E-01 0.  0.
         14    1    1    2    0    0  0.19685158762E-01 -0.10787977358E-01 -0.19265454616E-02  0.22529924731E-01  0.00000000000E+00 0. -1.
     999901    1    3    3    0    0 -0.87863178143E-01 -0.94796843562E-01  0.34533885237E-01  0.89011177324E+00  0.88000000000E+00 0. -1.
        -11    1    4    4    0    0  0.31349128924E-01  0.66065691533E-01 -0.20025812176E-01  0.75820430995E-01  0.51100000000E-03 0.  1.
         11    1    4    4    0    0  0.36828890456E-01  0.39519129388E-01 -0.12581527599E-01  0.55467871038E-01  0.51100000000E-03 0. -1.
</event>
<event>
 8    1  0.1054086E+005  0.1043930E+01  0.7957747E-01            NaN
         13   -1    0    0    0    0  0.00000000000E+00  0.00000000000E+00  0.74505805969E-08  0.10566000000E+00  0.10566000000E+00 0.  1.
     999900   -1    0    0    0    0 -0.00000000000E+00 -0.00000000000E+00 -0.74505805969E-08  0.93827000000E+00  0.93827000000E+00 0.  1.
     999902    2    1    2    0    0 -0.19503727521E-01  0.11162295298E-01  0.63773293662E-02  0.10205705789E+01  0.10203032118E+01 0.  0.
     999903    2    3    3    0    0 -0.91549414136E-01  0.70533764472E-01 -0.62025635739E-01  0.13299268490E+00  0.21990170274E-01 0.  0.
         14    1    1    2    0    0  0.19503727521E-01 -0.11162295298E-01 -0.63773293662E-02  0.23359421084E-01  0.00000000000E+00 0.  1.
     999901    1    3    3    0    0  0.72045686615E-01 -0.59371469174E-01  0.68402965105E-01  0.88757789402E+00  0.88000000000E+00 0. -1.
        -11    1    4    4    0    0 -0.47650247475E-01  0.40212279403E-01 -0.21369332036E-01  0.65912692040E-01  0.51100000000E-03 0.  1.
         11    1    4    4    0    0 -0.43899166661E-01  0.30321485068E-01 -0.40656303703E-01  0.67079992860E-01  0.51100000000E-03 0. -1.
</event>
<event>
 8    1  0.1054086E+005  0.1043930E+01  0.7957747E-01            NaN
         13   -1    0    0    0    0  0.00000000000E+00  0.00000000000E+00  0.74505805969E-08  0.10566000000E+00  0.10566000000E+00 0.  1.
     999900   -1    0    0    0    0 -0.00000000000E+00 -0.00000000000E+00 -0.74505805969E-08  0.93827000000E+00  0.93827000000E+00 0. -1.
     999902    2    1    2    0    0 -0.58964879395E-02  0.67635954253E-02 -0.22952921615E-01  0.10192854995E+01  0.10189875260E+01 0.  0.
     999903    2    3    3    0    0  0.58768164837E-01 -0.10041573921E-01 -0.11598157282E+00  0.13186324322E+00  0.19536101784E-01 0.  0.
         14    1    1    2    0    0  0.58964879395E-02 -0.67635954253E-02  0.22952921615E-01  0.24644500477E-01  0.00000000000E+00 0.  1.
     999901    1    3    3    0    0 -0.64664652776E-01  0.16805169346E-01  0.93028651208E-01  0.88742225630E+00  0.88000000000E+00 0.  1.
        -11    1    4    4    0    0  0.38029750977E-01 -0.13321400788E-01 -0.62063039028E-01  0.73998673047E-01  0.51100000000E-03 0.  1.
         11    1    4    4    0    0  0.20738413860E-01  0.32798268674E-02 -0.53918533796E-01  0.57864570174E-01  0.51100000000E-03 0. -1.
</event>
<event>
 8    1  0.1054086E+005  0.1043930E+01  0.7957747E-01            NaN
         13   -1    0    0    0    0  0.00000000000E+00  0.00000000000E+00  0.74505805969E-08  0.10566000000E+00  0.10566000000E+00 0.  1.
     999900   -1    0    0    0    0 -0.00000000000E+00 -0.00000000000E+00 -0.74505805969E-08  0.93827000000E+00  0.93827000000E+00 0.  1.
     999902    2    1    2    0    0  0.98969030106E-02 -0.45439613441E-02 -0.21826373868E-01  0.10195376473E+01  0.10192458130E+01 0.  0.
     999903    2    3    3    0    0  0.12971864037E-01 -0.79192853159E-01  0.98041582608E-01  0.12827436441E+00  0.20059496439E-01 0.  0.
         14    1    1    2    0    0 -0.98969030106E-02  0.45439613441E-02  0.21826373868E-01  0.24392352698E-01  0.00000000000E+00 0.  1.
     999901    1    3    3    0    0 -0.30749610259E-02  0.74648891815E-01 -0.11986795648E+00  0.89126328289E+00  0.88000000000E+00 0.  1.
        -11    1    4    4    0    0 -0.19292271760E-02 -0.34176454385E-01  0.51416800286E-01  0.61771356019E-01  0.51100000000E-03 0.  1.
         11    1    4    4    0    0  0.14901091213E-01 -0.45016398774E-01  0.46624782322E-01  0.66503008395E-01  0.51100000000E-03 0. -1.
</event>
<event>
 8    1  0.1054086E+005  0.1043930E+01  0.7957747E-01            NaN
         13   -1    0    0    0    0  0.00000000000E+00  0.00000000000E+00  0.74505805969E-08  0.10566000000E+00  0.10566000000E+00 0. -1.
     999900   -1    0    0    0    0 -0.00000000000E+00 -0.00000000000E+00 -0.74505805969E-08  0.93827000000E+00  0.93827000000E+00 0. -1.
     999902    2    1    2    0    0  0.24322526966E-01  0.82284744028E-02  0.68356377950E-02  0.10173589810E+01  0.10170119356E+01 0.  0.
     999903    2    3    3    0    0 -0.10706262718E+00  0.51885022763E-01  0.36617643802E-01  0.12603697358E+00  0.19748547931E-01 0.  0.
         14    1    1    2    0    0 -0.24322526966E-01 -0.82284744028E-02 -0.68356377950E-02  0.26571019045E-01  0.00000000000E+00 0.  1.
     999901    1    3    3    0    0  0.13138515415E+00 -0.43656548360E-01 -0.29782006007E-01  0.89132200737E+00  0.88000000000E+00 0.  1.
        -11    1    4    4    0    0 -0.31455418218E-01  0.57490895063E-02  0.81746282029E-02  0.33008802352E-01  0.51100000000E-03 0. -1.
         11    1    4    4    0    0 -0.75607208967E-01  0.46135933256E-01  0.28443015600E-01  0.93028171231E-01  0.51100000000E-03 0.  1.
</event>
<event>
 8    1  0.1054086E+005  0.1043930E+01  0.7957747E-01            NaN
         13   -1    0    0    0    0  0.00000000000E+00  0.00000000000E+00  0.74505805969E-08  0.10566000000E+00  0.10566000000E+00 0.  1.
     999900   -1    0    0    0    0 -0.00000000000E+00 -0.00000000000E+00 -0.74505805969E-08  0.93827000000E+00  0.93827000000E+00 0. -1.
     999902    2    1    2    0    0  0.94604697973E-02 -0.20621123926E-01 -0.33955625251E-02  0.10209896189E+01  0.10207318653E+01 0.  0.
     999903    2    3    3    0    0  0.14312635130E-01  0.10834506361E+00 -0.66347257648E-01  0.12935138678E+00  0.19654982368E-01 0.  0.
         14    1    1    2    0    0 -0.94604697973E-02  0.20621123926E-01  0.33955625251E-02  0.22940381113E-01  0.00000000000E+00 0.  1.
     999901    1    3    3    0    0 -0.48521653323E-02 -0.12896618753E+00  0.62951695123E-01  0.89163823211E+00  0.88000000000E+00 0.  1.
        -11    1    4    4    0    0  0.15908477112E-02  0.12169541073E-01 -0.15630870382E-01  0.19879983810E-01  0.51100000000E-03 0. -1.
         11    1    4    4    0    0  0.12721787418E-01  0.96175522535E-01 -0.50716387266E-01  0.10947140297E+00  0.51100000000E-03 0.  1.
</event>
<event>
 8    1  0.1054086E+005  0.1043930E+01  0.7957747E-01            NaN
         13   -1    0    0    0    0  0.00000000000E+00  0.00000000000E+00  0.74505805969E-08  0.10566000000E+00  0.10566000000E+00 0.  1.
     999900   -1    0    0    0    0 -0.00000000000E+00 -0.00000000000E+00 -0.74505805969E-08  0.93827000000E+00  0.93827000000E+00 0. -1.
     999902    2    1    2    0    0  0.14001216857E-01  0.17686901651E-01  0.74993237506E-02  0.10201581591E+01  0.10198811544E+01 0.  0.
     999903    2    3    3    0    0  0.40784829890E-01  0.97906596094E-01  0.78146534107E-01  0.13328523153E+00  0.20222963288E-01 0.  0.
         14    1    1    2    0    0 -0.14001216857E-01 -0.17686901651E-01 -0.74993237506E-02  0.23771840909E-01  0.00000000000E+00 0. -1.
     999901    1    3    3    0    0 -0.26783613033E-01 -0.80219694443E-01 -0.70647210356E-01  0.88687292756E+00  0.88000000000E+00 0. -1.
        -11    1    4    4    0    0  0.22871409842E-01  0.61961855850E-01  0.36660917287E-01  0.75542418189E-01  0.51100000000E-03 0.  1.
         11    1    4    4    0    0  0.17913420048E-01  0.35944740245E-01  0.41485616819E-01  0.57742813344E-01  0.51100000000E-03 0. -1.
</event>
<event>
 8    1  0.1054086E+005  0.1043930E+01  0.7957747E-01            NaN
         13   -1    0    0    0    0  0.00000000000E+00  0.00000000000E+00  0.74505805969E-08  0.10566000000E+00  0.10566000000E+00 0. -1.
     999900   -1    0    0    0    0 -0.00000000000E+00 -0.00000000000E+00 -0.74505805969E-08  0.93827000000E+00  0.93827000000E+00 0.  1.
     999902    2    1    2    0    0 -0.17700260768E-01 -0.75710726346E-02  0.13219714519E-01  0.10205766014E+01  0.10203093738E+01 0.  0.
     999903    2    3    3    0    0  0.12235969905E+00  0.19671807187E-01 -0.25911359813E-01  0.12822565713E+00  0.20286562776E-01 0.  0.
         14    1    1    2    0    0  0.17700260768E-01  0.75710726346E-02 -0.13219714519E-01  0.23353398555E-01  0.00000000000E+00 0.  1.
     999901    1    3    3    0    0 -0.14005995982E+00 -0.27242879821E-01  0.39131074332E-01  0.89235094432E+00  0.88000000000E+00 0.  1.
        -11    1    4    4    0    0  0.50711127565E-01  0.56599013403E-02 -0.84759140438E-03  0.51035600068E-01  0.51100000000E-03 0.  1.
         11    1    4    4    0    0  0.71648571483E-01  0.14011905846E-01 -0.25063768409E-01  0.77190057060E-01  0.51100000000E-03 0. -1.
</event>
<event>
 8    1  0.1054086E+005  0.1043930E+01  0.7957747E-01            NaN
         13   -1    0    0    0    0  0.00000000000E+00  0.00000000000E+00  0.74505805969E-08  0.10566000000E+00  0.10566000000E+00 0. -1.
     999900   -1    0    0    0    0 -0.00000000000E+00 -0.00000000000E+00 -0.74505805969E-08  0.93827000000E+00  0.93827000000E+00 0. -1.
     999902    2    1    2    0    0  0.58596810010E-02  0.13805111765E-01  0.18093192757E-01  0.10204293490E+01  0.10201587013E+01 0.  0.
     999903    2    3    3    0    0 -0.34271426407E-01 -0.73036112013E-01 -0.97013025976E-01  0.12779205117E+00  0.20260227208E-01 0.  0.
         14    1    1    2    0    0 -0.58596810010E-02 -0.13805111765E-01 -0.18093192757E-01  0.23500650979E-01  0.00000000000E+00 0.  1.
     999901    1    3    3    0    0  0.40131107408E-01  0.86841223778E-01  0.11510621873E+00  0.89263729785E+00  0.88000000000E+00 0.  1.
        -11    1    4    4    0    0 -0.16319556740E-02 -0.12903526571E-01 -0.71665622577E-02  0.14858836189E-01  0.51100000000E-03 0.  1.
         11    1    4    4    0    0 -0.32639470733E-01 -0.60132585442E-01 -0.89846463719E-01  0.11293321498E+00  0.51100000000E-03 0. -1.
</event>
<event>
 7    1  0.1054086E+005  0.1043930E+01  0.7957747E-01            NaN
         13   -1    0    0    0    0  0.00000000000E+00  0.00000000000E+00  0.74505805969E-08  0.10566000000E+00  0.10566000000E+00 0. -1.
     999900   -1    0    0    0    0 -0.00000000000E+00 -0.00000000000E+00 -0.74505805969E-08  0.93827000000E+00  0.93827000000E+00 0. -1.
     999903    2    1    2    0    0  0.26347091759E-01  0.11155339282E+00  0.18055488589E-01  0.11793291270E+00  0.21067570744E-01 0.  0.
         14    1    1    2    0    0 -0.25707339820E-01 -0.27442646826E-01 -0.18677980195E-01  0.41986106387E-01  0.00000000000E+00 0.  1.
     999901    1    1    2    0    0 -0.63975193967E-03 -0.84110745992E-01  0.62249160586E-03  0.88401098091E+00  0.88000000000E+00 0. -1.
        -11    1    3    3    0    0  0.10976005565E-01  0.16683670927E-01 -0.79798276090E-03  0.19992885516E-01  0.51100000000E-03 0.  1.
         11    1    3    3    0    0  0.15371086194E-01  0.94869721890E-01  0.18853471350E-01  0.97940027186E-01  0.51100000000E-03 0. -1.
</event>
<event>
 8    1  0.1054086E+005  0.1043930E+01  0.7957747E-01            NaN
         13   -1    0    0    0    0  0.00000000000E+00  0.00000000000E+00  0.74505805969E-08  0.10566000000E+00  0.10566000000E+00 0.  1.
     999900   -1    0    0    0    0 -0.00000000000E+00 -0.00000000000E+00 -0.74505805969E-08  0.93827000000E+00  0.93827000000E+00 0.  1.
     999902    2    1    2    0    0 -0.46046546545E-02 -0.41775233340E-02  0.21469043372E-01  0.10215788396E+01  0.10213342995E+01 0.  0.
     999903    2    3    3    0    0  0.15055437257E-01 -0.95282493195E-01 -0.85294975680E-01  0.13023985222E+00  0.19538846684E-01 0.  0.
         14    1    1    2    0    0  0.46046546545E-02  0.41775233340E-02 -0.21469043372E-01  0.22351160350E-01  0.00000000000E+00 0. -1.
     999901    1    3    3    0    0 -0.19660091912E-01  0.91104969861E-01  0.10676401905E+00  0.89133898743E+00  0.88000000000E+00 0. -1.
        -11    1    4    4    0    0  0.13141660317E-01 -0.43626588335E-01 -0.49988880950E-01  0.67639720470E-01  0.51100000000E-03 0.  1.
         11    1    4    4    0    0  0.19137769400E-02 -0.51655904860E-01 -0.35306094729E-01  0.62600131750E-01  0.51100000000E-03 0. -1.
</event>
<event>
 8    1  0.1054086E+005  0.1043930E+01  0.7957747E-01            NaN
         13   -1    0    0    0    0  0.00000000000E+00  0.00000000000E+00  0.74505805969E-08  0.10566000000E+00  0.10566000000E+00 0.  1.
     999900   -1    0    0    0    0 -0.00000000000E+00 -0.00000000000E+00 -0.74505805969E-08  0.93827000000E+00  0.93827000000E+00 0. -1.
     999902    2    1    2    0    0 -0.26051362122E-02  0.22391354737E-02 -0.23128427679E-01  0.10205478566E+01  0.10202799631E+01 0.  0.
     999903    2    3    3    0    0 -0.29708596439E-01 -0.11392223111E+00 -0.55944921800E-01  0.13189439045E+00  0.20135056816E-01 0.  0.
         14    1    1    2    0    0  0.26051362122E-02 -0.22391354737E-02  0.23128427679E-01  0.23382143385E-01  0.00000000000E+00 0.  1.
     999901    1    3    3    0    0  0.27103460226E-01  0.11616136658E+00  0.32816494120E-01  0.88865346617E+00  0.88000000000E+00 0.  1.
        -11    1    4    4    0    0 -0.66661166697E-02 -0.22265328645E-01 -0.26632163333E-02  0.23399483186E-01  0.51100000000E-03 0. -1.
         11    1    4    4    0    0 -0.23042479769E-01 -0.91656902466E-01 -0.53281705466E-01  0.10849490726E+00  0.51100000000E-03 0.  1.
</event>
<event>
 8    1  0.1054086E+005  0.1043930E+01  0.7957747E-01            NaN
         13   -1    0    0    0    0  0.00000000000E+00  0.00000000000E+00  0.74505805969E-08  0.10566000000E+00  0.10566000000E+00 0.  1.
     999900   -1    0    0    0    0 -0.00000000000E+00 -0.00000000000E+00 -0.74505805969E-08  0.93827000000E+00  0.93827000000E+00 0.  1.
     999902    2    1    2    0    0 -0.24693356665E-01  0.46521473103E-02 -0.48831822472E-03  0.10187974953E+01  0.10184874538E+01 0.  0.
     999903    2    3    3    0    0  0.10746899846E+00  0.30559905353E-01  0.56355209470E-01  0.12673848005E+00  0.20080817881E-01 0.  0.
         14    1    1    2    0    0  0.24693356665E-01 -0.46521473103E-02  0.48831822472E-03  0.25132504703E-01  0.00000000000E+00 0. -1.
     999901    1    3    3    0    0 -0.13216235512E+00 -0.25907758043E-01 -0.56843527695E-01  0.89205901524E+00  0.88000000000E+00 0.  1.
        -11    1    4    4    0    0  0.51364151576E-01  0.90923274406E-02  0.35705377324E-01  0.63214567753E-01  0.51100000000E-03 0.  1.
         11    1    4    4    0    0  0.56104846882E-01  0.21467577913E-01  0.20649832147E-01  0.63523912299E-01  0.51100000000E-03 0. -1.
</event>
<event>
 8    1  0.1054086E+005  0.1043930E+01  0.7957747E-01            NaN
         13   -1    0    0    0    0  0.00000000000E+00  0.00000000000E+00  0.74505805969E-08  0.10566000000E+00  0.10566000000E+00 0.  1.
     999900   -1    0    0    0    0 -0.00000000000E+00 -0.00000000000E+00 -0.74505805969E-08  0.93827000000E+00  0.93827000000E+00 0.  1.
     999902    2    1    2    0    0  0.19874574870E-01 -0.13785478273E-01  0.26455030372E-03  0.10197409917E+01  0.10194540607E+01 0.  0.
     999903    2    3    3    0    0 -0.91380266476E-01 -0.54009252762E-01 -0.70654066339E-01  0.12899689713E+00  0.19515375829E-01 0.  0.
         14    1    1    2    0    0 -0.19874574870E-01  0.13785478273E-01 -0.26455030372E-03  0.24189008338E-01  0.00000000000E+00 0. -1.
     999901    1    3    3    0    0  0.11125484135E+00  0.40223774488E-01  0.70918616643E-01  0.89074409453E+00  0.88000000000E+00 0.  1.
        -11    1    4    4    0    0 -0.16778624756E-01 -0.97633794818E-02 -0.45600715738E-02  0.19947461025E-01  0.51100000000E-03 0.  1.
         11    1    4    4    0    0 -0.74601641720E-01 -0.44245873280E-01 -0.66093994766E-01  0.10904943610E+00  0.51100000000E-03 0. -1.
</event>
<event>
 8    1  0.1054086E+005  0.1043930E+01  0.7957747E-01            NaN
         13   -1    0    0    0    0  0.00000000000E+00  0.00000000000E+00  0.74505805969E-08  0.10566000000E+00  0.10566000000E+00 0. -1.
     999900   -1    0    0    0    0 -0.00000000000E+00 -0.00000000000E+00 -0.74505805969E-08  0.93827000000E+00  0.93827000000E+00 0. -1.
     999902    2    1    2    0    0  0.20540899105E-02 -0.18338770026E-01  0.14337537501E-01  0.10205613297E+01  0.10202937483E+01 0.  0.
     999903    2    3    3    0    0  0.77998299210E-01  0.53112496311E-01  0.89057760964E-01  0.13126052669E+00  0.19833535608E-01 0.  0.
         14    1    1    2    0    0 -0.20540899105E-02  0.18338770026E-01 -0.14337537501E-01  0.23368670331E-01  0.00000000000E+00 0.  1.
     999901    1    3    3    0    0 -0.75944209300E-01 -0.71451266337E-01 -0.74720223463E-01  0.88930080298E+00  0.88000000000E+00 0. -1.
        -11    1    4    4    0    0  0.49330010326E-01  0.27824448074E-01  0.64421742812E-01  0.85779204341E-01  0.51100000000E-03 0.  1.
         11    1    4    4    0    0  0.28668288884E-01  0.25288048236E-01  0.24636018151E-01  0.45481322348E-01  0.51100000000E-03 0. -1.
</event>
<event>
 8    1  0.1054086E+005  0.1043930E+01  0.7957747E-01            NaN
         13   -1    0    0    0    0  0.00000000000E+00  0.00000000000E+00  0.74505805969E-08  0.10566000000E+00  0.10566000000E+00 0. -1.
     999900   -1    0    0    0    0 -0.00000000000E+00 -0.00000000000E+00 -0.74505805969E-08  0.93827000000E+00  0.93827000000E+00 0. -1.
     999902    2    1    2    0    0 -0.12593328311E-01 -0.14640309926E-01 -0.23820271080E-02  0.10244722343E+01  0.10242874373E+01 0.  0.
     999903    2    3    3    0    0  0.30774361285E-01  0.12677909861E+00  0.22072489106E-02  0.13211509332E+00  0.20724979562E-01 0.  0.
         14    1    1    2    0    0  0.12593328311E-01  0.14640309926E-01  0.23820271080E-02  0.19457765695E-01  0.00000000000E+00 0.  1.
     999901    1    3    3    0    0 -0.43367689596E-01 -0.14141940854E+00 -0.45892760186E-02  0.89235714098E+00  0.88000000000E+00 0.  1.
        -11    1    4    4    0    0  0.32719303692E-01  0.99556522335E-01  0.21327468175E-02  0.10481824127E+00  0.51100000000E-03 0. -1.
         11    1    4    4    0    0 -0.19449424074E-02  0.27222576278E-01  0.74502093148E-04  0.27296852048E-01  0.51100000000E-03 0.  1.
</event>
<event>
 8    1  0.1054086E+005  0.1043930E+01  0.7957747E-01            NaN
         13   -1    0    0    0    0  0.00000000000E+00  0.00000000000E+00  0.74505805969E-08  0.10566000000E+00  0.10566000000E+00 0. -1.
     999900   -1    0    0    0    0 -0.00000000000E+00 -0.00000000000E+00 -0.74505805969E-08  0.93827000000E+00  0.93827000000E+00 0. -1.
     999902    2    1    2    0    0  0.19601985545E-01 -0.61933310108E-02  0.11796938905E-01  0.10202284609E+01  0.10199531114E+01 0.  0.
     999903    2    3    3    0    0  0.12878023489E+00  0.25476043937E-01  0.49951770907E-02  0.13289024842E+00  0.20037180859E-01 0.  0.
         14    1    1    2    0    0 -0.19601985545E-01  0.61933310108E-02 -0.11796938905E-01  0.23701539061E-01  0.00000000000E+00 0. -1.
     999901    1    3    3    0    0 -0.10917824934E+00 -0.31669374948E-01  0.68017618144E-02  0.88733821252E+00  0.88000000000E+00 0. -1.
        -11    1    4    4    0    0  0.61004363447E-01  0.40888279895E-02  0.85022311160E-02  0.61731676867E-01  0.51100000000E-03 0. -1.
         11    1    4    4    0    0  0.67775871444E-01  0.21387215948E-01 -0.35070540253E-02  0.71158571549E-01  0.51100000000E-03 0.  1.
</event>
<event>
 8    1  0.1054086E+005  0.1043930E+01  0.7957747E-01            NaN
         13   -1    0    0    0    0  0.00000000000E+00  0.00000000000E+00  0.74505805969E-08  0.10566000000E+00  0.10566000000E+00 0. -1.
     999900   -1    0    0    0    0 -0.00000000000E+00 -0.00000000000E+00 -0.74505805969E-08  0.93827000000E+00  0.93827000000E+00 0.  1.
     999902    2    1    2    0    0 -0.21419394507E-01  0.98433248001E-03 -0.92333709475E-02  0.10205844542E+01  0.10203174082E+01 0.  0.
     999903    2    3    3    0    0  0.54284617899E-01  0.10320710442E-01  0.11469852591E+00  0.12863300901E+00  0.18367426479E-01 0.  0.
         14    1    1    2    0    0  0.21419394507E-01 -0.98433248001E-03  0.92333709475E-02  0.23345545839E-01  0.00000000000E+00 0. -1.
     999901    1    3    3    0    0 -0.75704012405E-01 -0.93363779617E-02 -0.12393189686E+00  0.89195144515E+00  0.88000000000E+00 0.  1.
        -11    1    4    4    0    0  0.39493666415E-01  0.79397453225E-02  0.99212941275E-01  0.10708061487E+00  0.51100000000E-03 0. -1.
         11    1    4    4    0    0  0.14790951483E-01  0.23809651192E-02  0.15485584640E-01  0.21552394144E-01  0.51100000000E-03 0.  1.
</event>
<event>
 8    1  0.1054086E+005  0.1043930E+01  0.7957747E-01            NaN
         13   -1    0    0    0    0  0.00000000000E+00  0.00000000000E+00  0.74505805969E-08  0.10566000000E+00  0.10566000000E+00 0. -1.
     999900   -1    0    0    0    0 -0.00000000000E+00 -0.00000000000E+00 -0.74505805969E-08  0.93827000000E+00  0.93827000000E+00 0.  1.
     999902    2    1    2    0    0 -0.18687571135E-01  0.52679803141E-06  0.14197861219E-01  0.10204607738E+01  0.10201908578E+01 0.  0.
     999903    2    3    3    0    0  0.18986984657E-01  0.90314170321E-01 -0.86502129093E-01  0.12932867674E+00  0.26946861465E-01 0.  0.
         14    1    1    2    0    0  0.18687571135E-01 -0.52679803140E-06 -0.14197861219E-01  0.23469226200E-01  0.00000000000E+00 0. -1.
     999901    1    3    3    0    0 -0.37674555792E-01 -0.90313643523E-01  0.10069999031E+00  0.89113209706E+00  0.88000000000E+00 0. -1.
        -11    1    4    4    0    0 -0.34924589560E-02  0.31850966342E-01 -0.19061726689E-01  0.37286617865E-01  0.51100000000E-03 0.  1.
         11    1    4    4    0    0  0.22479443613E-01  0.58463203979E-01 -0.67440402404E-01  0.92042058876E-01  0.51100000000E-03 0. -1.
</event>
<event>
 8    1  0.1054086E+005  0.1043930E+01  0.7957747E-01            NaN
         13   -1    0    0    0    0  0.00000000000E+00  0.00000000000E+00  0.74505805969E-08  0.10566000000E+00  0.10566000000E+00 0. -1.
     999900   -1    0    0    0    0 -0.00000000000E+00 -0.00000000000E+00 -0.74505805969E-08  0.93827000000E+00  0.93827000000E+00 0. -1.
     999902    2    1    2    0    0 -0.10867151711E-01 -0.12883050451E-01  0.10979702560E-01  0.10238147858E+01  0.10236171617E+01 0.  0.
     999903    2    3    3    0    0 -0.51910562324E-01 -0.45749233758E-01 -0.11258632813E+00  0.13362755181E+00  0.19822776054E-01 0.  0.
         14    1    1    2    0    0  0.10867151711E-01  0.12883050451E-01 -0.10979702560E-01  0.20115214231E-01  0.00000000000E+00 0.  1.
     999901    1    3    3    0    0  0.41043410613E-01  0.32866183308E-01  0.12356603069E+00  0.89018723396E+00  0.88000000000E+00 0.  1.
        -11    1    4    4    0    0 -0.21252417049E-01 -0.18936230928E-01 -0.65176760024E-01  0.71123253866E-01  0.51100000000E-03 0. -1.
         11    1    4    4    0    0 -0.30658145275E-01 -0.26813002830E-01 -0.47409568108E-01  0.62504297946E-01  0.51100000000E-03 0.  1.
</event>
<event>
 8    1  0.1054086E+005  0.1043930E+01  0.7957747E-01            NaN
         13   -1    0    0    0    0  0.00000000000E+00  0.00000000000E+00  0.74505805969E-08  0.10566000000E+00  0.10566000000E+00 0.  1.
     999900   -1    0    0    0    0 -0.00000000000E+00 -0.00000000000E+00 -0.74505805969E-08  0.93827000000E+00  0.93827000000E+00 0. -1.
     999902    2    1    2    0    0 -0.17399880819E-01 -0.88444210133E-03 -0.15508886826E-01  0.10206048277E+01  0.10203382531E+01 0.  0.
     999903    2    3    3    0    0 -0.96363509442E-01 -0.87059041351E-01  0.15822053211E-01  0.13232393523E+00  0.19851544858E-01 0.  0.
         14    1    1    2    0    0  0.17399880819E-01  0.88444210133E-03  0.15508886826E-01  0.23325172259E-01  0.00000000000E+00 0. -1.
     999901    1    3    3    0    0  0.78963628623E-01  0.86174599250E-01 -0.31330940036E-01  0.88828089251E+00  0.88000000000E+00 0. -1.
        -11    1    4    4    0    0 -0.39317943583E-01 -0.25815229967E-01 -0.54452294924E-03  0.47041305383E-01  0.51100000000E-03 0. -1.
         11    1    4    4    0    0 -0.57045565859E-01 -0.61243811384E-01  0.16366576160E-01  0.85282629845E-01  0.51100000000E-03 0.  1.
</event>
<event>
 8    1  0.1054086E+005  0.1043930E+01  0.7957747E-01            NaN
         13   -1    0    0    0    0  0.00000000000E+00  0.00000000000E+00  0.74505805969E-08  0.10566000000E+00  0.10566000000E+00 0.  1.
     999900   -1    0    0    0    0 -0.00000000000E+00 -0.00000000000E+00 -0.74505805969E-08  0.93827000000E+00  0.93827000000E+00 0.  1.
     999902    2    1    2    0    0 -0.11216342920E-01  0.30535392673E-02 -0.20673387058E-01  0.10202125089E+01  0.10199367843E+01 0.  0.
     999903    2    3    3    0    0 -0.60849110148E-02 -0.79194720474E-01 -0.10361808806E+00  0.13247891642E+00  0.22474991208E-01 0.  0.
         14    1    1    2    0    0  0.11216342920E-01 -0.30535392673E-02  0.20673387058E-01  0.23717491078E-01  0.00000000000E+00 0.  1.
     999901    1    3    3    0    0 -0.51314319056E-02  0.82248259741E-01  0.82944701007E-01  0.88773359250E+00  0.88000000000E+00 0. -1.
        -11    1    4    4    0    0 -0.13203936563E-01 -0.30806190419E-01 -0.38742121032E-01  0.51230638996E-01  0.51100000000E-03 0.  1.
         11    1    4    4    0    0  0.71190255482E-02 -0.48388530055E-01 -0.64875967033E-01  0.81248277429E-01  0.51100000000E-03 0. -1.
</event>
<event>
 8    1  0.1062007E+005  0.1043930E+01  0.7957747E-01            NaN
         13   -1    0    0    0    0  0.00000000000E+00  0.00000000000E+00  0.74505805969E-08  0.10566000000E+00  0.10566000000E+00 0. -1.
     999900   -1    0    0    0    0 -0.00000000000E+00 -0.00000000000E+00 -0.74505805969E-08  0.93827000000E+00  0.93827000000E+00 0. -1.
     999902    2    1    2    0    0  0.11227505399E-02 -0.17426254729E-01 -0.15854359063E-01  0.10203440800E+01  0.10200714416E+01 0.  0.
     999903    2    3    3    0    0  0.88713754860E-02 -0.98067488940E-01 -0.88173065511E-01  0.13366880392E+00  0.19923001024E-01 0.  0.
         14    1    1    2    0    0 -0.11227505399E-02  0.17426254729E-01  0.15854359063E-01  0.23585920036E-01  0.00000000000E+00 0.  1.
     999901    1    3    3    0    0 -0.77486249460E-02  0.80641234211E-01  0.72318706449E-01  0.88667527604E+00  0.88000000000E+00 0.  1.
        -11    1    4    4    0    0  0.65950216135E-02 -0.34051710756E-01 -0.19653144169E-01  0.39868791206E-01  0.51100000000E-03 0.  1.
         11    1    4    4    0    0  0.22763538725E-02 -0.64015778184E-01 -0.68519921342E-01  0.93800012714E-01  0.51100000000E-03 0. -1.
</event>
<event>
 8    1  0.1054086E+005  0.1043930E+01  0.7957747E-01            NaN
         13   -1    0    0    0    0  0.00000000000E+00  0.00000000000E+00  0.74505805969E-08  0.10566000000E+00  0.10566000000E+00 0. -1.
     999900   -1    0    0    0    0 -0.00000000000E+00 -0.00000000000E+00 -0.74505805969E-08  0.93827000000E+00  0.93827000000E+00 0.  1.
     999902    2    1    2    0    0  0.33951111354E-03  0.22140928646E-01 -0.85560925277E-02  0.10201909455E+01  0.10199147134E+01 0.  0.
     999903    2    3    3    0    0  0.10685170287E+00  0.72252569453E-01 -0.80216506798E-02  0.13235294836E+00  0.28552335470E-01 0.  0.
         14    1    1    2    0    0 -0.33951111354E-03 -0.22140928646E-01  0.85560925277E-02  0.23739054498E-01  0.00000000000E+00 0. -1.
     999901    1    3    3    0    0 -0.10651219176E+00 -0.50111640807E-01 -0.53444184782E-03  0.88783799714E+00  0.88000000000E+00 0.  1.
        -11    1    4    4    0    0  0.91177809048E-01  0.67987034604E-01  0.10492683240E-02  0.11374089776E+00  0.51100000000E-03 0.  1.
         11    1    4    4    0    0  0.15673893826E-01  0.42655348486E-02 -0.90709190038E-02  0.18612050607E-01  0.51100000000E-03 0. -1.
</event>
<event>
 8    1  0.1054086E+005  0.1043930E+01  0.7957747E-01            NaN
         13   -1    0    0    0    0  0.00000000000E+00  0.00000000000E+00  0.74505805969E-08  0.10566000000E+00  0.10566000000E+00 0. -1.
     999900   -1    0    0    0    0 -0.00000000000E+00 -0.00000000000E+00 -0.74505805969E-08  0.93827000000E+00  0.93827000000E+00 0. -1.
     999902    2    1    2    0    0  0.90140185525E-02 -0.16985067733E-01 -0.13888863657E-01  0.10202098484E+01  0.10199340612E+01 0.  0.
     999903    2    3    3    0    0 -0.31966663048E-01  0.10042269624E+00  0.69145253840E-01  0.12759645846E+00  0.19829387700E-01 0.  0.
         14    1    1    2    0    0 -0.90140185525E-02  0.16985067733E-01  0.13888863657E-01  0.23720151560E-01  0.00000000000E+00 0. -1.
     999901    1    3    3    0    0  0.40980681600E-01 -0.11740776397E+00 -0.83034117497E-01  0.89261338998E+00  0.88000000000E+00 0. -1.
        -11    1    4    4    0    0 -0.23333828630E-01  0.57175239033E-01  0.30134699206E-01  0.68715622199E-01  0.51100000000E-03 0.  1.
         11    1    4    4    0    0 -0.86328344180E-02  0.43247457205E-01  0.39010554634E-01  0.58880836260E-01  0.51100000000E-03 0. -1.
</event>
<event>
 8    1  0.1054086E+005  0.1043930E+01  0.7957747E-01            NaN
         13   -1    0    0    0    0  0.00000000000E+00  0.00000000000E+00  0.74505805969E-08  0.10566000000E+00  0.10566000000E+00 0.  1.
     999900   -1    0    0    0    0 -0.00000000000E+00 -0.00000000000E+00 -0.74505805969E-08  0.93827000000E+00  0.93827000000E+00 0. -1.
     999902    2    1    2    0    0  0.98958794603E-02  0.15001073970E-01 -0.15064090212E-01  0.10204803206E+01  0.10202108592E+01 0.  0.
     999903    2    3    3    0    0 -0.74776360104E-01 -0.99500891837E-01 -0.27760197716E-01  0.12894160608E+00  0.19062468203E-01 0.  0.
         14    1    1    2    0    0 -0.98958794603E-02 -0.15001073970E-01  0.15064090212E-01  0.23449679411E-01  0.00000000000E+00 0. -1.
     999901    1    3    3    0    0  0.84672239564E-01  0.11450196581E+00  0.12696107504E-01  0.89153871451E+00  0.88000000000E+00 0.  1.
        -11    1    4    4    0    0 -0.71020042216E-01 -0.96871992388E-01 -0.30008664934E-01  0.12380957313E+00  0.51100000000E-03 0.  1.
         11    1    4    4    0    0 -0.37563178880E-02 -0.26288994488E-02  0.22484672177E-02  0.51320329516E-02  0.51100000000E-03 0. -1.
</event>
<event>
 8    1  0.1054086E+005  0.1043930E+01  0.7957747E-01            NaN
         13   -1    0    0    0    0  0.00000000000E+00  0.00000000000E+00  0.74505805969E-08  0.10566000000E+00  0.10566000000E+00 0. -1.
     999900   -1    0    0    0    0 -0.00000000000E+00 -0.00000000000E+00 -0.74505805969E-08  0.93827000000E+00  0.93827000000E+00 0. -1.
     999902    2    1    2    0    0 -0.64569614871E-02 -0.17843617158E-01 -0.16382865443E-01  0.10188603908E+01  0.10185519185E+01 0.  0.
     999903    2    3    3    0    0  0.35920976432E-02 -0.12357200450E+00  0.37694961849E-01  0.13082667136E+00  0.20291976931E-01 0.  0.
         14    1    1    2    0    0  0.64569614871E-02  0.17843617158E-01  0.16382865443E-01  0.25069609192E-01  0.00000000000E+00 0. -1.
     999901    1    3    3    0    0 -0.10049059130E-01  0.10572838734E+00 -0.54077827292E-01  0.88803371945E+00  0.88000000000E+00 0. -1.
        -11    1    4    4    0    0 -0.63677658861E-02 -0.76264419149E-01  0.28161076496E-01  0.81548252102E-01  0.51100000000E-03 0. -1.
         11    1    4    4    0    0  0.99598635293E-02 -0.47307585350E-01  0.95338853532E-02  0.49278419253E-01  0.51100000000E-03 0.  1.
</event>
<event>
 8    1  0.1054086E+005  0.1043930E+01  0.7957747E-01            NaN
         13   -1    0    0    0    0  0.00000000000E+00  0.00000000000E+00  0.74505805969E-08  0.10566000000E+00  0.10566000000E+00 0. -1.
     999900   -1    0    0    0    0 -0.00000000000E+00 -0.00000000000E+00 -0.74505805969E-08  0.93827000000E+00  0.93827000000E+00 0. -1.
     999902    2    1    2    0    0  0.24533126875E-01  0.16065918614E-01 -0.52939205297E-03  0.10145996691E+01  0.10141756358E+01 0.  0.
     999903    2    3    3    0    0 -0.12444901948E-01  0.12282993566E+00  0.22882525276E-01  0.12706710754E+00  0.19503106837E-01 0.  0.
         14    1    1    2    0    0 -0.24533126875E-01 -0.16065918614E-01  0.52939205297E-03  0.29330330908E-01  0.00000000000E+00 0. -1.
     999901    1    3    3    0    0  0.36978028823E-01 -0.10676401704E+00 -0.23411917329E-01  0.88753256156E+00  0.88000000000E+00 0. -1.
        -11    1    4    4    0    0  0.15319275728E-02  0.15421249745E-01  0.88309560079E-02  0.17844008821E-01  0.51100000000E-03 0.  1.
         11    1    4    4    0    0 -0.13976829521E-01  0.10740868591E+00  0.14051569268E-01  0.10922309871E+00  0.51100000000E-03 0. -1.
</event>
<event>
 8    1  0.1054086E+005  0.1043930E+01  0.7957747E-01            NaN
         13   -1    0    0    0    0  0.00000000000E+00  0.00000000000E+00  0.74505805969E-08  0.10566000000E+00  0.10566000000E+00 0.  1.
     999900   -1    0    0    0    0 -0.00000000000E+00 -0.00000000000E+00 -0.74505805969E-08  0.93827000000E+00  0.93827000000E+00 0.  1.
     999902    2    1    2    0    0  0.20951946325E-01  0.73556297121E-02  0.93553017161E-02  0.10198341287E+01  0.10195494294E+01 0.  0.
     999903    2    3    3    0    0  0.12075881166E+00  0.20240492489E-01  0.48626542280E-01  0.13322843258E+00  0.19821869341E-01 0.  0.
         14    1    1    2    0    0 -0.20951946325E-01 -0.73556297121E-02 -0.93553017161E-02  0.24095871295E-01  0.00000000000E+00 0.  1.
     999901    1    3    3    0    0 -0.99806865339E-01 -0.12884862777E-01 -0.39271240563E-01  0.88660569612E+00  0.88000000000E+00 0.  1.
        -11    1    4    4    0    0  0.79838086719E-01  0.20587997301E-01  0.25940410854E-01  0.86435824518E-01  0.51100000000E-03 0.  1.
         11    1    4    4    0    0  0.40920724945E-01 -0.34750481236E-03  0.22686131425E-01  0.46792608066E-01  0.51100000000E-03 0. -1.
</event>
<event>
 8    1  0.1054086E+005  0.1043930E+01  0.7957747E-01            NaN
         13   -1    0    0    0    0  0.00000000000E+00  0.00000000000E+00  0.74505805969E-08  0.10566000000E+00  0.10566000000E+00 0.  1.
     999900   -1    0    0    0    0 -0.00000000000E+00 -0.00000000000E+00 -0.74505805969E-08  0.93827000000E+00  0.93827000000E+00 0. -1.
     999902    2    1    2    0    0 -0.17335894238E-01  0.59128978412E-02  0.12391297846E-01  0.10218157545E+01  0.10215764271E+01 0.  0.
     999903    2    3    3    0    0  0.11138143752E+00  0.52658879032E-01 -0.36014775752E-01  0.12990965735E+00  0.20016813820E-01 0.  0.
         14    1    1    2    0    0  0.17335894238E-01 -0.59128978412E-02 -0.12391297846E-01  0.22114245459E-01  0.00000000000E+00 0. -1.
     999901    1    3    3    0    0 -0.12871733175E+00 -0.46745981190E-01  0.48406073599E-01  0.89190609719E+00  0.88000000000E+00 0.  1.
        -11    1    4    4    0    0  0.47984105290E-01  0.25016947509E-01 -0.25954668812E-01  0.60018563606E-01  0.51100000000E-03 0.  1.
         11    1    4    4    0    0  0.63397332225E-01  0.27641931522E-01 -0.10060106940E-01  0.69891093740E-01  0.51100000000E-03 0. -1.
</event>
<event>
 8    1  0.1054086E+005  0.1043930E+01  0.7957747E-01            NaN
         13   -1    0    0    0    0  0.00000000000E+00  0.00000000000E+00  0.74505805969E-08  0.10566000000E+00  0.10566000000E+00 0. -1.
     999900   -1    0    0    0    0 -0.00000000000E+00 -0.00000000000E+00 -0.74505805969E-08  0.93827000000E+00  0.93827000000E+00 0.  1.
     999902    2    1    2    0    0 -0.49098947028E-02  0.21202038608E-01  0.38647546392E-02  0.10218263841E+01  0.10215872892E+01 0.  0.
     999903    2    3    3    0    0 -0.92986402091E-01  0.13066124366E-01 -0.91051865595E-01  0.13231369221E+00  0.19981900242E-01 0.  0.
         14    1    1    2    0    0  0.49098947028E-02 -0.21202038608E-01 -0.38647546392E-02  0.22103615893E-01  0.00000000000E+00 0. -1.
     999901    1    3    3    0    0  0.88076507389E-01  0.81359142424E-02  0.94916620234E-01  0.88951269190E+00  0.88000000000E+00 0. -1.
        -11    1    4    4    0    0 -0.49200997472E-01  0.36164392985E-02 -0.60615247258E-01  0.78155525119E-01  0.51100000000E-03 0. -1.
         11    1    4    4    0    0 -0.43785404620E-01  0.94496850674E-02 -0.30436618337E-01  0.54158167088E-01  0.51100000000E-03 0.  1.
</event>
<event>
 8    1  0.1054086E+005  0.1043930E+01  0.7957747E-01            NaN
         13   -1    0    0    0    0  0.00000000000E+00  0.00000000000E+00  0.74505805969E-08  0.10566000000E+00  0.10566000000E+00 0. -1.
     999900   -1    0    0    0    0 -0.00000000000E+00 -0.00000000000E+00 -0.74505805969E-08  0.93827000000E+00  0.93827000000E+00 0.  1.
     999902    2    1    2    0    0 -0.69501480777E-02 -0.19422192878E-01  0.10564860858E-01  0.10207536668E+01  0.10204905222E+01 0.  0.
     999903    2    3    3    0    0 -0.21153223654E-01 -0.11553307175E+00  0.61355252854E-01  0.13395115650E+00  0.19572831572E-01 0.  0.
         14    1    1    2    0    0  0.69501480777E-02  0.19422192878E-01 -0.10564860858E-01  0.23176333175E-01  0.00000000000E+00 0. -1.
     999901    1    3    3    0    0  0.14203075577E-01  0.96110878876E-01 -0.50790391996E-01  0.88680251032E+00  0.88000000000E+00 0.  1.
        -11    1    4    4    0    0 -0.76560558404E-02 -0.80363525581E-01  0.48323877336E-01  0.94087032457E-01  0.51100000000E-03 0. -1.
         11    1    4    4    0    0 -0.13497167814E-01 -0.35169546173E-01  0.13031375518E-01  0.39864124046E-01  0.51100000000E-03 0.  1.
</event>
<event>
 8    1  0.1054086E+005  0.1043930E+01  0.7957747E-01            NaN
         13   -1    0    0    0    0  0.00000000000E+00  0.00000000000E+00  0.74505805969E-08  0.10566000000E+00  0.10566000000E+00 0. -1.
     999900   -1    0    0    0    0 -0.00000000000E+00 -0.00000000000E+00 -0.74505805969E-08  0.93827000000E+00  0.93827000000E+00 0.  1.
     999902    2    1    2    0    0 -0.29931135122E-02 -0.21612346870E-01 -0.86595241570E-02  0.10204557668E+01  0.10201857343E+01 0.  0.
     999903    2    3    3    0    0 -0.10539521824E+00  0.66763254215E-01  0.28160642732E-01  0.12935972113E+00  0.19376055088E-01 0.  0.
         14    1    1    2    0    0  0.29931135122E-02  0.21612346870E-01  0.86595241570E-02  0.23474233201E-01  0.00000000000E+00 0. -1.
     999901    1    3    3    0    0  0.10240210473E+00 -0.88375601085E-01 -0.36820166889E-01  0.89109604567E+00  0.88000000000E+00 0.  1.
        -11    1    4    4    0    0 -0.51834411730E-01  0.24932997727E-01  0.20050280453E-01  0.60915806506E-01  0.51100000000E-03 0. -1.
         11    1    4    4    0    0 -0.53560806507E-01  0.41830256489E-01  0.81103622789E-02  0.68443914623E-01  0.51100000000E-03 0.  1.
</event>
<event>
 7    1  0.1199350E+005  0.1043930E+01  0.7957747E-01            NaN
         13   -1    0    0    0    0  0.00000000000E+00  0.00000000000E+00  0.74505805969E-08  0.10566000000E+00  0.10566000000E+00 0.  1.
     999900   -1    0    0    0    0 -0.00000000000E+00 -0.00000000000E+00 -0.74505805969E-08  0.93827000000E+00  0.93827000000E+00 0. -1.
     999903    2    1    2    0    0 -0.69490049103E-01 -0.64214005109E-01  0.46380852325E-01  0.10679747455E+00  0.17384238023E-01 0.  0.
         14    1    1    2    0    0 -0.45792863075E-01 -0.29987730866E-02 -0.58588635242E-03  0.45894686092E-01  0.00000000000E+00 0. -1.
     999901    1    1    2    0    0  0.11528291218E+00  0.67212778196E-01 -0.45794965973E-01  0.89123783936E+00  0.88000000000E+00 0.  1.
        -11    1    3    3    0    0 -0.49375280119E-01 -0.55379779800E-01  0.34676814378E-01  0.81899822185E-01  0.51100000000E-03 0. -1.
         11    1    3    3    0    0 -0.20114768985E-01 -0.88342253096E-02  0.11704037947E-01  0.24897652367E-01  0.51100000000E-03 0.  1.
</event>
<event>
 8    1  0.1054086E+005  0.1043930E+01  0.7957747E-01            NaN
         13   -1    0    0    0    0  0.00000000000E+00  0.00000000000E+00  0.74505805969E-08  0.10566000000E+00  0.10566000000E+00 0.  1.
     999900   -1    0    0    0    0 -0.00000000000E+00 -0.00000000000E+00 -0.74505805969E-08  0.93827000000E+00  0.93827000000E+00 0. -1.
     999902    2    1    2    0    0  0.18620204534E-03  0.20544485998E-01 -0.19287237860E-01  0.10157500759E+01  0.10153591033E+01 0.  0.
     999903    2    3    3    0    0  0.30459999810E-01 -0.10254357967E+00 -0.62697688743E-01  0.12560871526E+00  0.20088600121E-01 0.  0.
         14    1    1    2    0    0 -0.18620204534E-03 -0.20544485998E-01  0.19287237860E-01  0.28179924067E-01  0.00000000000E+00 0.  1.
     999901    1    3    3    0    0 -0.30273797764E-01  0.12308806567E+00  0.43410450883E-01  0.89014136068E+00  0.88000000000E+00 0.  1.
        -11    1    4    4    0    0  0.77289200853E-02 -0.98453513582E-02 -0.12787214218E-01  0.17900869183E-01  0.51100000000E-03 0.  1.
         11    1    4    4    0    0  0.22731079724E-01 -0.92698228312E-01 -0.49910474525E-01  0.10770784607E+00  0.51100000000E-03 0. -1.
</event>
<event>
 8    1  0.1054086E+005  0.1043930E+01  0.7957747E-01            NaN
         13   -1    0    0    0    0  0.00000000000E+00  0.00000000000E+00  0.74505805969E-08  0.10566000000E+00  0.10566000000E+00 0. -1.
     999900   -1    0    0    0    0 -0.00000000000E+00 -0.00000000000E+00 -0.74505805969E-08  0.93827000000E+00  0.93827000000E+00 0.  1.
     999902    2    1    2    0    0 -0.24359272359E-01  0.10380453586E-02  0.35637263287E-03  0.10195460157E+01  0.10192543841E+01 0.  0.
     999903    2    3    3    0    0  0.11624353558E+00  0.34775196522E-01 -0.32409073762E-01  0.12714424552E+00  0.19835252736E-01 0.  0.
         14    1    1    2    0    0  0.24359272359E-01 -0.10380453586E-02 -0.35637263287E-03  0.24383984283E-01  0.00000000000E+00 0.  1.
     999901    1    3    3    0    0 -0.14060280794E+00 -0.33737151164E-01  0.32765446395E-01  0.89240177019E+00  0.88000000000E+00 0. -1.
        -11    1    4    4    0    0  0.83105917917E-01  0.28765625445E-01 -0.31608470194E-01  0.93452722320E-01  0.51100000000E-03 0. -1.
         11    1    4    4    0    0  0.33137617660E-01  0.60095710777E-02 -0.80060356857E-03  0.33691523204E-01  0.51100000000E-03 0.  1.
</event>
<event>
 8    1  0.1054086E+005  0.1043930E+01  0.7957747E-01            NaN
         13   -1    0    0    0    0  0.00000000000E+00  0.00000000000E+00  0.74505805969E-08  0.10566000000E+00  0.10566000000E+00 0.  1.
     999900   -1    0    0    0    0 -0.00000000000E+00 -0.00000000000E+00 -0.74505805969E-08  0.93827000000E+00  0.93827000000E+00 0.  1.
     999902    2    1    2    0    0  0.48117484224E-02 -0.11379838438E-01 -0.18949276707E-01  0.10213085780E+01  0.10210580212E+01 0.  0.
     999903    2    3    3    0    0 -0.23266610434E-01  0.88857628747E-02  0.12490973961E+00  0.12895522567E+00  0.20167182126E-01 0.  0.
         14    1    1    2    0    0 -0.48117484224E-02  0.11379838438E-01  0.18949276707E-01  0.22621422004E-01  0.00000000000E+00 0.  1.
     999901    1    3    3    0    0  0.28078358856E-01 -0.20265601313E-01 -0.14385901632E+00  0.89235335233E+00  0.88000000000E+00 0.  1.
        -11    1    4    4    0    0 -0.94032743031E-02 -0.30610362052E-02  0.77556082828E-01  0.78185667579E-01  0.51100000000E-03 0. -1.
         11    1    4    4    0    0 -0.13863336131E-01  0.11946799080E-01  0.47353656783E-01  0.50769558090E-01  0.51100000000E-03 0.  1.
</event>
<event>
 8    1  0.1054086E+005  0.1043930E+01  0.7957747E-01            NaN
         13   -1    0    0    0    0  0.00000000000E+00  0.00000000000E+00  0.74505805969E-08  0.10566000000E+00  0.10566000000E+00 0.  1.
     999900   -1    0    0    0    0 -0.00000000000E+00 -0.00000000000E+00 -0.74505805969E-08  0.93827000000E+00  0.93827000000E+00 0.  1.
     999902    2    1    2    0    0  0.63488214288E-02 -0.19360544936E-01 -0.12282446604E-01  0.10201393143E+01  0.10198618650E+01 0.  0.
     999903    2    3    3    0    0 -0.92525545490E-01 -0.74023066705E-01 -0.54345759956E-01  0.13192005413E+00  0.20224937186E-01 0.  0.
         14    1    1    2    0    0 -0.63488214288E-02  0.19360544936E-01  0.12282446604E-01  0.23790685747E-01  0.00000000000E+00 0.  1.
     999901    1    3    3    0    0  0.98874366919E-01  0.54662521770E-01  0.42063313352E-01  0.88821926012E+00  0.88000000000E+00 0. -1.
        -11    1    4    4    0    0 -0.45215991268E-01 -0.29079283469E-01 -0.33806086235E-01  0.63507504919E-01  0.51100000000E-03 0. -1.
         11    1    4    4    0    0 -0.47309554222E-01 -0.44943783236E-01 -0.20539673721E-01  0.68412549213E-01  0.51100000000E-03 0.  1.
</event>
<event>
 8    1  0.1054086E+005  0.1043930E+01  0.7957747E-01            NaN
         13   -1    0    0    0    0  0.00000000000E+00  0.00000000000E+00  0.74505805969E-08  0.10566000000E+00  0.10566000000E+00 0. -1.
     999900   -1    0    0    0    0 -0.00000000000E+00 -0.00000000000E+00 -0.74505805969E-08  0.93827000000E+00  0.93827000000E+00 0. -1.
     999902    2    1    2    0    0 -0.50424779677E-02 -0.77265531878E-02 -0.21632196604E-01  0.10204123866E+01  0.10201413435E+01 0.  0.
     999903    2    3    3    0    0  0.59738003549E-01  0.10597194637E+00 -0.42810607575E-01  0.13048408353E+00  0.19866188583E-01 0.  0.
         14    1    1    2    0    0  0.50424779677E-02  0.77265531878E-02  0.21632196604E-01  0.23517613359E-01  0.00000000000E+00 0. -1.
     999901    1    3    3    0    0 -0.64780481517E-01 -0.11369849955E+00  0.21178410971E-01  0.88992830311E+00  0.88000000000E+00 0. -1.
        -11    1    4    4    0    0  0.45914951211E-01  0.71159969930E-01 -0.37613348736E-01  0.92665792983E-01  0.51100000000E-03 0. -1.
         11    1    4    4    0    0  0.13823052338E-01  0.34811976437E-01 -0.51972588387E-02  0.37818290546E-01  0.51100000000E-03 0.  1.
</event>
<event>
 8    1  0.1054086E+005  0.1043930E+01  0.7957747E-01            NaN
         13   -1    0    0    0    0  0.00000000000E+00  0.00000000000E+00  0.74505805969E-08  0.10566000000E+00  0.10566000000E+00 0.  1.
     999900   -1    0    0    0    0 -0.00000000000E+00 -0.00000000000E+00 -0.74505805969E-08  0.93827000000E+00  0.93827000000E+00 0. -1.
     999902    2    1    2    0    0  0.20949763945E-01  0.68085934728E-02  0.81442068742E-02  0.10204443095E+01  0.10201740102E+01 0.  0.
     999903    2    3    3    0    0 -0.55274338418E-02 -0.89727599180E-01  0.92615268771E-01  0.13075018293E+00  0.20890853172E-01 0.  0.
         14    1    1    2    0    0 -0.20949763945E-01 -0.68085934728E-02 -0.81442068742E-02  0.23485690538E-01  0.00000000000E+00 0. -1.
     999901    1    3    3    0    0  0.26477197787E-01  0.96536192653E-01 -0.84471061897E-01  0.88969412654E+00  0.88000000000E+00 0. -1.
        -11    1    4    4    0    0  0.73655687829E-02 -0.48864101006E-01  0.48173918391E-01  0.69014052951E-01  0.51100000000E-03 0. -1.
         11    1    4    4    0    0 -0.12893002625E-01 -0.40863498174E-01  0.44441350380E-01  0.61736129975E-01  0.51100000000E-03 0.  1.
</event>
<event>
 8    1  0.1054086E+005  0.1043930E+01  0.7957747E-01            NaN
         13   -1    0    0    0    0  0.00000000000E+00  0.00000000000E+00  0.74505805969E-08  0.10566000000E+00  0.10566000000E+00 0.  1.
     999900   -1    0    0    0    0 -0.00000000000E+00 -0.00000000000E+00 -0.74505805969E-08  0.93827000000E+00  0.93827000000E+00 0. -1.
     999902    2    1    2    0    0 -0.21912718350E-01 -0.33980689656E-02 -0.90885238069E-02  0.10199651223E+01  0.10196835467E+01 0.  0.
     999903    2    3    3    0    0 -0.42965921250E-01  0.61040373228E-01 -0.10673407854E+00  0.13197289005E+00  0.21276339719E-01 0.  0.
         14    1    1    2    0    0  0.21912718350E-01  0.33980689656E-02  0.90885238069E-02  0.23964877700E-01  0.00000000000E+00 0.  1.
     999901    1    3    3    0    0  0.21053202900E-01 -0.64438442193E-01  0.97645554736E-01  0.88799223225E+00  0.88000000000E+00 0.  1.
        -11    1    4    4    0    0 -0.27929350018E-01  0.36318736735E-01 -0.81867429973E-01  0.93817037055E-01  0.51100000000E-03 0.  1.
         11    1    4    4    0    0 -0.15036571232E-01  0.24721636493E-01 -0.24866648570E-01  0.38155852990E-01  0.51100000000E-03 0. -1.
</event>
<event>
 8    1  0.1054086E+005  0.1043930E+01  0.7957747E-01            NaN
         13   -1    0    0    0    0  0.00000000000E+00  0.00000000000E+00  0.74505805969E-08  0.10566000000E+00  0.10566000000E+00 0.  1.
     999900   -1    0    0    0    0 -0.00000000000E+00 -0.00000000000E+00 -0.74505805969E-08  0.93827000000E+00  0.93827000000E+00 0.  1.
     999902    2    1    2    0    0 -0.21077622300E-01  0.14975633348E-01 -0.56185147494E-02  0.10174705317E+01  0.10171264323E+01 0.  0.
     999903    2    3    3    0    0 -0.12627524864E+00 -0.57574884342E-02 -0.26609353802E-01  0.13071407230E+00  0.19988093818E-01 0.  0.
         14    1    1    2    0    0  0.21077622300E-01 -0.14975633348E-01  0.56185147494E-02  0.26459468323E-01  0.00000000000E+00 0.  1.
     999901    1    3    3    0    0  0.10519762634E+00  0.20733121782E-01  0.20990839052E-01  0.88675645938E+00  0.88000000000E+00 0. -1.
        -11    1    4    4    0    0 -0.87767871254E-01 -0.34224178121E-02 -0.89745688265E-02  0.88293352948E-01  0.51100000000E-03 0. -1.
         11    1    4    4    0    0 -0.38507377387E-01 -0.23350706221E-02 -0.17634784975E-01  0.42420719350E-01  0.51100000000E-03 0.  1.
</event>
<event>
 8    1  0.1054086E+005  0.1043930E+01  0.7957747E-01            NaN
         13   -1    0    0    0    0  0.00000000000E+00  0.00000000000E+00  0.74505805969E-08  0.10566000000E+00  0.10566000000E+00 0. -1.
     999900   -1    0    0    0    0 -0.00000000000E+00 -0.00000000000E+00 -0.74505805969E-08  0.93827000000E+00  0.93827000000E+00 0.  1.
     999902    2    1    2    0    0 -0.73971112402E-02  0.18054186838E-01 -0.13256714363E-01  0.10203416259E+01  0.10200689301E+01 0.  0.
     999903    2    3    3    0    0  0.52575365876E-01  0.11567254317E+00  0.29209448405E-01  0.13189949695E+00  0.19999476967E-01 0.  0.
         14    1    1    2    0    0  0.73971112402E-02 -0.18054186838E-01  0.13256714363E-01  0.23588374103E-01  0.00000000000E+00 0. -1.
     999901    1    3    3    0    0 -0.59972477116E-01 -0.97618356334E-01 -0.42466162769E-01  0.88844212895E+00  0.88000000000E+00 0.  1.
        -11    1    4    4    0    0  0.40716835943E-01  0.98394101039E-01  0.30869402311E-01  0.11087128108E+00  0.51100000000E-03 0. -1.
         11    1    4    4    0    0  0.11858529933E-01  0.17278442133E-01 -0.16599539059E-02  0.21028215870E-01  0.51100000000E-03 0.  1.
</event>
<event>
 8    1  0.1054086E+005  0.1043930E+01  0.7957747E-01            NaN
         13   -1    0    0    0    0  0.00000000000E+00  0.00000000000E+00  0.74505805969E-08  0.10566000000E+00  0.10566000000E+00 0. -1.
     999900   -1    0    0    0    0 -0.00000000000E+00 -0.00000000000E+00 -0.74505805969E-08  0.93827000000E+00  0.93827000000E+00 0.  1.
     999902    2    1    2    0    0 -0.48978996428E-02 -0.22333721883E-01  0.28865926068E-02  0.10208840248E+01  0.10206238657E+01 0.  0.
     999903    2    3    3    0    0  0.91698196179E-01  0.86064572026E-01  0.17009584185E-01  0.12887480138E+00  0.22443679204E-01 0.  0.
         14    1    1    2    0    0  0.48978996428E-02  0.22333721883E-01 -0.28865926068E-02  0.23045975157E-01  0.00000000000E+00 0. -1.
     999901    1    3    3    0    0 -0.96596095822E-01 -0.10839829391E+00 -0.14122991578E-01  0.89200922346E+00  0.88000000000E+00 0.  1.
        -11    1    4    4    0    0  0.49381276698E-01  0.60661952299E-01  0.72156857947E-02  0.78553868062E-01  0.51100000000E-03 0. -1.
         11    1    4    4    0    0  0.42316919481E-01  0.25402619728E-01  0.97938983901E-02  0.50320933318E-01  0.51100000000E-03 0.  1.
</event>
<event>
 8    1  0.1054086E+005  0.1043930E+01  0.7957747E-01            NaN
         13   -1    0    0    0    0  0.00000000000E+00  0.00000000000E+00  0.74505805969E-08  0.10566000000E+00  0.10566000000E+00 0.  1.
     999900   -1    0    0    0    0 -0.00000000000E+00 -0.00000000000E+00 -0.74505805969E-08  0.93827000000E+00  0.93827000000E+00 0. -1.
     999902    2    1    2    0    0  0.16255418674E-02 -0.22923629785E-01 -0.69976931939E-02  0.10199070339E+01  0.10196240753E+01 0.  0.
     999903    2    3    3    0    0 -0.81386035919E-01 -0.93493244910E-01 -0.41901444638E-01  0.13250111526E+00  0.20883984183E-01 0.  0.
         14    1    1    2    0    0 -0.16255418674E-02  0.22923629785E-01  0.69976931939E-02  0.24022966073E-01  0.00000000000E+00 0.  1.
     999901    1    3    3    0    0  0.83011577786E-01  0.70569615124E-01  0.34903751444E-01  0.88740591867E+00  0.88000000000E+00 0. -1.
        -11    1    4    4    0    0 -0.62255323348E-01 -0.56606955991E-01 -0.28328502069E-01  0.88785347339E-01  0.51100000000E-03 0.  1.
         11    1    4    4    0    0 -0.19130712571E-01 -0.36886288919E-01 -0.13572942569E-01  0.43715767918E-01  0.51100000000E-03 0. -1.
</event>
<event>
 8    1  0.1054086E+005  0.1043930E+01  0.7957747E-01            NaN
         13   -1    0    0    0    0  0.00000000000E+00  0.00000000000E+00  0.74505805969E-08  0.10566000000E+00  0.10566000000E+00 0. -1.
     999900   -1    0    0    0    0 -0.00000000000E+00 -0.00000000000E+00 -0.74505805969E-08  0.93827000000E+00  0.93827000000E+00 0. -1.
     999902    2    1    2    0    0  0.15441620359E-01  0.10304364432E-01  0.14651293345E-01  0.10202808148E+01  0.10200066946E+01 0.  0.
     999903    2    3    3    0    0  0.32549491115E-01  0.46838248625E-01 -0.11491480464E+00  0.12987934482E+00  0.20246999239E-01 0.  0.
         14    1    1    2    0    0 -0.15441620359E-01 -0.10304364432E-01 -0.14651293345E-01  0.23649185236E-01  0.00000000000E+00 0. -1.
     999901    1    3    3    0    0 -0.17107870756E-01 -0.36533884194E-01  0.12956609799E+00  0.89040146995E+00  0.88000000000E+00 0.  1.
        -11    1    4    4    0    0  0.29659421542E-01  0.26859620599E-01 -0.82424352769E-01  0.91625081475E-01  0.51100000000E-03 0.  1.
         11    1    4    4    0    0  0.28900695729E-02  0.19978628027E-01 -0.32490451873E-01  0.38254263342E-01  0.51100000000E-03 0. -1.
</event>
<event>
 8    1  0.1054086E+005  0.1043930E+01  0.7957747E-01            NaN
         13   -1    0    0    0    0  0.00000000000E+00  0.00000000000E+00  0.74505805969E-08  0.10566000000E+00  0.10566000000E+00 0. -1.
     999900   -1    0    0    0    0 -0.00000000000E+00 -0.00000000000E+00 -0.74505805969E-08  0.93827000000E+00  0.93827000000E+00 0. -1.
     999902    2    1    2    0    0 -0.16778214171E-01  0.19224626632E-01 -0.72132099289E-02  0.10174134931E+01  0.10170678890E+01 0.  0.
     999903    2    3    3    0    0 -0.63093791946E-01  0.21870917096E-01  0.10843793777E+00  0.12863493601E+00  0.18138269430E-01 0.  0.
         14    1    1    2    0    0  0.16778214171E-01 -0.19224626632E-01  0.72132099289E-02  0.26516506885E-01  0.00000000000E+00 0. -1.
     999901    1    3    3    0    0  0.46315577775E-01 -0.26462904637E-02 -0.11565114770E+00  0.88877855710E+00  0.88000000000E+00 0. -1.
        -11    1    4    4    0    0  0.67158151268E-03  0.32283605012E-03  0.59628066957E-02  0.60308730325E-02  0.51100000000E-03 0.  1.
         11    1    4    4    0    0 -0.63765373459E-01  0.21548081046E-01  0.10247513108E+00  0.12260406298E+00  0.51100000000E-03 0. -1.
</event>
<event>
 7    1  0.1054086E+005  0.1043930E+01  0.7957747E-01            NaN
         13   -1    0    0    0    0  0.00000000000E+00  0.00000000000E+00  0.74505805969E-08  0.10566000000E+00  0.10566000000E+00 0.  1.
     999900   -1    0    0    0    0 -0.00000000000E+00 -0.00000000000E+00 -0.74505805969E-08  0.93827000000E+00  0.93827000000E+00 0.  1.
     999903    2    1    2    0    0 -0.10807107893E+00  0.14363986626E-01  0.33388619885E-01  0.11568815344E+00  0.19577198344E-01 0.  0.
         14    1    1    2    0    0  0.10673875015E-01  0.35683438898E-01  0.14960384744E-01  0.40137918868E-01  0.00000000000E+00 0.  1.
     999901    1    1    2    0    0  0.97397203918E-01 -0.50047425524E-01 -0.48349004628E-01  0.88810392769E+00  0.88000000000E+00 0. -1.
        -11    1    3    3    0    0 -0.77411811978E-01  0.45328261793E-02  0.16326455744E-01  0.79246131925E-01  0.51100000000E-03 0. -1.
         11    1    3    3    0    0 -0.30659266955E-01  0.98311604467E-02  0.17062164140E-01  0.36442021515E-01  0.51100000000E-03 0.  1.
</event>
<event>
 8    1  0.1054086E+005  0.1043930E+01  0.7957747E-01            NaN
         13   -1    0    0    0    0  0.00000000000E+00  0.00000000000E+00  0.74505805969E-08  0.10566000000E+00  0.10566000000E+00 0.  1.
     999900   -1    0    0    0    0 -0.00000000000E+00 -0.00000000000E+00 -0.74505805969E-08  0.93827000000E+00  0.93827000000E+00 0.  1.
     999902    2    1    2    0    0  0.17063819858E-01  0.68733940214E-02  0.14454131033E-01  0.10205347142E+01  0.10202665159E+01 0.  0.
     999903    2    3    3    0    0 -0.92981958215E-02  0.40960058116E-01 -0.11960653011E+00  0.12933938354E+00  0.25666540110E-01 0.  0.
         14    1    1    2    0    0 -0.17063819858E-01 -0.68733940214E-02 -0.14454131033E-01  0.23395285795E-01  0.00000000000E+00 0.  1.
     999901    1    3    3    0    0  0.26362015679E-01 -0.34086664095E-01  0.13406066115E+00  0.89119533067E+00  0.88000000000E+00 0. -1.
        -11    1    4    4    0    0 -0.11227793504E-01  0.25294711368E-01 -0.43118945954E-01  0.51238563518E-01  0.51100000000E-03 0.  1.
         11    1    4    4    0    0  0.19295976827E-02  0.15665346748E-01 -0.76487584159E-01  0.78100820018E-01  0.51100000000E-03 0. -1.
</event>
<event>
 8    1  0.1054086E+005  0.1043930E+01  0.7957747E-01            NaN
         13   -1    0    0    0    0  0.00000000000E+00  0.00000000000E+00  0.74505805969E-08  0.10566000000E+00  0.10566000000E+00 0.  1.
     999900   -1    0    0    0    0 -0.00000000000E+00 -0.00000000000E+00 -0.74505805969E-08  0.93827000000E+00  0.93827000000E+00 0. -1.
     999902    2    1    2    0    0  0.17277826762E-01 -0.96984745289E-02 -0.12503913313E-01  0.10205007116E+01  0.10202317241E+01 0.  0.
     999903    2    3    3    0    0 -0.12247565573E-01 -0.30883804965E-01 -0.12650745720E+00  0.13240309591E+00  0.20557986426E-01 0.  0.
         14    1    1    2    0    0 -0.17277826762E-01  0.96984745289E-02  0.12503913313E-01  0.23429288379E-01  0.00000000000E+00 0.  1.
     999901    1    3    3    0    0  0.29525392335E-01  0.21185330436E-01  0.11400354389E+00  0.88809761571E+00  0.88000000000E+00 0.  1.
        -11    1    4    4    0    0 -0.69946752332E-02 -0.14896009754E-01 -0.28119778841E-01  0.32585267703E-01  0.51100000000E-03 0. -1.
         11    1    4    4    0    0 -0.52528903402E-02 -0.15987795210E-01 -0.98387678363E-01  0.99817828203E-01  0.51100000000E-03 0.  1.
</event>
<event>
 8    1  0.1054086E+005  0.1043930E+01  0.7957747E-01            NaN
         13   -1    0    0    0    0  0.00000000000E+00  0.00000000000E+00  0.74505805969E-08  0.10566000000E+00  0.10566000000E+00 0.  1.
     999900   -1    0    0    0    0 -0.00000000000E+00 -0.00000000000E+00 -0.74505805969E-08  0.93827000000E+00  0.93827000000E+00 0. -1.
     999902    2    1    2    0    0 -0.13548732961E-01  0.10857072551E-01  0.14840531369E-01  0.10210895630E+01  0.10208340757E+01 0.  0.
     999903    2    3    3    0    0 -0.20512244484E-01  0.12807296165E+00 -0.18108085125E-01  0.13267880980E+00  0.21268007459E-01 0.  0.
         14    1    1    2    0    0  0.13548732961E-01 -0.10857072551E-01 -0.14840531369E-01  0.22840436960E-01  0.00000000000E+00 0. -1.
     999901    1    3    3    0    0  0.69635115237E-02 -0.11721588910E+00  0.32948616494E-01  0.88841075324E+00  0.88000000000E+00 0.  1.
        -11    1    4    4    0    0 -0.48132662352E-02  0.57806334402E-01 -0.17797081184E-01  0.60677319061E-01  0.51100000000E-03 0. -1.
         11    1    4    4    0    0 -0.15698978249E-01  0.70266627252E-01 -0.31100394079E-03  0.72001490734E-01  0.51100000000E-03 0.  1.
</event>
<event>
 8    1  0.1054086E+005  0.1043930E+01  0.7957747E-01            NaN
         13   -1    0    0    0    0  0.00000000000E+00  0.00000000000E+00  0.74505805969E-08  0.10566000000E+00  0.10566000000E+00 0. -1.
     999900   -1    0    0    0    0 -0.00000000000E+00 -0.00000000000E+00 -0.74505805969E-08  0.93827000000E+00  0.93827000000E+00 0.  1.
     999902    2    1    2    0    0 -0.15482068685E-02  0.24494565716E-01  0.11062002747E-01  0.10170088448E+01  0.10166524685E+01 0.  0.
     999903    2    3    3    0    0 -0.77296000567E-03 -0.99771459575E-01 -0.71711372231E-01  0.12443163374E+00  0.19641001871E-01 0.  0.
         14    1    1    2    0    0  0.15482068685E-02 -0.24494565716E-01 -0.11062002747E-01  0.26921155230E-01  0.00000000000E+00 0.  1.
     999901    1    3    3    0    0 -0.77524686284E-03  0.12426602529E+00  0.82773374978E-01  0.89257721103E+00  0.88000000000E+00 0. -1.
        -11    1    4    4    0    0  0.82191174193E-02 -0.29555433257E-01 -0.18012292968E-01  0.35577820972E-01  0.51100000000E-03 0. -1.
         11    1    4    4    0    0 -0.89920774250E-02 -0.70216026318E-01 -0.53699079263E-01  0.88853812765E-01  0.51100000000E-03 0.  1.
</event>
<event>
 8    1  0.1054086E+005  0.1043930E+01  0.7957747E-01            NaN
         13   -1    0    0    0    0  0.00000000000E+00  0.00000000000E+00  0.74505805969E-08  0.10566000000E+00  0.10566000000E+00 0. -1.
     999900   -1    0    0    0    0 -0.00000000000E+00 -0.00000000000E+00 -0.74505805969E-08  0.93827000000E+00  0.93827000000E+00 0.  1.
     999902    2    1    2    0    0 -0.13187490883E-01 -0.10098716905E-02  0.21818103066E-01  0.10184160944E+01  0.10180964502E+01 0.  0.
     999903    2    3    3    0    0  0.12165359329E+00 -0.27942981328E-01 -0.12371683728E-01  0.12708200896E+00  0.20405182623E-01 0.  0.
         14    1    1    2    0    0  0.13187490883E-01  0.10098716905E-02 -0.21818103066E-01  0.25513905582E-01  0.00000000000E+00 0.  1.
     999901    1    3    3    0    0 -0.13484108417E+00  0.26933109637E-01  0.34189786794E-01  0.89133408546E+00  0.88000000000E+00 0.  1.
        -11    1    4    4    0    0  0.28645448569E-01  0.20230307446E-02 -0.41412879536E-02  0.29018369424E-01  0.51100000000E-03 0. -1.
         11    1    4    4    0    0  0.93008144720E-01 -0.29966012072E-01 -0.82303957747E-02  0.98063639537E-01  0.51100000000E-03 0.  1.
</event>
<event>
 8    1  0.1054086E+005  0.1043930E+01  0.7957747E-01            NaN
         13   -1    0    0    0    0  0.00000000000E+00  0.00000000000E+00  0.74505805969E-08  0.10566000000E+00  0.10566000000E+00 0.  1.
     999900   -1    0    0    0    0 -0.00000000000E+00 -0.00000000000E+00 -0.74505805969E-08  0.93827000000E+00  0.93827000000E+00 0. -1.
     999902    2    1    2    0    0  0.21391444482E-01  0.64985525615E-03 -0.97330615928E-02  0.10204193918E+01  0.10201485120E+01 0.  0.
     999903    2    3    3    0    0 -0.10761779021E+00 -0.65950615929E-01 -0.95723810415E-02  0.12852307990E+00  0.22259359329E-01 0.  0.
         14    1    1    2    0    0 -0.21391444482E-01 -0.64985525615E-03  0.97330615928E-02  0.23510608177E-01  0.00000000000E+00 0.  1.
     999901    1    3    3    0    0  0.12900923469E+00  0.66600471185E-01 -0.16068055128E-03  0.89189631192E+00  0.88000000000E+00 0.  1.
        -11    1    4    4    0    0 -0.26865953129E-01 -0.22570866962E-01  0.58213324744E-02  0.35572074802E-01  0.51100000000E-03 0. -1.
         11    1    4    4    0    0 -0.80751837081E-01 -0.43379748967E-01 -0.15393713516E-01  0.92951005101E-01  0.51100000000E-03 0.  1.
</event>
<event>
 8    1  0.1054086E+005  0.1043930E+01  0.7957747E-01            NaN
         13   -1    0    0    0    0  0.00000000000E+00  0.00000000000E+00  0.74505805969E-08  0.10566000000E+00  0.10566000000E+00 0.  1.
     999900   -1    0    0    0    0 -0.00000000000E+00 -0.00000000000E+00 -0.74505805969E-08  0.93827000000E+00  0.93827000000E+00 0. -1.
     999902    2    1    2    0    0  0.43845746618E-02 -0.13229602106E-01  0.19633891641E-01  0.10198522807E+01  0.10195680153E+01 0.  0.
     999903    2    3    3    0    0 -0.17169587308E-01  0.11338177384E+00  0.57125032535E-01  0.12973958665E+00  0.20466304863E-01 0.  0.
         14    1    1    2    0    0 -0.43845746618E-02  0.13229602106E-01 -0.19633891641E-01  0.24077719324E-01  0.00000000000E+00 0. -1.
     999901    1    3    3    0    0  0.21554161970E-01 -0.12661137595E+00 -0.37491140894E-01  0.89011269402E+00  0.88000000000E+00 0. -1.
        -11    1    4    4    0    0 -0.55336216350E-02  0.24849651813E-01  0.22455121755E-01  0.33950254457E-01  0.51100000000E-03 0.  1.
         11    1    4    4    0    0 -0.11635965673E-01  0.88532122028E-01  0.34669910780E-01  0.95789332196E-01  0.51100000000E-03 0. -1.
</event>
<event>
 8    1  0.1054086E+005  0.1043930E+01  0.7957747E-01            NaN
         13   -1    0    0    0    0  0.00000000000E+00  0.00000000000E+00  0.74505805969E-08  0.10566000000E+00  0.10566000000E+00 0.  1.
     999900   -1    0    0    0    0 -0.00000000000E+00 -0.00000000000E+00 -0.74505805969E-08  0.93827000000E+00  0.93827000000E+00 0. -1.
     999902    2    1    2    0    0 -0.80403706990E-02  0.34794758379E-02  0.21670341553E-01  0.10205556975E+01  0.10202879857E+01 0.  0.
     999903    2    3    3    0    0  0.46175928334E-01  0.40050399953E-01 -0.11104663603E+00  0.12820451346E+00  0.19203931967E-01 0.  0.
         14    1    1    2    0    0  0.80403706990E-02 -0.34794758379E-02 -0.21670341553E-01  0.23374302473E-01  0.00000000000E+00 0. -1.
     999901    1    3    3    0    0 -0.54216299033E-01 -0.36570924115E-01  0.13271697758E+00  0.89235118407E+00  0.88000000000E+00 0.  1.
        -11    1    4    4    0    0  0.16473895833E-01  0.13839273489E-01 -0.58949584227E-01  0.62755313210E-01  0.51100000000E-03 0.  1.
         11    1    4    4    0    0  0.29702032501E-01  0.26211126464E-01 -0.52097051804E-01  0.65449200247E-01  0.51100000000E-03 0. -1.
</event>
<event>
 8    1  0.1054086E+005  0.1043930E+01  0.7957747E-01            NaN
         13   -1    0    0    0    0  0.00000000000E+00  0.00000000000E+00  0.74505805969E-08  0.10566000000E+00  0.10566000000E+00 0.  1.
     999900   -1    0    0    0    0 -0.00000000000E+00 -0.00000000000E+00 -0.74505805969E-08  0.93827000000E+00  0.93827000000E+00 0. -1.
     999902    2    1    2    0    0  0.47477489735E-02  0.20329735067E-01 -0.10771827087E-01  0.10204380544E+01  0.10201676095E+01 0.  0.
     999903    2    3    3    0    0  0.31170452038E-01 -0.10746248249E+00 -0.62186359511E-01  0.12933061744E+00  0.18425066462E-01 0.  0.
         14    1    1    2    0    0 -0.47477489735E-02 -0.20329735067E-01  0.10771827087E-01  0.23491945577E-01  0.00000000000E+00 0.  1.
     999901    1    3    3    0    0 -0.26422703065E-01  0.12779221756E+00  0.51414532424E-01  0.89110743699E+00  0.88000000000E+00 0.  1.
        -11    1    4    4    0    0  0.17607710145E-01 -0.59224965936E-01 -0.44677145371E-01  0.76249173676E-01  0.51100000000E-03 0. -1.
         11    1    4    4    0    0  0.13562741893E-01 -0.48237516555E-01 -0.17509214140E-01  0.53081443762E-01  0.51100000000E-03 0.  1.
</event>
<event>
 8    1  0.1054086E+005  0.1043930E+01  0.7957747E-01            NaN
         13   -1    0    0    0    0  0.00000000000E+00  0.00000000000E+00  0.74505805969E-08  0.10566000000E+00  0.10566000000E+00 0. -1.
     999900   -1    0    0    0    0 -0.00000000000E+00 -0.00000000000E+00 -0.74505805969E-08  0.93827000000E+00  0.93827000000E+00 0.  1.
     999902    2    1    2    0    0 -0.22224163757E-01  0.90892226055E-02 -0.94695079631E-02  0.10181191689E+01  0.10177919449E+01 0.  0.
     999903    2    3    3    0    0  0.54181356520E-01 -0.73949757322E-01 -0.85172443769E-01  0.12768994080E+00  0.25420263616E-01 0.  0.
         14    1    1    2    0    0  0.22224163757E-01 -0.90892226055E-02  0.94695079631E-02  0.25810831125E-01  0.00000000000E+00 0. -1.
     999901    1    3    3    0    0 -0.76405520277E-01  0.83038979927E-01  0.75702935806E-01  0.89042922807E+00  0.88000000000E+00 0. -1.
        -11    1    4    4    0    0  0.48561302398E-01 -0.48317363167E-01 -0.66545329927E-01  0.95505548165E-01  0.51100000000E-03 0. -1.
         11    1    4    4    0    0  0.56200541216E-02 -0.25632394155E-01 -0.18627113842E-01  0.32184392638E-01  0.51100000000E-03 0.  1.
</event>
<event>
 8    1  0.1054086E+005  0.1043930E+01  0.7957747E-01            NaN
         13   -1    0    0    0    0  0.00000000000E+00  0.00000000000E+00  0.74505805969E-08  0.10566000000E+00  0.10566000000E+00 0. -1.
     999900   -1    0    0    0    0 -0.00000000000E+00 -0.00000000000E+00 -0.74505805969E-08  0.93827000000E+00  0.93827000000E+00 0.  1.
     999902    2    1    2    0    0  0.46236781723E-02  0.23014514854E-01  0.99567614949E-03  0.10204345182E+01  0.10201639909E+01 0.  0.
     999903    2    3    3    0    0 -0.10545421100E+00  0.68364592223E-01  0.34711540674E-01  0.13177793058E+00  0.19136975886E-01 0.  0.
         14    1    1    2    0    0 -0.46236781723E-02 -0.23014514854E-01 -0.99567614949E-03  0.23495481796E-01  0.00000000000E+00 0. -1.
     999901    1    3    3    0    0  0.11007788917E+00 -0.45350077369E-01 -0.33715864524E-01  0.88865658762E+00  0.88000000000E+00 0. -1.
        -11    1    4    4    0    0 -0.10060678714E+00  0.59627408732E-01  0.33772045680E-01  0.12172906670E+00  0.51100000000E-03 0.  1.
         11    1    4    4    0    0 -0.48474238611E-02  0.87371834913E-02  0.93949499331E-03  0.10048863881E-01  0.51100000000E-03 0. -1.
</event>
<event>
 8    1  0.1054086E+005  0.1043930E+01  0.7957747E-01            NaN
         13   -1    0    0    0    0  0.00000000000E+00  0.00000000000E+00  0.74505805969E-08  0.10566000000E+00  0.10566000000E+00 0. -1.
     999900   -1    0    0    0    0 -0.00000000000E+00 -0.00000000000E+00 -0.74505805969E-08  0.93827000000E+00  0.93827000000E+00 0.  1.
     999902    2    1    2    0    0  0.18854086345E-01  0.14339506658E-01  0.10211893919E-02  0.10202204903E+01  0.10199449534E+01 0.  0.
     999903    2    3    3    0    0  0.34493422275E-01 -0.12282187404E+00 -0.70272818378E-02  0.12942162911E+00  0.20629262417E-01 0.  0.
         14    1    1    2    0    0 -0.18854086345E-01 -0.14339506658E-01 -0.10211893919E-02  0.23709509713E-01  0.00000000000E+00 0. -1.
     999901    1    3    3    0    0 -0.15639335930E-01  0.13716138070E+00  0.80484712298E-02  0.89079886118E+00  0.88000000000E+00 0. -1.
        -11    1    4    4    0    0  0.47849566729E-02 -0.37648727315E-01 -0.97001569677E-02  0.39174949203E-01  0.51100000000E-03 0. -1.
         11    1    4    4    0    0  0.29708465602E-01 -0.85173146727E-01  0.26728751298E-02  0.90246679908E-01  0.51100000000E-03 0.  1.
</event>
<event>
 8    1  0.1054086E+005  0.1043930E+01  0.7957747E-01            NaN
         13   -1    0    0    0    0  0.00000000000E+00  0.00000000000E+00  0.74505805969E-08  0.10566000000E+00  0.10566000000E+00 0.  1.
     999900   -1    0    0    0    0 -0.00000000000E+00 -0.00000000000E+00 -0.74505805969E-08  0.93827000000E+00  0.93827000000E+00 0.  1.
     999902    2    1    2    0    0  0.56472671003E-03  0.14524103574E-01  0.19484505871E-01  0.10196212676E+01  0.10193314549E+01 0.  0.
     999903    2    3    3    0    0  0.11069532942E+00  0.62629460459E-01 -0.21836299243E-01  0.13049232087E+00  0.19378249908E-01 0.  0.
         14    1    1    2    0    0 -0.56472671003E-03 -0.14524103574E-01 -0.19484505871E-01  0.24308732380E-01  0.00000000000E+00 0. -1.
     999901    1    3    3    0    0 -0.11013060271E+00 -0.48105356885E-01  0.41320805113E-01  0.88912894675E+00  0.88000000000E+00 0.  1.
        -11    1    4    4    0    0  0.46978160796E-01  0.15768550672E-01 -0.82678422181E-02  0.50241547727E-01  0.51100000000E-03 0. -1.
         11    1    4    4    0    0  0.63717168621E-01  0.46860909787E-01 -0.13568457025E-01  0.80250773143E-01  0.51100000000E-03 0.  1.
</event>
<event>
 8    1  0.1054086E+005  0.1043930E+01  0.7957747E-01            NaN
         13   -1    0    0    0    0  0.00000000000E+00  0.00000000000E+00  0.74505805969E-08  0.10566000000E+00  0.10566000000E+00 0.  1.
     999900   -1    0    0    0    0 -0.00000000000E+00 -0.00000000000E+00 -0.74505805969E-08  0.93827000000E+00  0.93827000000E+00 0. -1.
     999902    2    1    2    0    0 -0.11831005368E-01  0.23403636646E-01 -0.40409833468E-02  0.10173963903E+01  0.10170503343E+01 0.  0.
     999903    2    3    3    0    0  0.11358147819E+00  0.11843901005E-01 -0.52318096100E-01  0.12711969281E+00  0.19524419111E-01 0.  0.
         14    1    1    2    0    0  0.11831005368E-01 -0.23403636646E-01  0.40409833468E-02  0.26533609681E-01  0.00000000000E+00 0. -1.
     999901    1    3    3    0    0 -0.12541248355E+00  0.11559735641E-01  0.48277112753E-01  0.89027669751E+00  0.88000000000E+00 0.  1.
        -11    1    4    4    0    0  0.70582063890E-01  0.16382737167E-01 -0.29589660994E-01  0.78268965617E-01  0.51100000000E-03 0.  1.
         11    1    4    4    0    0  0.42999414296E-01 -0.45388361617E-02 -0.22728435107E-01  0.48850727189E-01  0.51100000000E-03 0. -1.
</event>
<event>
 8    1  0.1054086E+005  0.1043930E+01  0.7957747E-01            NaN
         13   -1    0    0    0    0  0.00000000000E+00  0.00000000000E+00  0.74505805969E-08  0.10566000000E+00  0.10566000000E+00 0.  1.
     999900   -1    0    0    0    0 -0.00000000000E+00 -0.00000000000E+00 -0.74505805969E-08  0.93827000000E+00  0.93827000000E+00 0. -1.
     999902    2    1    2    0    0 -0.16045592863E-01 -0.38892112139E-02 -0.13749339741E-01  0.10224443919E+01  0.10222186180E+01 0.  0.
     999903    2    3    3    0    0  0.85199456660E-01  0.30335905000E-01 -0.94378800163E-01  0.13231910375E+00  0.20537106643E-01 0.  0.
         14    1    1    2    0    0  0.16045592863E-01  0.38892112139E-02  0.13749339741E-01  0.21485608148E-01  0.00000000000E+00 0.  1.
     999901    1    3    3    0    0 -0.10124504952E+00 -0.34225116214E-01  0.80629460422E-01  0.89012528810E+00  0.88000000000E+00 0.  1.
        -11    1    4    4    0    0  0.55406960800E-01  0.99149609529E-02 -0.51978684113E-01  0.76617768689E-01  0.51100000000E-03 0. -1.
         11    1    4    4    0    0  0.29792495860E-01  0.20420944047E-01 -0.42400116050E-01  0.55701335060E-01  0.51100000000E-03 0.  1.
</event>
<event>
 8    1  0.1054086E+005  0.1043930E+01  0.7957747E-01            NaN
         13   -1    0    0    0    0  0.00000000000E+00  0.00000000000E+00  0.74505805969E-08  0.10566000000E+00  0.10566000000E+00 0. -1.
     999900   -1    0    0    0    0 -0.00000000000E+00 -0.00000000000E+00 -0.74505805969E-08  0.93827000000E+00  0.93827000000E+00 0.  1.
     999902    2    1    2    0    0  0.19481979758E-01  0.24881646955E-02 -0.12908439171E-01  0.10204275256E+01  0.10201568354E+01 0.  0.
     999903    2    3    3    0    0 -0.33418739363E-01 -0.11689100053E+00  0.41449840587E-01  0.12913369433E+00  0.13308026892E-01 0.  0.
         14    1    1    2    0    0 -0.19481979758E-01 -0.24881646955E-02  0.12908439171E-01  0.23502474352E-01  0.00000000000E+00 0.  1.
     999901    1    3    3    0    0  0.52900719121E-01  0.11937916523E+00 -0.54358279757E-01  0.89129383132E+00  0.88000000000E+00 0.  1.
        -11    1    4    4    0    0 -0.67576166572E-02 -0.40945283347E-01  0.98007191039E-02  0.42643836919E-01  0.51100000000E-03 0. -1.
         11    1    4    4    0    0 -0.26661122706E-01 -0.75945717185E-01  0.31649121483E-01  0.86489857407E-01  0.51100000000E-03 0.  1.
</event>
<event>
 8    1  0.1054086E+005  0.1043930E+01  0.7957747E-01            NaN
         13   -1    0    0    0    0  0.00000000000E+00  0.00000000000E+00  0.74505805969E-08  0.10566000000E+00  0.10566000000E+00 0. -1.
     999900   -1    0    0    0    0 -0.00000000000E+00 -0.00000000000E+00 -0.74505805969E-08  0.93827000000E+00  0.93827000000E+00 0. -1.
     999902    2    1    2    0    0  0.84358810075E-03 -0.15264356415E-01  0.17781177608E-01  0.10204804266E+01  0.10202109676E+01 0.  0.
     999903    2    3    3    0    0 -0.66725167986E-01  0.35444579547E-01  0.10642447793E+00  0.13200163239E+00  0.19740698790E-01 0.  0.
         14    1    1    2    0    0 -0.84358810075E-03  0.15264356415E-01 -0.17781177608E-01  0.23449573445E-01  0.00000000000E+00 0.  1.
     999901    1    3    3    0    0  0.67568756087E-01 -0.50708935962E-01 -0.88643300324E-01  0.88847879416E+00  0.88000000000E+00 0. -1.
        -11    1    4    4    0    0 -0.16788113989E-01  0.13026241720E-01  0.17287568858E-01  0.27397899603E-01  0.51100000000E-03 0.  1.
         11    1    4    4    0    0 -0.49937053998E-01  0.22418337827E-01  0.89136909074E-01  0.10460373279E+00  0.51100000000E-03 0. -1.
</event>
<event>
 8    1  0.1054086E+005  0.1043930E+01  0.7957747E-01            NaN
         13   -1    0    0    0    0  0.00000000000E+00  0.00000000000E+00  0.74505805969E-08  0.10566000000E+00  0.10566000000E+00 0. -1.
     999900   -1    0    0    0    0 -0.00000000000E+00 -0.00000000000E+00 -0.74505805969E-08  0.93827000000E+00  0.93827000000E+00 0.  1.
     999902    2    1    2    0    0 -0.21002726504E-01  0.71597916896E-02 -0.80549770234E-02  0.10203236493E+01  0.10200505328E+01 0.  0.
     999903    2    3    3    0    0  0.47847658557E-01  0.16664347569E-01 -0.11875854700E+00  0.13066866422E+00  0.20090007811E-01 0.  0.
         14    1    1    2    0    0  0.21002726504E-01 -0.71597916896E-02  0.80549770234E-02  0.23606350681E-01  0.00000000000E+00 0.  1.
     999901    1    3    3    0    0 -0.68850385061E-01 -0.95045558794E-02  0.11070356998E+00  0.88965498510E+00  0.88000000000E+00 0. -1.
        -11    1    4    4    0    0  0.93958586970E-02  0.12732500915E-01 -0.33072000519E-01  0.36666293507E-01  0.51100000000E-03 0. -1.
         11    1    4    4    0    0  0.38451799860E-01  0.39318466539E-02 -0.85686546482E-01  0.94002370712E-01  0.51100000000E-03 0.  1.
</event>
<event>
 8    1  0.1054086E+005  0.1043930E+01  0.7957747E-01            NaN
         13   -1    0    0    0    0  0.00000000000E+00  0.00000000000E+00  0.74505805969E-08  0.10566000000E+00  0.10566000000E+00 0. -1.
     999900   -1    0    0    0    0 -0.00000000000E+00 -0.00000000000E+00 -0.74505805969E-08  0.93827000000E+00  0.93827000000E+00 0.  1.
     999902    2    1    2    0    0  0.26412193102E-02 -0.10845691978E-01  0.20172788615E-01  0.10208747083E+01  0.10206143364E+01 0.  0.
     999903    2    3    3    0    0  0.10720431054E-01 -0.66950870004E-01  0.11463915419E+00  0.13400551904E+00  0.14764715562E-01 0.  0.
         14    1    1    2    0    0 -0.26412193102E-02  0.10845691978E-01 -0.20172788615E-01  0.23055291679E-01  0.00000000000E+00 0.  1.
     999901    1    3    3    0    0 -0.80792117433E-02  0.56105178026E-01 -0.94466365571E-01  0.88686918928E+00  0.88000000000E+00 0.  1.
        -11    1    4    4    0    0  0.13481624712E-01 -0.40638401958E-01  0.74498559685E-01  0.85927471944E-01  0.51100000000E-03 0. -1.
         11    1    4    4    0    0 -0.27611936581E-02 -0.26312468046E-01  0.40140594500E-01  0.48078047100E-01  0.51100000000E-03 0.  1.
</event>
<event>
 7    1  0.1054086E+005  0.1043930E+01  0.7957747E-01            NaN
         13   -1    0    0    0    0  0.00000000000E+00  0.00000000000E+00  0.74505805969E-08  0.10566000000E+00  0.10566000000E+00 0. -1.
     999900   -1    0    0    0    0 -0.00000000000E+00 -0.00000000000E+00 -0.74505805969E-08  0.93827000000E+00  0.93827000000E+00 0. -1.
     999902    2    1    2    0    0 -0.32045499118E-02 -0.12515096131E-01 -0.19577001919E-01  0.10204746003E+01  0.10202050059E+01 0.  0.
         14    1    1    2    0    0  0.32045499118E-02  0.12515096131E-01  0.19577001919E-01  0.23455399707E-01  0.00000000000E+00 0. -1.
     999901    1    3    3    0    0 -0.56711837186E-02 -0.31279093608E-01  0.10762025419E+00  0.88712606947E+00  0.88000000000E+00 0.  1.
        -11    1    3    3    0    0 -0.36684319119E-02 -0.90458968806E-02 -0.52556741827E-01  0.53458001043E-01  0.51100000000E-03 0.  1.
         11    1    3    3    0    0  0.61350657187E-02  0.27809894357E-01 -0.74640514279E-01  0.79890529779E-01  0.51100000000E-03 0. -1.
</event>
<event>
 8    1  0.1054086E+005  0.1043930E+01  0.7957747E-01            NaN
         13   -1    0    0    0    0  0.00000000000E+00  0.00000000000E+00  0.74505805969E-08  0.10566000000E+00  0.10566000000E+00 0. -1.
     999900   -1    0    0    0    0 -0.00000000000E+00 -0.00000000000E+00 -0.74505805969E-08  0.93827000000E+00  0.93827000000E+00 0.  1.
     999902    2    1    2    0    0 -0.10665198351E-01 -0.90527394291E-02  0.17210893052E-01  0.10217508795E+01  0.10215101303E+01 0.  0.
     999903    2    3    3    0    0 -0.48757002223E-02  0.12664628290E+00  0.27610407865E-01  0.13127017062E+00  0.20161092413E-01 0.  0.
         14    1    1    2    0    0  0.10665198351E-01  0.90527394291E-02 -0.17210893052E-01  0.22179120512E-01  0.00000000000E+00 0.  1.
     999901    1    3    3    0    0 -0.57894981286E-02 -0.13569902233E+00 -0.10399514814E-01  0.89048070886E+00  0.88000000000E+00 0.  1.
        -11    1    4    4    0    0  0.19247089336E-02  0.41150269895E-01  0.18023741816E-01  0.44968495716E-01  0.51100000000E-03 0. -1.
         11    1    4    4    0    0 -0.68004091559E-02  0.85496013009E-01  0.95866660496E-02  0.86301674909E-01  0.51100000000E-03 0.  1.
</event>
<event>
 8    1  0.1054086E+005  0.1043930E+01  0.7957747E-01            NaN
         13   -1    0    0    0    0  0.00000000000E+00  0.00000000000E+00  0.74505805969E-08  0.10566000000E+00  0.10566000000E+00 0. -1.
     999900   -1    0    0    0    0 -0.00000000000E+00 -0.00000000000E+00 -0.74505805969E-08  0.93827000000E+00  0.93827000000E+00 0.  1.
     999902    2    1    2    0    0 -0.50242751670E-02  0.21239479339E-01  0.97216916718E-02  0.10200371117E+01  0.10197572452E+01 0.  0.
     999903    2    3    3    0    0  0.32892707269E-01  0.89785280209E-01  0.90069056357E-01  0.13291145914E+00  0.20240907191E-01 0.  0.
         14    1    1    2    0    0  0.50242751670E-02 -0.21239479339E-01 -0.97216916718E-02  0.23892888325E-01  0.00000000000E+00 0.  1.
     999901    1    3    3    0    0 -0.37916982436E-01 -0.68545800870E-01 -0.80347364685E-01  0.88712565254E+00  0.88000000000E+00 0. -1.
        -11    1    4    4    0    0  0.20622037994E-01  0.35568973049E-01  0.28912414753E-01  0.50265387123E-01  0.51100000000E-03 0.  1.
         11    1    4    4    0    0  0.12270669275E-01  0.54216307161E-01  0.61156641604E-01  0.82646072017E-01  0.51100000000E-03 0. -1.
</event>
<event>
 8    1  0.1054086E+005  0.1043930E+01  0.7957747E-01            NaN
         13   -1    0    0    0    0  0.00000000000E+00  0.00000000000E+00  0.74505805969E-08  0.10566000000E+00  0.10566000000E+00 0. -1.
     999900   -1    0    0    0    0 -0.00000000000E+00 -0.00000000000E+00 -0.74505805969E-08  0.93827000000E+00  0.93827000000E+00 0.  1.
     999902    2    1    2    0    0  0.15385329964E-01 -0.13308120824E-01 -0.45925941408E-02  0.10230755909E+01  0.10228630203E+01 0.  0.
     999903    2    3    3    0    0  0.95719547606E-02 -0.86866240980E-01  0.99339814295E-01  0.13389251757E+00  0.20529038390E-01 0.  0.
         14    1    1    2    0    0 -0.15385329964E-01  0.13308120824E-01  0.45925941408E-02  0.20854409100E-01  0.00000000000E+00 0. -1.
     999901    1    3    3    0    0  0.58133752036E-02  0.73558120156E-01 -0.10393240844E+00  0.88918307333E+00  0.88000000000E+00 0.  1.
        -11    1    4    4    0    0  0.93239741847E-02 -0.15557578470E-01  0.24872073266E-01  0.30787268342E-01  0.51100000000E-03 0. -1.
         11    1    4    4    0    0  0.24798057596E-03 -0.71308662511E-01  0.74467741029E-01  0.10310524923E+00  0.51100000000E-03 0.  1.
</event>
<event>
 8    1  0.1064738E+005  0.1043930E+01  0.7957747E-01            NaN
         13   -1    0    0    0    0  0.00000000000E+00  0.00000000000E+00  0.74505805969E-08  0.10566000000E+00  0.10566000000E+00 0. -1.
     999900   -1    0    0    0    0 -0.00000000000E+00 -0.00000000000E+00 -0.74505805969E-08  0.93827000000E+00  0.93827000000E+00 0. -1.
     999902    2    1    2    0    0 -0.95208046926E-03  0.23048815295E-01  0.45238675762E-02  0.10204221349E+01  0.10201513190E+01 0.  0.
     999903    2    3    3    0    0  0.61215873520E-01 -0.75531592825E-01  0.82971985565E-01  0.12927845480E+00  0.19394942672E-01 0.  0.
         14    1    1    2    0    0  0.95208046926E-03 -0.23048815295E-01 -0.45238675762E-02  0.23507865100E-01  0.00000000000E+00 0.  1.
     999901    1    3    3    0    0 -0.62167953989E-01  0.98580408120E-01 -0.78448117988E-01  0.89114368010E+00  0.88000000000E+00 0. -1.
        -11    1    4    4    0    0  0.24199346109E-01 -0.31450995352E-01  0.46498964888E-01  0.61132547120E-01  0.51100000000E-03 0.  1.
         11    1    4    4    0    0  0.37016527411E-01 -0.44080597473E-01  0.36473020677E-01  0.68145907679E-01  0.51100000000E-03 0. -1.
</event>
<event>
 8    1  0.1054086E+005  0.1043930E+01  0.7957747E-01            NaN
         13   -1    0    0    0    0  0.00000000000E+00  0.00000000000E+00  0.74505805969E-08  0.10566000000E+00  0.10566000000E+00 0. -1.
     999900   -1    0    0    0    0 -0.00000000000E+00 -0.00000000000E+00 -0.74505805969E-08  0.93827000000E+00  0.93827000000E+00 0.  1.
     999902    2    1    2    0    0  0.13371676629E-01 -0.63649820881E-02  0.18552656322E-01  0.10201915125E+01  0.10199152937E+01 0.  0.
     999903    2    3    3    0    0  0.10079432870E-01  0.90816831409E-01  0.92822253670E-01  0.13172591561E+00  0.19658439223E-01 0.  0.
         14    1    1    2    0    0 -0.13371676629E-01  0.63649820881E-02 -0.18552656322E-01  0.23738487514E-01  0.00000000000E+00 0.  1.
     999901    1    3    3    0    0  0.32922437588E-02 -0.97181813497E-01 -0.74269597347E-01  0.88846559688E+00  0.88000000000E+00 0.  1.
        -11    1    4    4    0    0  0.77687164272E-02  0.13431831965E-01  0.10653315839E-01  0.18828736660E-01  0.51100000000E-03 0. -1.
         11    1    4    4    0    0  0.23107164427E-02  0.77384999444E-01  0.82168937831E-01  0.11289717895E+00  0.51100000000E-03 0.  1.
</event>
<event>
 8    1  0.1054086E+005  0.1043930E+01  0.7957747E-01            NaN
         13   -1    0    0    0    0  0.00000000000E+00  0.00000000000E+00  0.74505805969E-08  0.10566000000E+00  0.10566000000E+00 0. -1.
     999900   -1    0    0    0    0 -0.00000000000E+00 -0.00000000000E+00 -0.74505805969E-08  0.93827000000E+00  0.93827000000E+00 0. -1.
     999902    2    1    2    0    0  0.19681232118E-01 -0.77265805282E-02  0.16174183391E-02  0.10227246472E+01  0.10225047858E+01 0.  0.
     999903    2    3    3    0    0  0.99741762398E-01 -0.83495128648E-01 -0.30138299366E-01  0.13527944497E+00  0.21733740325E-01 0.  0.
         14    1    1    2    0    0 -0.19681232118E-01  0.77265805282E-02 -0.16174183391E-02  0.21205352778E-01  0.00000000000E+00 0. -1.
     999901    1    3    3    0    0 -0.80060530280E-01  0.75768548120E-01  0.31755717705E-01  0.88744520225E+00  0.88000000000E+00 0.  1.
        -11    1    4    4    0    0  0.64962229882E-01 -0.57920514894E-01 -0.30139589305E-01  0.92106098177E-01  0.51100000000E-03 0.  1.
         11    1    4    4    0    0  0.34779532516E-01 -0.25574613754E-01  0.12899387785E-05  0.43173346793E-01  0.51100000000E-03 0. -1.
</event>
<event>
 8    1  0.1054086E+005  0.1043930E+01  0.7957747E-01            NaN
         13   -1    0    0    0    0  0.00000000000E+00  0.00000000000E+00  0.74505805969E-08  0.10566000000E+00  0.10566000000E+00 0.  1.
     999900   -1    0    0    0    0 -0.00000000000E+00 -0.00000000000E+00 -0.74505805969E-08  0.93827000000E+00  0.93827000000E+00 0.  1.
     999902    2    1    2    0    0  0.21320598907E-01 -0.46632294410E-02  0.85830454498E-02  0.10204782982E+01  0.10202087898E+01 0.  0.
     999903    2    3    3    0    0  0.21453030371E-01 -0.11662666304E+00  0.55004610039E-01  0.13217047453E+00  0.19532438829E-01 0.  0.
         14    1    1    2    0    0 -0.21320598907E-01  0.46632294410E-02 -0.85830454498E-02  0.23451701767E-01  0.00000000000E+00 0. -1.
     999901    1    3    3    0    0 -0.13243146410E-03  0.11196343360E+00 -0.46421564589E-01  0.88830782371E+00  0.88000000000E+00 0.  1.
        -11    1    4    4    0    0  0.19884242176E-01 -0.54943311962E-01  0.28517522273E-01  0.65020464577E-01  0.51100000000E-03 0. -1.
         11    1    4    4    0    0  0.15687881954E-02 -0.61683351079E-01  0.26487087765E-01  0.67150009948E-01  0.51100000000E-03 0.  1.
</event>
<event>
 8    1  0.1054086E+005  0.1043930E+01  0.7957747E-01            NaN
         13   -1    0    0    0    0  0.00000000000E+00  0.00000000000E+00  0.74505805969E-08  0.10566000000E+00  0.10566000000E+00 0.  1.
     999900   -1    0    0    0    0 -0.00000000000E+00 -0.00000000000E+00 -0.74505805969E-08  0.93827000000E+00  0.93827000000E+00 0. -1.
     999902    2    1    2    0    0  0.38925128121E-02  0.12271790457E-01 -0.17494144291E-01  0.10222091901E+01  0.10219783925E+01 0.  0.
     999903    2    3    3    0    0  0.82069278728E-01  0.67315075205E-01 -0.80848873147E-01  0.13476612627E+00  0.18938918642E-01 0.  0.
         14    1    1    2    0    0 -0.38925128121E-02 -0.12271790457E-01  0.17494144291E-01  0.21720809872E-01  0.00000000000E+00 0.  1.
     999901    1    3    3    0    0 -0.78176765916E-01 -0.55043284748E-01  0.63354728856E-01  0.88744306386E+00  0.88000000000E+00 0.  1.
        -11    1    4    4    0    0  0.26155996013E-01  0.10968447481E-01 -0.19145852691E-01  0.34223789443E-01  0.51100000000E-03 0.  1.
         11    1    4    4    0    0  0.55913282715E-01  0.56346627724E-01 -0.61703020456E-01  0.10054233683E+00  0.51100000000E-03 0. -1.
</event>
<event>
 8    1  0.1054086E+005  0.1043930E+01  0.7957747E-01            NaN
         13   -1    0    0    0    0  0.00000000000E+00  0.00000000000E+00  0.74505805969E-08  0.10566000000E+00  0.10566000000E+00 0.  1.
     999900   -1    0    0    0    0 -0.00000000000E+00 -0.00000000000E+00 -0.74505805969E-08  0.93827000000E+00  0.93827000000E+00 0. -1.
     999902    2    1    2    0    0  0.98810046775E-02  0.91676763501E-02 -0.20554011870E-01  0.10193505788E+01  0.10190541961E+01 0.  0.
     999903    2    3    3    0    0  0.22228522706E-01  0.11782714637E+00 -0.51538081857E-01  0.13204039953E+00  0.20028718975E-01 0.  0.
         14    1    1    2    0    0 -0.98810046775E-02 -0.91676763501E-02  0.20554011870E-01  0.24579421210E-01  0.00000000000E+00 0. -1.
     999901    1    3    3    0    0 -0.12347518029E-01 -0.10865947002E+00  0.30984069987E-01  0.88731017926E+00  0.88000000000E+00 0. -1.
        -11    1    4    4    0    0  0.21146762272E-01  0.89020994587E-01 -0.30870906835E-01  0.96567059817E-01  0.51100000000E-03 0. -1.
         11    1    4    4    0    0  0.10817604349E-02  0.28806151780E-01 -0.20667175022E-01  0.35473339713E-01  0.51100000000E-03 0.  1.
</event>
<event>
 8    1  0.1054086E+005  0.1043930E+01  0.7957747E-01            NaN
         13   -1    0    0    0    0  0.00000000000E+00  0.00000000000E+00  0.74505805969E-08  0.10566000000E+00  0.10566000000E+00 0.  1.
     999900   -1    0    0    0    0 -0.00000000000E+00 -0.00000000000E+00 -0.74505805969E-08  0.93827000000E+00  0.93827000000E+00 0.  1.
     999902    2    1    2    0    0  0.24579840337E-01 -0.49204659102E-02  0.57994963126E-02  0.10182003732E+01  0.10178752312E+01 0.  0.
     999903    2    3    3    0    0 -0.92819087654E-01 -0.53991805462E-01  0.64915377392E-01  0.12708579472E+00  0.20156758342E-01 0.  0.
         14    1    1    2    0    0 -0.24579840337E-01  0.49204659102E-02 -0.57994963126E-02  0.25729626761E-01  0.00000000000E+00 0.  1.
     999901    1    3    3    0    0  0.11739892799E+00  0.49071339551E-01 -0.59115881079E-01  0.89111457852E+00  0.88000000000E+00 0.  1.
        -11    1    4    4    0    0 -0.41232608929E-01 -0.17009123072E-01  0.17761437598E-01  0.48012166096E-01  0.51100000000E-03 0. -1.
         11    1    4    4    0    0 -0.51586478726E-01 -0.36982682390E-01  0.47153939794E-01  0.79073628621E-01  0.51100000000E-03 0.  1.
</event>
<event>
 8    1  0.1054086E+005  0.1043930E+01  0.7957747E-01            NaN
         13   -1    0    0    0    0  0.00000000000E+00  0.00000000000E+00  0.74505805969E-08  0.10566000000E+00  0.10566000000E+00 0.  1.
     999900   -1    0    0    0    0 -0.00000000000E+00 -0.00000000000E+00 -0.74505805969E-08  0.93827000000E+00  0.93827000000E+00 0. -1.
     999902    2    1    2    0    0 -0.16204373228E-01  0.83505540855E-02 -0.15668140114E-01  0.10198924444E+01  0.10196091379E+01 0.  0.
     999903    2    3    3    0    0  0.50237748849E-01 -0.10059726165E+00  0.57181434331E-01  0.12770903127E+00  0.19905772426E-01 0.  0.
         14    1    1    2    0    0  0.16204373228E-01 -0.83505540855E-02  0.15668140114E-01  0.24037555614E-01  0.00000000000E+00 0. -1.
     999901    1    3    3    0    0 -0.66442122077E-01  0.10894781573E+00 -0.72849574446E-01  0.89218341311E+00  0.88000000000E+00 0.  1.
        -11    1    4    4    0    0  0.15580769024E-01 -0.46672149497E-01  0.17037400945E-01  0.52072872535E-01  0.51100000000E-03 0. -1.
         11    1    4    4    0    0  0.34656979824E-01 -0.53925112150E-01  0.40144033386E-01  0.75636158737E-01  0.51100000000E-03 0.  1.
</event>
<event>
 8    1  0.1054086E+005  0.1043930E+01  0.7957747E-01            NaN
         13   -1    0    0    0    0  0.00000000000E+00  0.00000000000E+00  0.74505805969E-08  0.10566000000E+00  0.10566000000E+00 0. -1.
     999900   -1    0    0    0    0 -0.00000000000E+00 -0.00000000000E+00 -0.74505805969E-08  0.93827000000E+00  0.93827000000E+00 0. -1.
     999902    2    1    2    0    0  0.17979034106E-01 -0.13599064818E-01  0.70597760135E-02  0.10203075389E+01  0.10200340451E+01 0.  0.
     999903    2    3    3    0    0  0.12656947615E+00  0.15321120053E-01 -0.29987807611E-01  0.13238818183E+00  0.19307849950E-01 0.  0.
         14    1    1    2    0    0 -0.17979034106E-01  0.13599064818E-01 -0.70597760135E-02  0.23622461105E-01  0.00000000000E+00 0. -1.
     999901    1    3    3    0    0 -0.10859044205E+00 -0.28920184871E-01  0.37047583625E-01  0.88791935706E+00  0.88000000000E+00 0.  1.
        -11    1    4    4    0    0  0.97367498762E-01  0.69067352637E-02 -0.29558817616E-01  0.10199077226E+00  0.51100000000E-03 0. -1.
         11    1    4    4    0    0  0.29201977391E-01  0.84143847893E-02 -0.42898999527E-03  0.30397409567E-01  0.51100000000E-03 0.  1.
</event>
<event>
 8    1  0.1054086E+005  0.1043930E+01  0.7957747E-01            NaN
         13   -1    0    0    0    0  0.00000000000E+00  0.00000000000E+00  0.74505805969E-08  0.10566000000E+00  0.10566000000E+00 0. -1.
     999900   -1    0    0    0    0 -0.00000000000E+00 -0.00000000000E+00 -0.74505805969E-08  0.93827000000E+00  0.93827000000E+00 0. -1.
     999902    2    1    2    0    0 -0.17086197314E-01 -0.34191420238E-02 -0.11311773521E-01  0.10231553787E+01  0.10229444482E+01 0.  0.
     999903    2    3    3    0    0 -0.98820188846E-02  0.96012520986E-01 -0.90719440834E-01  0.13397365742E+00  0.20071508503E-01 0.  0.
         14    1    1    2    0    0  0.17086197314E-01  0.34191420238E-02  0.11311773521E-01  0.20774621321E-01  0.00000000000E+00 0. -1.
     999901    1    3    3    0    0 -0.72041784293E-02 -0.99431663010E-01  0.79407667313E-01  0.88918172126E+00  0.88000000000E+00 0. -1.
        -11    1    4    4    0    0 -0.43742258925E-02  0.15008278649E-01 -0.63472805081E-02  0.16879910279E-01  0.51100000000E-03 0.  1.
         11    1    4    4    0    0 -0.55077929920E-02  0.81004242337E-01 -0.84372160326E-01  0.11709374714E+00  0.51100000000E-03 0. -1.
</event>
<event>
 8    1  0.1054086E+005  0.1043930E+01  0.7957747E-01            NaN
         13   -1    0    0    0    0  0.00000000000E+00  0.00000000000E+00  0.74505805969E-08  0.10566000000E+00  0.10566000000E+00 0. -1.
     999900   -1    0    0    0    0 -0.00000000000E+00 -0.00000000000E+00 -0.74505805969E-08  0.93827000000E+00  0.93827000000E+00 0.  1.
     999902    2    1    2    0    0  0.25289964915E-02  0.38243492754E-02 -0.23355737347E-01  0.10201284888E+01  0.10198507840E+01 0.  0.
     999903    2    3    3    0    0 -0.31024024000E-01 -0.91944813877E-01 -0.87535740168E-01  0.13197500508E+00  0.18399926505E-01 0.  0.
         14    1    1    2    0    0 -0.25289964915E-02 -0.38243492754E-02  0.23355737347E-01  0.23801511248E-01  0.00000000000E+00 0. -1.
     999901    1    3    3    0    0  0.33553020492E-01  0.95769163152E-01  0.64180002821E-01  0.88815348367E+00  0.88000000000E+00 0.  1.
        -11    1    4    4    0    0 -0.27692186460E-01 -0.65626003603E-01 -0.55014401053E-01  0.90002638762E-01  0.51100000000E-03 0.  1.
         11    1    4    4    0    0 -0.33318375400E-02 -0.26318810274E-01 -0.32521339115E-01  0.41972366319E-01  0.51100000000E-03 0. -1.
</event>
<event>
 8    1  0.1054086E+005  0.1043930E+01  0.7957747E-01            NaN
         13   -1    0    0    0    0  0.00000000000E+00  0.00000000000E+00  0.74505805969E-08  0.10566000000E+00  0.10566000000E+00 0. -1.
     999900   -1    0    0    0    0 -0.00000000000E+00 -0.00000000000E+00 -0.74505805969E-08  0.93827000000E+00  0.93827000000E+00 0. -1.
     999902    2    1    2    0    0  0.20124545738E-01 -0.60001137074E-02 -0.10064284233E-01  0.10206429108E+01  0.10203772160E+01 0.  0.
     999903    2    3    3    0    0  0.94214664736E-01 -0.59918370751E-02 -0.92647402636E-01  0.13367655449E+00  0.19328084303E-01 0.  0.
         14    1    1    2    0    0 -0.20124545738E-01  0.60001137074E-02  0.10064284233E-01  0.23287089186E-01  0.00000000000E+00 0. -1.
     999901    1    3    3    0    0 -0.74090118998E-01 -0.82766323318E-05  0.82583118404E-01  0.88696635632E+00  0.88000000000E+00 0.  1.
        -11    1    4    4    0    0  0.63080002547E-01 -0.12323779749E-01 -0.66959495930E-01  0.92815933357E-01  0.51100000000E-03 0. -1.
         11    1    4    4    0    0  0.31134662189E-01  0.63319426739E-02 -0.25687906706E-01  0.40860621135E-01  0.51100000000E-03 0.  1.
</event>
<event>
 8    1  0.1054086E+005  0.1043930E+01  0.7957747E-01            NaN
         13   -1    0    0    0    0  0.00000000000E+00  0.00000000000E+00  0.74505805969E-08  0.10566000000E+00  0.10566000000E+00 0.  1.
     999900   -1    0    0    0    0 -0.00000000000E+00 -0.00000000000E+00 -0.74505805969E-08  0.93827000000E+00  0.93827000000E+00 0. -1.
     999902    2    1    2    0    0 -0.22382479932E-01  0.82548327537E-02 -0.18321177445E-02  0.10200035643E+01  0.10197229020E+01 0.  0.
     999903    2    3    3    0    0  0.10634038433E+00  0.64553819277E-01 -0.24460000978E-01  0.12857147332E+00  0.21374264421E-01 0.  0.
         14    1    1    2    0    0  0.22382479932E-01 -0.82548327537E-02  0.18321177445E-02  0.23926435738E-01  0.00000000000E+00 0. -1.
     999901    1    3    3    0    0 -0.12872286426E+00 -0.56298986523E-01  0.22627883234E-01  0.89143209095E+00  0.88000000000E+00 0. -1.
        -11    1    4    4    0    0  0.29901037479E-01  0.29910160248E-01 -0.85611376679E-02  0.43153724376E-01  0.51100000000E-03 0. -1.
         11    1    4    4    0    0  0.76439346855E-01  0.34643659029E-01 -0.15898863310E-01  0.85417748940E-01  0.51100000000E-03 0.  1.
</event>
<event>
 8    1  0.1054086E+005  0.1043930E+01  0.7957747E-01            NaN
         13   -1    0    0    0    0  0.00000000000E+00  0.00000000000E+00  0.74505805969E-08  0.10566000000E+00  0.10566000000E+00 0. -1.
     999900   -1    0    0    0    0 -0.00000000000E+00 -0.00000000000E+00 -0.74505805969E-08  0.93827000000E+00  0.93827000000E+00 0. -1.
     999902    2    1    2    0    0  0.14813785754E-01  0.76842140567E-02  0.16695943121E-01  0.10203238586E+01  0.10200507471E+01 0.  0.
     999903    2    3    3    0    0 -0.64665009569E-01  0.42579902894E-01  0.10518671060E+00  0.13163650981E+00  0.16410820662E-01 0.  0.
         14    1    1    2    0    0 -0.14813785754E-01 -0.76842140567E-02 -0.16695943121E-01  0.23606141378E-01  0.00000000000E+00 0.  1.
     999901    1    3    3    0    0  0.79478795324E-01 -0.34895688837E-01 -0.88490767483E-01  0.88868734881E+00  0.88000000000E+00 0. -1.
        -11    1    4    4    0    0 -0.38483722379E-01  0.15820538705E-01  0.58542227252E-01  0.71824367910E-01  0.51100000000E-03 0.  1.
         11    1    4    4    0    0 -0.26181287190E-01  0.26759364189E-01  0.46644483352E-01  0.59812141902E-01  0.51100000000E-03 0. -1.
</event>
<event>
 8    1  0.1054086E+005  0.1043930E+01  0.7957747E-01            NaN
         13   -1    0    0    0    0  0.00000000000E+00  0.00000000000E+00  0.74505805969E-08  0.10566000000E+00  0.10566000000E+00 0. -1.
     999900   -1    0    0    0    0 -0.00000000000E+00 -0.00000000000E+00 -0.74505805969E-08  0.93827000000E+00  0.93827000000E+00 0. -1.
     999902    2    1    2    0    0  0.18728021288E-01 -0.59835313858E-02 -0.16429077027E-01  0.10183086027E+01  0.10179862250E+01 0.  0.
     999903    2    3    3    0    0 -0.11221392492E+00  0.47682993164E-01  0.25130128340E-01  0.12603450987E+00  0.19686074898E-01 0.  0.
         14    1    1    2    0    0 -0.18728021288E-01  0.59835313858E-02  0.16429077027E-01  0.25621397331E-01  0.00000000000E+00 0. -1.
     999901    1    3    3    0    0  0.13094194621E+00 -0.53666524550E-01 -0.41559205367E-01  0.89227409280E+00  0.88000000000E+00 0. -1.
        -11    1    4    4    0    0 -0.29958341632E-01  0.37312731603E-02  0.76385860439E-02  0.31145364832E-01  0.51100000000E-03 0.  1.
         11    1    4    4    0    0 -0.82255583285E-01  0.43951720004E-01  0.17491542296E-01  0.94889145036E-01  0.51100000000E-03 0. -1.
</event>
<event>
 8    1  0.1054086E+005  0.1043930E+01  0.7957747E-01            NaN
         13   -1    0    0    0    0  0.00000000000E+00  0.00000000000E+00  0.74505805969E-08  0.10566000000E+00  0.10566000000E+00 0. -1.
     999900   -1    0    0    0    0 -0.00000000000E+00 -0.00000000000E+00 -0.74505805969E-08  0.93827000000E+00  0.93827000000E+00 0.  1.
     999902    2    1    2    0    0 -0.10645191241E-01 -0.21697602104E-01 -0.10875774024E-01  0.10174273870E+01  0.10170821498E+01 0.  0.
     999903    2    3    3    0    0 -0.21953920990E-01 -0.49519212961E-01  0.11428905479E+00  0.12806347739E+00  0.20103211095E-01 0.  0.
         14    1    1    2    0    0  0.10645191241E-01  0.21697602104E-01  0.10875774024E-01  0.26502612970E-01  0.00000000000E+00 0.  1.
     999901    1    3    3    0    0  0.11308729749E-01  0.27821610857E-01 -0.12516482882E+00  0.88936390964E+00  0.88000000000E+00 0.  1.
        -11    1    4    4    0    0 -0.17185775330E-01 -0.26866580110E-01  0.84595425676E-01  0.90409132098E-01  0.51100000000E-03 0.  1.
         11    1    4    4    0    0 -0.47681456600E-02 -0.22652632851E-01  0.29693629117E-01  0.37654345290E-01  0.51100000000E-03 0. -1.
</event>
<event>
 8    1  0.1054086E+005  0.1043930E+01  0.7957747E-01            NaN
         13   -1    0    0    0    0  0.00000000000E+00  0.00000000000E+00  0.74505805969E-08  0.10566000000E+00  0.10566000000E+00 0.  1.
     999900   -1    0    0    0    0 -0.00000000000E+00 -0.00000000000E+00 -0.74505805969E-08  0.93827000000E+00  0.93827000000E+00 0. -1.
     999902    2    1    2    0    0  0.20536860114E-01  0.53629946401E-02  0.13551824479E-01  0.10187471431E+01  0.10184358425E+01 0.  0.
     999903    2    3    3    0    0  0.93833341993E-03  0.48456358241E-01  0.12002117146E+00  0.13106653495E+00  0.20602326629E-01 0.  0.
         14    1    1    2    0    0 -0.20536860114E-01 -0.53629946401E-02 -0.13551824479E-01  0.25182856898E-01  0.00000000000E+00 0. -1.
     999901    1    3    3    0    0  0.19598526694E-01 -0.43093363601E-01 -0.10646934698E+00  0.88768060815E+00  0.88000000000E+00 0. -1.
        -11    1    4    4    0    0 -0.98680112148E-03  0.94305130571E-02  0.49870332370E-01  0.50766322741E-01  0.51100000000E-03 0.  1.
         11    1    4    4    0    0  0.19251345414E-02  0.39025845184E-01  0.70150839090E-01  0.80300212213E-01  0.51100000000E-03 0. -1.
</event>
<event>
 8    1  0.1054086E+005  0.1043930E+01  0.7957747E-01            NaN
         13   -1    0    0    0    0  0.00000000000E+00  0.00000000000E+00  0.74505805969E-08  0.10566000000E+00  0.10566000000E+00 0. -1.
     999900   -1    0    0    0    0 -0.00000000000E+00 -0.00000000000E+00 -0.74505805969E-08  0.93827000000E+00  0.93827000000E+00 0.  1.
     999902    2    1    2    0    0 -0.82534391875E-02 -0.82560609040E-02  0.23828468927E-01  0.10173955369E+01  0.10170494584E+01 0.  0.
     999903    2    3    3    0    0  0.11884418340E+00  0.31487429876E-01  0.26642044097E-01  0.12737235354E+00  0.19962959859E-01 0.  0.
         14    1    1    2    0    0  0.82534391875E-02  0.82560609040E-02 -0.23828468927E-01  0.26534463090E-01  0.00000000000E+00 0.  1.
     999901    1    3    3    0    0 -0.12709762258E+00 -0.39743490780E-01 -0.28135751708E-02  0.89002318337E+00  0.88000000000E+00 0.  1.
        -11    1    4    4    0    0  0.37963011752E-01  0.65519592848E-02  0.17251826332E-01  0.42213801826E-01  0.51100000000E-03 0.  1.
         11    1    4    4    0    0  0.80881171643E-01  0.24935470591E-01  0.93902177651E-02  0.85158551718E-01  0.51100000000E-03 0. -1.
</event>
<event>
 8    1  0.1054086E+005  0.1043930E+01  0.7957747E-01            NaN
         13   -1    0    0    0    0  0.00000000000E+00  0.00000000000E+00  0.74505805969E-08  0.10566000000E+00  0.10566000000E+00 0.  1.
     999900   -1    0    0    0    0 -0.00000000000E+00 -0.00000000000E+00 -0.74505805969E-08  0.93827000000E+00  0.93827000000E+00 0.  1.
     999902    2    1    2    0    0 -0.90956089870E-02 -0.21997274031E-01 -0.27874527622E-02  0.10199637725E+01  0.10196821648E+01 0.  0.
     999903    2    3    3    0    0 -0.55574543593E-01 -0.11228638775E+00 -0.40506217344E-01  0.13332116095E+00  0.20904916737E-01 0.  0.
         14    1    1    2    0    0  0.90956089870E-02  0.21997274031E-01  0.27874527622E-02  0.23966227499E-01  0.00000000000E+00 0. -1.
     999901    1    3    3    0    0  0.46478934606E-01  0.90289113719E-01  0.37718764582E-01  0.88664261155E+00  0.88000000000E+00 0.  1.
        -11    1    4    4    0    0 -0.29011119259E-01 -0.61619880362E-01 -0.32795280401E-01  0.75593956333E-01  0.51100000000E-03 0.  1.
         11    1    4    4    0    0 -0.26563424334E-01 -0.50666507387E-01 -0.77109369427E-02  0.57727204616E-01  0.51100000000E-03 0. -1.
</event>
<event>
 8    1  0.1054086E+005  0.1043930E+01  0.7957747E-01            NaN
         13   -1    0    0    0    0  0.00000000000E+00  0.00000000000E+00  0.74505805969E-08  0.10566000000E+00  0.10566000000E+00 0. -1.
     999900   -1    0    0    0    0 -0.00000000000E+00 -0.00000000000E+00 -0.74505805969E-08  0.93827000000E+00  0.93827000000E+00 0. -1.
     999902    2    1    2    0    0 -0.12704556533E-01 -0.10073609183E-01  0.18319600348E-01  0.10194659219E+01  0.10191723480E+01 0.  0.
     999903    2    3    3    0    0 -0.15870721947E-01 -0.10920549374E+00  0.67270732168E-01  0.13254238045E+00  0.29400876336E-01 0.  0.
         14    1    1    2    0    0  0.12704556533E-01  0.10073609183E-01 -0.18319600348E-01  0.24464078065E-01  0.00000000000E+00 0.  1.
     999901    1    3    3    0    0  0.31661654142E-02  0.99131884560E-01 -0.48951131821E-01  0.88692354149E+00  0.88000000000E+00 0. -1.
        -11    1    4    4    0    0 -0.11553966269E-01 -0.34063847687E-01  0.36440686002E-01  0.51205708403E-01  0.51100000000E-03 0. -1.
         11    1    4    4    0    0 -0.43167556785E-02 -0.75141646055E-01  0.30830046167E-01  0.81336672043E-01  0.51100000000E-03 0.  1.
</event>
<event>
 8    1  0.1054086E+005  0.1043930E+01  0.7957747E-01            NaN
         13   -1    0    0    0    0  0.00000000000E+00  0.00000000000E+00  0.74505805969E-08  0.10566000000E+00  0.10566000000E+00 0. -1.
     999900   -1    0    0    0    0 -0.00000000000E+00 -0.00000000000E+00 -0.74505805969E-08  0.93827000000E+00  0.93827000000E+00 0. -1.
     999902    2    1    2    0    0  0.15151502857E-01  0.97803642062E-02 -0.16190980756E-01  0.10196942532E+01  0.10194061991E+01 0.  0.
     999903    2    3    3    0    0 -0.20100658728E-02  0.12262832268E+00  0.40406342462E-01  0.13051910843E+00  0.18995243252E-01 0.  0.
         14    1    1    2    0    0 -0.15151502857E-01 -0.97803642062E-02  0.16190980756E-01  0.24235746753E-01  0.00000000000E+00 0.  1.
     999901    1    3    3    0    0  0.17161568730E-01 -0.11284795847E+00 -0.56597323218E-01  0.88917514482E+00  0.88000000000E+00 0. -1.
        -11    1    4    4    0    0  0.46630094003E-02  0.42410981796E-01  0.64511123700E-02  0.43154524738E-01  0.51100000000E-03 0. -1.
         11    1    4    4    0    0 -0.66730752731E-02  0.80217340879E-01  0.33955230092E-01  0.87364583688E-01  0.51100000000E-03 0.  1.
</event>
<event>
 8    1  0.1054086E+005  0.1043930E+01  0.7957747E-01            NaN
         13   -1    0    0    0    0  0.00000000000E+00  0.00000000000E+00  0.74505805969E-08  0.10566000000E+00  0.10566000000E+00 0. -1.
     999900   -1    0    0    0    0 -0.00000000000E+00 -0.00000000000E+00 -0.74505805969E-08  0.93827000000E+00  0.93827000000E+00 0. -1.
     999902    2    1    2    0    0  0.15269731107E-01  0.14143883674E-01  0.77990541890E-02  0.10217030034E+01  0.10214612022E+01 0.  0.
     999903    2    3    3    0    0 -0.28289553183E-01  0.12708825149E+00  0.20541219723E-01  0.13332459060E+00  0.20044507111E-01 0.  0.
         14    1    1    2    0    0 -0.15269731107E-01 -0.14143883674E-01 -0.77990541890E-02  0.22226996642E-01  0.00000000000E+00 0.  1.
     999901    1    3    3    0    0  0.43559284290E-01 -0.11294436782E+00 -0.12742165534E-01  0.88837841276E+00  0.88000000000E+00 0.  1.
        -11    1    4    4    0    0 -0.27111406158E-01  0.77391451385E-01  0.11816405423E-01  0.82851394976E-01  0.51100000000E-03 0.  1.
         11    1    4    4    0    0 -0.11781470247E-02  0.49696800105E-01  0.87248143003E-02  0.50473195626E-01  0.51100000000E-03 0. -1.
</event>
<event>
 8    1  0.1054086E+005  0.1043930E+01  0.7957747E-01            NaN
         13   -1    0    0    0    0  0.00000000000E+00  0.00000000000E+00  0.74505805969E-08  0.10566000000E+00  0.10566000000E+00 0.  1.
     999900   -1    0    0    0    0 -0.00000000000E+00 -0.00000000000E+00 -0.74505805969E-08  0.93827000000E+00  0.93827000000E+00 0. -1.
     999902    2    1    2    0    0 -0.13311243802E-01  0.22573107854E-01 -0.15529206821E-02  0.10176784101E+01  0.10173397665E+01 0.  0.
     999903    2    3    3    0    0 -0.11601689203E+00 -0.47445298882E-01 -0.21333605324E-01  0.12872267276E+00  0.20085520757E-01 0.  0.
         14    1    1    2    0    0  0.13311243802E-01 -0.22573107854E-01  0.15529206821E-02  0.26251589902E-01  0.00000000000E+00 0. -1.
     999901    1    3    3    0    0  0.10270564823E+00  0.70018406736E-01  0.19780684642E-01  0.88895573734E+00  0.88000000000E+00 0.  1.
        -11    1    4    4    0    0 -0.38856086940E-01 -0.82987994763E-02 -0.12951001621E-01  0.41793003350E-01  0.51100000000E-03 0.  1.
         11    1    4    4    0    0 -0.77160805091E-01 -0.39146499406E-01 -0.83826037026E-02  0.86929669411E-01  0.51100000000E-03 0. -1.
</event>
<event>
 8    1  0.1054086E+005  0.1043930E+01  0.7957747E-01            NaN
         13   -1    0    0    0    0  0.00000000000E+00  0.00000000000E+00  0.74505805969E-08  0.10566000000E+00  0.10566000000E+00 0. -1.
     999900   -1    0    0    0    0 -0.00000000000E+00 -0.00000000000E+00 -0.74505805969E-08  0.93827000000E+00  0.93827000000E+00 0.  1.
     999902    2    1    2    0    0 -0.54452468673E-02 -0.14390215137E-01  0.18604059380E-01  0.10197879199E+01  0.10195021146E+01 0.  0.
     999903    2    3    3    0    0  0.55453911310E-01  0.77038463251E-01 -0.82645071734E-01  0.12719658160E+00  0.18403841682E-01 0.  0.
         14    1    1    2    0    0  0.54452468673E-02  0.14390215137E-01 -0.18604059380E-01  0.24142080079E-01  0.00000000000E+00 0. -1.
     999901    1    3    3    0    0 -0.60899158177E-01 -0.91428678388E-01  0.10124913111E+00  0.89259133832E+00  0.88000000000E+00 0. -1.
        -11    1    4    4    0    0  0.19801302537E-01  0.16801789240E-01 -0.15767897831E-01  0.30385513437E-01  0.51100000000E-03 0. -1.
         11    1    4    4    0    0  0.35652608773E-01  0.60236674011E-01 -0.66877173902E-01  0.96811068160E-01  0.51100000000E-03 0.  1.
</event>
<event>
 8    1  0.1054086E+005  0.1043930E+01  0.7957747E-01            NaN
         13   -1    0    0    0    0  0.00000000000E+00  0.00000000000E+00  0.74505805969E-08  0.10566000000E+00  0.10566000000E+00 0. -1.
     999900   -1    0    0    0    0 -0.00000000000E+00 -0.00000000000E+00 -0.74505805969E-08  0.93827000000E+00  0.93827000000E+00 0.  1.
     999902    2    1    2    0    0 -0.49885832395E-02 -0.21851506707E-01  0.13232647842E-01  0.10179016063E+01  0.10175687706E+01 0.  0.
     999903    2    3    3    0    0 -0.16047940218E-01 -0.72083085637E-01 -0.10095770515E+00  0.12903437349E+00  0.31684439275E-01 0.  0.
         14    1    1    2    0    0  0.49885832395E-02  0.21851506707E-01 -0.13232647842E-01  0.26028393669E-01  0.00000000000E+00 0. -1.
     999901    1    3    3    0    0  0.11059356978E-01  0.50231578931E-01  0.11419035300E+00  0.88886723284E+00  0.88000000000E+00 0. -1.
        -11    1    4    4    0    0 -0.57177645140E-03 -0.58882605712E-01 -0.83781148255E-01  0.10240620151E+00  0.51100000000E-03 0. -1.
         11    1    4    4    0    0 -0.15476163767E-01 -0.13200479925E-01 -0.17176556898E-01  0.26628171981E-01  0.51100000000E-03 0.  1.
</event>
<event>
 8    1  0.1054086E+005  0.1043930E+01  0.7957747E-01            NaN
         13   -1    0    0    0    0  0.00000000000E+00  0.00000000000E+00  0.74505805969E-08  0.10566000000E+00  0.10566000000E+00 0. -1.
     999900   -1    0    0    0    0 -0.00000000000E+00 -0.00000000000E+00 -0.74505805969E-08  0.93827000000E+00  0.93827000000E+00 0.  1.
     999902    2    1    2    0    0 -0.20097326833E-01 -0.11499733177E-03  0.15726054864E-01  0.10184108979E+01  0.10180911219E+01 0.  0.
     999903    2    3    3    0    0  0.70764957380E-01  0.25210311328E-02 -0.10218686080E+00  0.12590523461E+00  0.19898210696E-01 0.  0.
         14    1    1    2    0    0  0.20097326833E-01  0.11499733177E-03 -0.15726054864E-01  0.25519102096E-01  0.00000000000E+00 0. -1.
     999901    1    3    3    0    0 -0.90862284213E-01 -0.26360284646E-02  0.11791291567E+00  0.89250566330E+00  0.88000000000E+00 0. -1.
        -11    1    4    4    0    0  0.25147701655E-01  0.10180737060E-01 -0.33846816559E-01  0.43381129743E-01  0.51100000000E-03 0. -1.
         11    1    4    4    0    0  0.45617255726E-01 -0.76597059274E-02 -0.68340044246E-01  0.82524104863E-01  0.51100000000E-03 0.  1.
</event>
<event>
 8    1  0.1054086E+005  0.1043930E+01  0.7957747E-01            NaN
         13   -1    0    0    0    0  0.00000000000E+00  0.00000000000E+00  0.74505805969E-08  0.10566000000E+00  0.10566000000E+00 0. -1.
     999900   -1    0    0    0    0 -0.00000000000E+00 -0.00000000000E+00 -0.74505805969E-08  0.93827000000E+00  0.93827000000E+00 0. -1.
     999902    2    1    2    0    0 -0.62512662180E-02 -0.38358490223E-03 -0.24225020884E-01  0.10189084672E+01  0.10186011916E+01 0.  0.
     999903    2    3    3    0    0 -0.84280936144E-01 -0.91737051834E-01  0.27589561456E-01  0.12923502360E+00  0.20531550036E-01 0.  0.
         14    1    1    2    0    0  0.62512662180E-02  0.38358490223E-03  0.24225020884E-01  0.25021532798E-01  0.00000000000E+00 0. -1.
     999901    1    3    3    0    0  0.78029669926E-01  0.91353466932E-01 -0.51814582340E-01  0.88967344360E+00  0.88000000000E+00 0. -1.
        -11    1    4    4    0    0 -0.37079711447E-01 -0.28410721184E-01  0.44259089300E-02  0.46924661640E-01  0.51100000000E-03 0. -1.
         11    1    4    4    0    0 -0.47201224697E-01 -0.63326330651E-01  0.23163652526E-01  0.82310361959E-01  0.51100000000E-03 0.  1.
</event>
<event>
 8    1  0.1054086E+005  0.1043930E+01  0.7957747E-01            NaN
         13   -1    0    0    0    0  0.00000000000E+00  0.00000000000E+00  0.74505805969E-08  0.10566000000E+00  0.10566000000E+00 0.  1.
     999900   -1    0    0    0    0 -0.00000000000E+00 -0.00000000000E+00 -0.74505805969E-08  0.93827000000E+00  0.93827000000E+00 0. -1.
     999902    2    1    2    0    0 -0.58654766438E-02  0.20798159996E-01  0.82425073958E-02  0.10208019607E+01  0.10205399241E+01 0.  0.
     999903    2    3    3    0    0 -0.36341870658E-02  0.17681100736E-01  0.13016159325E+00  0.13238822922E+00  0.16086461372E-01 0.  0.
         14    1    1    2    0    0  0.58654766438E-02 -0.20798159996E-01 -0.82425073958E-02  0.23128039339E-01  0.00000000000E+00 0. -1.
     999901    1    3    3    0    0 -0.22312895780E-02  0.31170592604E-02 -0.12191908586E+00  0.88841373144E+00  0.88000000000E+00 0. -1.
        -11    1    4    4    0    0  0.58297022660E-02  0.10829468652E-01  0.74650683376E-01  0.75658763334E-01  0.51100000000E-03 0. -1.
         11    1    4    4    0    0 -0.94638893318E-02  0.68516320837E-02  0.55510909878E-01  0.56729465888E-01  0.51100000000E-03 0.  1.
</event>
<event>
 8    1  0.1054086E+005  0.1043930E+01  0.7957747E-01            NaN
         13   -1    0    0    0    0  0.00000000000E+00  0.00000000000E+00  0.74505805969E-08  0.10566000000E+00  0.10566000000E+00 0.  1.
     999900   -1    0    0    0    0 -0.00000000000E+00 -0.00000000000E+00 -0.74505805969E-08  0.93827000000E+00  0.93827000000E+00 0. -1.
     999902    2    1    2    0    0 -0.59974055247E-02 -0.29275532231E-01  0.72846145760E-02  0.10131714033E+01  0.10127043997E+01 0.  0.
     999903    2    3    3    0    0 -0.10443414585E+00  0.13233429758E-02 -0.63899364384E-01  0.12429951048E+00  0.21424226482E-01 0.  0.
         14    1    1    2    0    0  0.59974055247E-02  0.29275532231E-01 -0.72846145760E-02  0.30758596683E-01  0.00000000000E+00 0.  1.
     999901    1    3    3    0    0  0.98436740330E-01 -0.30598875206E-01  0.71183978960E-01  0.88887189283E+00  0.88000000000E+00 0.  1.
        -11    1    4    4    0    0 -0.68611670894E-01  0.89803824223E-02 -0.48796418973E-01  0.84673255972E-01  0.51100000000E-03 0.  1.
         11    1    4    4    0    0 -0.35822474961E-01 -0.76570394466E-02 -0.15102945411E-01  0.39626254510E-01  0.51100000000E-03 0. -1.
</event>
<event>
 8    1  0.1054086E+005  0.1043930E+01  0.7957747E-01            NaN
         13   -1    0    0    0    0  0.00000000000E+00  0.00000000000E+00  0.74505805969E-08  0.10566000000E+00  0.10566000000E+00 0. -1.
     999900   -1    0    0    0    0 -0.00000000000E+00 -0.00000000000E+00 -0.74505805969E-08  0.93827000000E+00  0.93827000000E+00 0. -1.
     999902    2    1    2    0    0 -0.22551623920E-01 -0.48497094727E-02  0.98665817301E-02  0.10188412603E+01  0.10185323112E+01 0.  0.
     999903    2    3    3    0    0 -0.60139155795E-01  0.66797516687E-01 -0.91193179979E-01  0.12936994375E+00  0.18486751386E-01 0.  0.
         14    1    1    2    0    0  0.22551623920E-01  0.48497094727E-02 -0.98665817301E-02  0.25088739674E-01  0.00000000000E+00 0.  1.
     999901    1    3    3    0    0  0.37587531875E-01 -0.71647226159E-01  0.10105976171E+00  0.88947131657E+00  0.88000000000E+00 0.  1.
        -11    1    4    4    0    0 -0.35684610258E-01  0.26308309714E-01 -0.47451812399E-01  0.64941929370E-01  0.51100000000E-03 0.  1.
         11    1    4    4    0    0 -0.24454545537E-01  0.40489206972E-01 -0.43741367580E-01  0.64428014384E-01  0.51100000000E-03 0. -1.
</event>
<event>
 8    1  0.1054086E+005  0.1043930E+01  0.7957747E-01            NaN
         13   -1    0    0    0    0  0.00000000000E+00  0.00000000000E+00  0.74505805969E-08  0.10566000000E+00  0.10566000000E+00 0. -1.
     999900   -1    0    0    0    0 -0.00000000000E+00 -0.00000000000E+00 -0.74505805969E-08  0.93827000000E+00  0.93827000000E+00 0. -1.
     999902    2    1    2    0    0 -0.10350105457E-01 -0.88328675923E-02  0.16866965270E-01  0.10222588498E+01  0.10220291176E+01 0.  0.
     999903    2    3    3    0    0 -0.54939898481E-01  0.10682728464E+00 -0.48651522909E-01  0.13115942060E+00  0.20133597357E-01 0.  0.
         14    1    1    2    0    0  0.10350105457E-01  0.88328675923E-02 -0.16866965270E-01  0.21671150184E-01  0.00000000000E+00 0. -1.
     999901    1    3    3    0    0  0.44589793023E-01 -0.11566015223E+00  0.65518488179E-01  0.89109942922E+00  0.88000000000E+00 0.  1.
        -11    1    4    4    0    0 -0.47167547938E-01  0.73054037149E-01 -0.38002327423E-01  0.94900515978E-01  0.51100000000E-03 0.  1.
         11    1    4    4    0    0 -0.77723505430E-02  0.33773247489E-01 -0.10649195485E-01  0.36258904622E-01  0.51100000000E-03 0. -1.
</event>
<event>
 8    1  0.1054086E+005  0.1043930E+01  0.7957747E-01            NaN
         13   -1    0    0    0    0  0.00000000000E+00  0.00000000000E+00  0.74505805969E-08  0.10566000000E+00  0.10566000000E+00 0. -1.
     999900   -1    0    0    0    0 -0.00000000000E+00 -0.00000000000E+00 -0.74505805969E-08  0.93827000000E+00  0.93827000000E+00 0. -1.
     999902    2    1    2    0    0 -0.23276974650E-01  0.49219911716E-02 -0.38292171917E-03  0.10201352490E+01  0.10198577038E+01 0.  0.
     999903    2    3    3    0    0 -0.57942799283E-01  0.13188716753E-01 -0.11599719287E+00  0.13185786111E+00  0.19995913190E-01 0.  0.
         14    1    1    2    0    0  0.23276974650E-01 -0.49219911716E-02  0.38292171917E-03  0.23794750997E-01  0.00000000000E+00 0. -1.
     999901    1    3    3    0    0  0.34665824633E-01 -0.82667255814E-02  0.11561427115E+00  0.88827738789E+00  0.88000000000E+00 0.  1.
        -11    1    4    4    0    0 -0.27274258792E-01  0.40120531256E-02 -0.74547544318E-01  0.79483201041E-01  0.51100000000E-03 0. -1.
         11    1    4    4    0    0 -0.30668540491E-01  0.91766636273E-02 -0.41449648552E-01  0.52374660068E-01  0.51100000000E-03 0.  1.
</event>
<event>
 8    1  0.1054086E+005  0.1043930E+01  0.7957747E-01            NaN
         13   -1    0    0    0    0  0.00000000000E+00  0.00000000000E+00  0.74505805969E-08  0.10566000000E+00  0.10566000000E+00 0.  1.
     999900   -1    0    0    0    0 -0.00000000000E+00 -0.00000000000E+00 -0.74505805969E-08  0.93827000000E+00  0.93827000000E+00 0.  1.
     999902    2    1    2    0    0 -0.19618999528E-01  0.22068612721E-02 -0.10975786037E-01  0.10213414352E+01  0.10210916139E+01 0.  0.
     999903    2    3    3    0    0 -0.12785661529E+00 -0.23391665404E-01  0.24014253886E-01  0.13365062818E+00  0.19781858824E-01 0.  0.
         14    1    1    2    0    0  0.19618999528E-01 -0.22068612721E-02  0.10975786037E-01  0.22588564769E-01  0.00000000000E+00 0. -1.
     999901    1    3    3    0    0  0.10823761576E+00  0.25598526676E-01 -0.34990039923E-01  0.88769080705E+00  0.88000000000E+00 0.  1.
        -11    1    4    4    0    0 -0.79468904684E-01 -0.23221884083E-01  0.19430350178E-01  0.85043296861E-01  0.51100000000E-03 0.  1.
         11    1    4    4    0    0 -0.48387710607E-01 -0.16978132137E-03  0.45839037080E-02  0.48607331317E-01  0.51100000000E-03 0. -1.
</event>
<event>
 8    1  0.1054086E+005  0.1043930E+01  0.7957747E-01            NaN
         13   -1    0    0    0    0  0.00000000000E+00  0.00000000000E+00  0.74505805969E-08  0.10566000000E+00  0.10566000000E+00 0. -1.
     999900   -1    0    0    0    0 -0.00000000000E+00 -0.00000000000E+00 -0.74505805969E-08  0.93827000000E+00  0.93827000000E+00 0.  1.
     999902    2    1    2    0    0 -0.38572186164E-02  0.18172687031E-01  0.14076979851E-01  0.10206215026E+01  0.10203553134E+01 0.  0.
     999903    2    3    3    0    0 -0.24420397365E-01  0.74784177826E-01 -0.10265047486E+00  0.13087265944E+00  0.20037563233E-01 0.  0.
         14    1    1    2    0    0  0.38572186164E-02 -0.18172687031E-01 -0.14076979851E-01  0.23308497401E-01  0.00000000000E+00 0.  1.
     999901    1    3    3    0    0  0.20563178749E-01 -0.56611490795E-01  0.11672745471E+00  0.88974884315E+00  0.88000000000E+00 0. -1.
        -11    1    4    4    0    0 -0.18080421214E-01  0.53484348888E-01 -0.57711468249E-01  0.80736310888E-01  0.51100000000E-03 0. -1.
         11    1    4    4    0    0 -0.63399761514E-02  0.21299828938E-01 -0.44939006611E-01  0.50136348557E-01  0.51100000000E-03 0.  1.
</event>
<event>
 8    1  0.1054086E+005  0.1043930E+01  0.7957747E-01            NaN
         13   -1    0    0    0    0  0.00000000000E+00  0.00000000000E+00  0.74505805969E-08  0.10566000000E+00  0.10566000000E+00 0. -1.
     999900   -1    0    0    0    0 -0.00000000000E+00 -0.00000000000E+00 -0.74505805969E-08  0.93827000000E+00  0.93827000000E+00 0.  1.
     999902    2    1    2    0    0  0.85546415037E-03 -0.22238428615E-01  0.66946235537E-02  0.10206900019E+01  0.10204253929E+01 0.  0.
     999903    2    3    3    0    0 -0.36832574953E-01  0.59877928999E-01 -0.10619642823E+00  0.12888964643E+00  0.19820560769E-01 0.  0.
         14    1    1    2    0    0 -0.85546415037E-03  0.22238428615E-01 -0.66946235537E-02  0.23239998079E-01  0.00000000000E+00 0. -1.
     999901    1    3    3    0    0  0.37688039103E-01 -0.82116357614E-01  0.11289105178E+00  0.89180035549E+00  0.88000000000E+00 0. -1.
        -11    1    4    4    0    0 -0.34829656384E-01  0.45692875616E-01 -0.93488746151E-01  0.10973308810E+00  0.51100000000E-03 0. -1.
         11    1    4    4    0    0 -0.20029185689E-02  0.14185053383E-01 -0.12707682081E-01  0.19156558332E-01  0.51100000000E-03 0.  1.
</event>
<event>
 8    1  0.1054086E+005  0.1043930E+01  0.7957747E-01            NaN
         13   -1    0    0    0    0  0.00000000000E+00  0.00000000000E+00  0.74505805969E-08  0.10566000000E+00  0.10566000000E+00 0.  1.
     999900   -1    0    0    0    0 -0.00000000000E+00 -0.00000000000E+00 -0.74505805969E-08  0.93827000000E+00  0.93827000000E+00 0.  1.
     999902    2    1    2    0    0 -0.21703820562E-01 -0.46852221754E-02 -0.39995534551E-02  0.10213688927E+01  0.10211196852E+01 0.  0.
     999903    2    3    3    0    0  0.66856742948E-01  0.57032554215E-02 -0.11041565394E+00  0.13048434334E+00  0.18226245463E-01 0.  0.
         14    1    1    2    0    0  0.21703820562E-01  0.46852221754E-02  0.39995534551E-02  0.22561107279E-01  0.00000000000E+00 0. -1.
     999901    1    3    3    0    0 -0.88560563510E-01 -0.10388477597E-01  0.10641610048E+00  0.89088454938E+00  0.88000000000E+00 0. -1.
        -11    1    4    4    0    0  0.56466338240E-01  0.10164444745E-01 -0.83783293056E-01  0.10154636679E+00  0.51100000000E-03 0. -1.
         11    1    4    4    0    0  0.10390404707E-01 -0.44611893235E-02 -0.26632360881E-01  0.28937976558E-01  0.51100000000E-03 0.  1.
</event>
<event>
 8    1  0.1054086E+005  0.1043930E+01  0.7957747E-01            NaN
         13   -1    0    0    0    0  0.00000000000E+00  0.00000000000E+00  0.74505805969E-08  0.10566000000E+00  0.10566000000E+00 0. -1.
     999900   -1    0    0    0    0 -0.00000000000E+00 -0.00000000000E+00 -0.74505805969E-08  0.93827000000E+00  0.93827000000E+00 0. -1.
     999902    2    1    2    0    0 -0.71242889132E-02  0.89936526973E-02 -0.19832753526E-01  0.10210175712E+01  0.10207604525E+01 0.  0.
     999903    2    3    3    0    0 -0.82321381670E-01  0.10900579291E-01 -0.10299376120E+00  0.13390202499E+00  0.20649574837E-01 0.  0.
         14    1    1    2    0    0  0.71242889132E-02 -0.89936526973E-02  0.19832753526E-01  0.22912428806E-01  0.00000000000E+00 0. -1.
     999901    1    3    3    0    0  0.75197092757E-01 -0.19069265936E-02  0.83161007670E-01  0.88711554621E+00  0.88000000000E+00 0.  1.
        -11    1    4    4    0    0 -0.13784268872E-01 -0.58544704863E-02 -0.19339455641E-01  0.24465415560E-01  0.51100000000E-03 0.  1.
         11    1    4    4    0    0 -0.68537112798E-01  0.16755049777E-01 -0.83654305555E-01  0.10943660943E+00  0.51100000000E-03 0. -1.
</event>
<event>
 8    1  0.1054086E+005  0.1043930E+01  0.7957747E-01            NaN
         13   -1    0    0    0    0  0.00000000000E+00  0.00000000000E+00  0.74505805969E-08  0.10566000000E+00  0.10566000000E+00 0. -1.
     999900   -1    0    0    0    0 -0.00000000000E+00 -0.00000000000E+00 -0.74505805969E-08  0.93827000000E+00  0.93827000000E+00 0. -1.
     999902    2    1    2    0    0  0.91671677492E-02 -0.21089958199E-01  0.56656673408E-02  0.10202461851E+01  0.10199712521E+01 0.  0.
     999903    2    3    3    0    0  0.51102093830E-01 -0.21026194228E-01  0.11774534181E+00  0.13214686886E+00  0.23351757851E-01 0.  0.
         14    1    1    2    0    0 -0.91671677492E-02  0.21089958199E-01 -0.56656673408E-02  0.23683814891E-01  0.00000000000E+00 0. -1.
     999901    1    3    3    0    0 -0.41934926081E-01 -0.63763971147E-04 -0.11207967447E+00  0.88809931625E+00  0.88000000000E+00 0. -1.
        -11    1    4    4    0    0  0.43379659944E-01 -0.81622220355E-02  0.96660430061E-01  0.10626343033E+00  0.51100000000E-03 0.  1.
         11    1    4    4    0    0  0.77224338861E-02 -0.12863972192E-01  0.21084911747E-01  0.25883438529E-01  0.51100000000E-03 0. -1.
</event>
<event>
 8    1  0.1054086E+005  0.1043930E+01  0.7957747E-01            NaN
         13   -1    0    0    0    0  0.00000000000E+00  0.00000000000E+00  0.74505805969E-08  0.10566000000E+00  0.10566000000E+00 0.  1.
     999900   -1    0    0    0    0 -0.00000000000E+00 -0.00000000000E+00 -0.74505805969E-08  0.93827000000E+00  0.93827000000E+00 0.  1.
     999902    2    1    2    0    0 -0.73314112461E-02  0.11879661876E-01  0.19365215395E-01  0.10200576829E+01  0.10197783038E+01 0.  0.
     999903    2    3    3    0    0  0.81372277994E-01 -0.12885846311E-01 -0.95502159622E-01  0.12782666531E+00  0.20772607214E-01 0.  0.
         14    1    1    2    0    0  0.73314112461E-02 -0.11879661876E-01 -0.19365215395E-01  0.23872317115E-01  0.00000000000E+00 0. -1.
     999901    1    3    3    0    0 -0.88703689240E-01  0.24765508187E-01  0.11486737502E+00  0.89223101758E+00  0.88000000000E+00 0. -1.
        -11    1    4    4    0    0  0.65672109715E-01 -0.26888280318E-02 -0.68197091301E-01  0.94716208610E-01  0.51100000000E-03 0.  1.
         11    1    4    4    0    0  0.15700168278E-01 -0.10197018279E-01 -0.27305068321E-01  0.33110456699E-01  0.51100000000E-03 0. -1.
</event>
<event>
 8    1  0.1054086E+005  0.1043930E+01  0.7957747E-01            NaN
         13   -1    0    0    0    0  0.00000000000E+00  0.00000000000E+00  0.74505805969E-08  0.10566000000E+00  0.10566000000E+00 0. -1.
     999900   -1    0    0    0    0 -0.00000000000E+00 -0.00000000000E+00 -0.74505805969E-08  0.93827000000E+00  0.93827000000E+00 0. -1.
     999902    2    1    2    0    0 -0.18544246162E-01  0.16786959984E-01  0.14135234981E-01  0.10151985545E+01  0.10147919044E+01 0.  0.
     999903    2    3    3    0    0  0.75185966442E-01  0.53398848059E-01  0.81173405808E-01  0.12693063354E+00  0.31904504322E-01 0.  0.
         14    1    1    2    0    0  0.18544246162E-01 -0.16786959984E-01 -0.14135234981E-01  0.28731445477E-01  0.00000000000E+00 0. -1.
     999901    1    3    3    0    0 -0.93730212605E-01 -0.36611888076E-01 -0.67038170827E-01  0.88826792099E+00  0.88000000000E+00 0. -1.
        -11    1    4    4    0    0  0.32017195603E-01  0.46911251006E-02  0.23879291885E-01  0.40219263679E-01  0.51100000000E-03 0.  1.
         11    1    4    4    0    0  0.43168770840E-01  0.48707722959E-01  0.57294113923E-01  0.86711369859E-01  0.51100000000E-03 0. -1.
</event>
<event>
 8    1  0.1054086E+005  0.1043930E+01  0.7957747E-01            NaN
         13   -1    0    0    0    0  0.00000000000E+00  0.00000000000E+00  0.74505805969E-08  0.10566000000E+00  0.10566000000E+00 0.  1.
     999900   -1    0    0    0    0 -0.00000000000E+00 -0.00000000000E+00 -0.74505805969E-08  0.93827000000E+00  0.93827000000E+00 0.  1.
     999902    2    1    2    0    0 -0.39938399817E-02 -0.17531355647E-01  0.83272911534E-02  0.10241147794E+01  0.10239230628E+01 0.  0.
     999903    2    3    3    0    0 -0.62631073948E-01  0.97109370598E-01  0.62999452868E-01  0.13306491180E+00  0.19607610992E-01 0.  0.
         14    1    1    2    0    0  0.39938399817E-02  0.17531355647E-01 -0.83272911534E-02  0.19815220579E-01  0.00000000000E+00 0. -1.
     999901    1    3    3    0    0  0.58637233966E-01 -0.11464072625E+00 -0.54672161715E-01  0.89104986762E+00  0.88000000000E+00 0.  1.
        -11    1    4    4    0    0 -0.31636778386E-01  0.31578234551E-01  0.24904108003E-01  0.51171733998E-01  0.51100000000E-03 0.  1.
         11    1    4    4    0    0 -0.30994295562E-01  0.65531136048E-01  0.38095344865E-01  0.81893177802E-01  0.51100000000E-03 0. -1.
</event>
<event>
 8    1  0.1054086E+005  0.1043930E+01  0.7957747E-01            NaN
         13   -1    0    0    0    0  0.00000000000E+00  0.00000000000E+00  0.74505805969E-08  0.10566000000E+00  0.10566000000E+00 0.  1.
     999900   -1    0    0    0    0 -0.00000000000E+00 -0.00000000000E+00 -0.74505805969E-08  0.93827000000E+00  0.93827000000E+00 0. -1.
     999902    2    1    2    0    0 -0.89308869619E-02  0.10433529201E-01 -0.16174022237E-01  0.10227116525E+01  0.10224915188E+01 0.  0.
     999903    2    3    3    0    0 -0.13086887645E+00 -0.22273186682E-02  0.17845004314E-01  0.13356235995E+00  0.19718926021E-01 0.  0.
         14    1    1    2    0    0  0.89308869619E-02 -0.10433529201E-01  0.16174022237E-01  0.21218347458E-01  0.00000000000E+00 0.  1.
     999901    1    3    3    0    0  0.12193798949E+00  0.12660847869E-01 -0.34019026551E-01  0.88914929259E+00  0.88000000000E+00 0. -1.
        -11    1    4    4    0    0 -0.10356479196E+00  0.21067293785E-02  0.21119540912E-01  0.10571849683E+00  0.51100000000E-03 0.  1.
         11    1    4    4    0    0 -0.27304084493E-01 -0.43340480466E-02 -0.32745365986E-02  0.27843863120E-01  0.51100000000E-03 0. -1.
</event>
<event>
 8    1  0.1054086E+005  0.1043930E+01  0.7957747E-01            NaN
         13   -1    0    0    0    0  0.00000000000E+00  0.00000000000E+00  0.74505805969E-08  0.10566000000E+00  0.10566000000E+00 0. -1.
     999900   -1    0    0    0    0 -0.00000000000E+00 -0.00000000000E+00 -0.74505805969E-08  0.93827000000E+00  0.93827000000E+00 0.  1.
     999902    2    1    2    0    0 -0.16455552673E-01 -0.10253551080E-01 -0.32745829624E-01  0.10058746471E+01  0.10051545134E+01 0.  0.
     999903    2    3    3    0    0 -0.87548233606E-01  0.43165162882E-01 -0.67870328120E-01  0.12069587498E+00  0.20813176224E-01 0.  0.
         14    1    1    2    0    0  0.16455552673E-01  0.10253551080E-01  0.32745829624E-01  0.38055352860E-01  0.00000000000E+00 0.  1.
     999901    1    3    3    0    0  0.71092680933E-01 -0.53418713961E-01  0.35124498496E-01  0.88517877216E+00  0.88000000000E+00 0. -1.
        -11    1    4    4    0    0 -0.16508026377E-01  0.16452195173E-01 -0.10569229851E-01  0.25596081761E-01  0.51100000000E-03 0. -1.
         11    1    4    4    0    0 -0.71040207229E-01  0.26712967709E-01 -0.57301098269E-01  0.95099793222E-01  0.51100000000E-03 0.  1.
</event>
<event>
 8    1  0.1054086E+005  0.1043930E+01  0.7957747E-01            NaN
         13   -1    0    0    0    0  0.00000000000E+00  0.00000000000E+00  0.74505805969E-08  0.10566000000E+00  0.10566000000E+00 0.  1.
     999900   -1    0    0    0    0 -0.00000000000E+00 -0.00000000000E+00 -0.74505805969E-08  0.93827000000E+00  0.93827000000E+00 0.  1.
     999902    2    1    2    0    0 -0.81979946720E-02 -0.21237961519E-01  0.17436952356E-02  0.10210980356E+01  0.10208427399E+01 0.  0.
     999903    2    3    3    0    0  0.44365507012E-01 -0.10087767731E+00 -0.71542740991E-01  0.13291094506E+00  0.20058702210E-01 0.  0.
         14    1    1    2    0    0  0.81979946720E-02  0.21237961519E-01 -0.17436952356E-02  0.22831964418E-01  0.00000000000E+00 0. -1.
     999901    1    3    3    0    0 -0.52563501685E-01  0.79639715795E-01  0.73286436227E-01  0.88818709053E+00  0.88000000000E+00 0. -1.
        -11    1    4    4    0    0  0.19604812518E-02 -0.14895451143E-01 -0.16667682174E-01  0.22445282390E-01  0.51100000000E-03 0.  1.
         11    1    4    4    0    0  0.42405025761E-01 -0.85982226171E-01 -0.54875058817E-01  0.11046566267E+00  0.51100000000E-03 0. -1.
</event>
<event>
 8    1  0.1054086E+005  0.1043930E+01  0.7957747E-01            NaN
         13   -1    0    0    0    0  0.00000000000E+00  0.00000000000E+00  0.74505805969E-08  0.10566000000E+00  0.10566000000E+00 0. -1.
     999900   -1    0    0    0    0 -0.00000000000E+00 -0.00000000000E+00 -0.74505805969E-08  0.93827000000E+00  0.93827000000E+00 0. -1.
     999902    2    1    2    0    0  0.91204185759E-02 -0.16115279038E-01  0.12990047598E-01  0.10213108579E+01  0.10210603522E+01 0.  0.
     999903    2    3    3    0    0 -0.49086596708E-02  0.59688338988E-01 -0.11262994248E+00  0.12905339199E+00  0.19557128865E-01 0.  0.
         14    1    1    2    0    0 -0.91204185759E-02  0.16115279038E-01 -0.12990047598E-01  0.22619142116E-01  0.00000000000E+00 0. -1.
     999901    1    3    3    0    0  0.14029078247E-01 -0.75803618026E-01  0.12561999008E+00  0.89225746590E+00  0.88000000000E+00 0.  1.
        -11    1    4    4    0    0  0.31409758663E-02  0.32303070801E-01 -0.43624383166E-01  0.54375564734E-01  0.51100000000E-03 0. -1.
         11    1    4    4    0    0 -0.80496355371E-02  0.27385268187E-01 -0.69005559314E-01  0.74677827253E-01  0.51100000000E-03 0.  1.
</event>
<event>
 8    1  0.1054086E+005  0.1043930E+01  0.7957747E-01            NaN
         13   -1    0    0    0    0  0.00000000000E+00  0.00000000000E+00  0.74505805969E-08  0.10566000000E+00  0.10566000000E+00 0.  1.
     999900   -1    0    0    0    0 -0.00000000000E+00 -0.00000000000E+00 -0.74505805969E-08  0.93827000000E+00  0.93827000000E+00 0.  1.
     999902    2    1    2    0    0  0.95934786426E-02  0.11898777457E-01  0.18097170337E-01  0.10202419585E+01  0.10199669262E+01 0.  0.
     999903    2    3    3    0    0  0.67887107721E-01  0.24953603190E-02 -0.10808380929E+00  0.12928280617E+00  0.20421751195E-01 0.  0.
         14    1    1    2    0    0 -0.95934786426E-02 -0.11898777457E-01 -0.18097170337E-01  0.23688041533E-01  0.00000000000E+00 0. -1.
     999901    1    3    3    0    0 -0.58293629079E-01  0.94034171379E-02  0.12618097963E+00  0.89095915230E+00  0.88000000000E+00 0. -1.
        -11    1    4    4    0    0  0.70102541894E-02 -0.86015031169E-03 -0.26517907969E-01  0.27447114355E-01  0.51100000000E-03 0.  1.
         11    1    4    4    0    0  0.60876853532E-01  0.33555106307E-02 -0.81565901323E-01  0.10183569181E+00  0.51100000000E-03 0. -1.
</event>
<event>
 8    1  0.1054086E+005  0.1043930E+01  0.7957747E-01            NaN
         13   -1    0    0    0    0  0.00000000000E+00  0.00000000000E+00  0.74505805969E-08  0.10566000000E+00  0.10566000000E+00 0.  1.
     999900   -1    0    0    0    0 -0.00000000000E+00 -0.00000000000E+00 -0.74505805969E-08  0.93827000000E+00  0.93827000000E+00 0. -1.
     999902    2    1    2    0    0 -0.18679511625E-02 -0.54032805221E-02  0.34478378038E-01  0.10089808479E+01  0.10083753806E+01 0.  0.
     999903    2    3    3    0    0 -0.59086810370E-01 -0.99691156910E-01  0.33243727527E-01  0.12209544049E+00  0.19302156398E-01 0.  0.
         14    1    1    2    0    0  0.18679511625E-02  0.54032805221E-02 -0.34478378038E-01  0.34949152123E-01  0.00000000000E+00 0. -1.
     999901    1    3    3    0    0  0.57218859208E-01  0.94287876388E-01  0.12346505110E-02  0.88688540739E+00  0.88000000000E+00 0.  1.
        -11    1    4    4    0    0 -0.45850597655E-02 -0.11462409165E-01 -0.20971591011E-02  0.12532708974E-01  0.51100000000E-03 0. -1.
         11    1    4    4    0    0 -0.54501750605E-01 -0.88228747745E-01  0.35340886628E-01  0.10956273151E+00  0.51100000000E-03 0.  1.
</event>
<event>
 8    1  0.1054086E+005  0.1043930E+01  0.7957747E-01            NaN
         13   -1    0    0    0    0  0.00000000000E+00  0.00000000000E+00  0.74505805969E-08  0.10566000000E+00  0.10566000000E+00 0.  1.
     999900   -1    0    0    0    0 -0.00000000000E+00 -0.00000000000E+00 -0.74505805969E-08  0.93827000000E+00  0.93827000000E+00 0.  1.
     999902    2    1    2    0    0 -0.29654665090E-02  0.21346879693E-01 -0.11804970809E-01  0.10193568317E+01  0.10190606016E+01 0.  0.
     999903    2    3    3    0    0  0.12821191217E-01 -0.12448323560E+00 -0.10778582458E-01  0.12721519802E+00  0.20175972732E-01 0.  0.
         14    1    1    2    0    0  0.29654665090E-02 -0.21346879693E-01  0.11804970809E-01  0.24573168295E-01  0.00000000000E+00 0. -1.
     999901    1    3    3    0    0 -0.15786657726E-01  0.14583011530E+00 -0.10263883510E-02  0.89214163369E+00  0.88000000000E+00 0.  1.
        -11    1    4    4    0    0 -0.51409194829E-02 -0.39040788132E-01 -0.52388556939E-02  0.39728062136E-01  0.51100000000E-03 0.  1.
         11    1    4    4    0    0  0.17962110700E-01 -0.85442447472E-01 -0.55397267636E-02  0.87487135879E-01  0.51100000000E-03 0. -1.
</event>
<event>
 8    1  0.1054086E+005  0.1043930E+01  0.7957747E-01            NaN
         13   -1    0    0    0    0  0.00000000000E+00  0.00000000000E+00  0.74505805969E-08  0.10566000000E+00  0.10566000000E+00 0. -1.
     999900   -1    0    0    0    0 -0.00000000000E+00 -0.00000000000E+00 -0.74505805969E-08  0.93827000000E+00  0.93827000000E+00 0. -1.
     999902    2    1    2    0    0  0.19101817430E-01  0.16566056566E-01  0.16866475887E-01  0.10135360587E+01  0.10130802291E+01 0.  0.
     999903    2    3    3    0    0 -0.63205946232E-01 -0.33276927917E-01  0.99798674297E-01  0.12441478429E+00  0.20418559900E-01 0.  0.
         14    1    1    2    0    0 -0.19101817430E-01 -0.16566056566E-01 -0.16866475887E-01  0.30393941306E-01  0.00000000000E+00 0.  1.
     999901    1    3    3    0    0  0.82307763661E-01  0.49842984482E-01 -0.82932198411E-01  0.88912127440E+00  0.88000000000E+00 0. -1.
        -11    1    4    4    0    0 -0.19580784372E-01 -0.37327432880E-03  0.24246614989E-01  0.31172197705E-01  0.51100000000E-03 0.  1.
         11    1    4    4    0    0 -0.43625161860E-01 -0.32903653588E-01  0.75552059309E-01  0.93242586587E-01  0.51100000000E-03 0. -1.
</event>
<event>
 8    1  0.1054086E+005  0.1043930E+01  0.7957747E-01            NaN
         13   -1    0    0    0    0  0.00000000000E+00  0.00000000000E+00  0.74505805969E-08  0.10566000000E+00  0.10566000000E+00 0. -1.
     999900   -1    0    0    0    0 -0.00000000000E+00 -0.00000000000E+00 -0.74505805969E-08  0.93827000000E+00  0.93827000000E+00 0.  1.
     999902    2    1    2    0    0  0.20110145269E-01 -0.68170199071E-02 -0.10508852284E-01  0.10202376873E+01  0.10199625547E+01 0.  0.
     999903    2    3    3    0    0  0.48522651396E-01  0.46168063598E-01 -0.11245900336E+00  0.13231397277E+00  0.19339652471E-01 0.  0.
         14    1    1    2    0    0 -0.20110145269E-01  0.68170199071E-02  0.10508852284E-01  0.23692312667E-01  0.00000000000E+00 0. -1.
     999901    1    3    3    0    0 -0.28412506126E-01 -0.52985083505E-01  0.10195015108E+00  0.88792371456E+00  0.88000000000E+00 0. -1.
        -11    1    4    4    0    0  0.16960234449E-01  0.12102600043E-01 -0.52402063210E-01  0.56394679094E-01  0.51100000000E-03 0. -1.
         11    1    4    4    0    0  0.31562416946E-01  0.34065463555E-01 -0.60056940154E-01  0.75919293677E-01  0.51100000000E-03 0.  1.
</event>
<event>
 8    1  0.1054086E+005  0.1043930E+01  0.7957747E-01            NaN
         13   -1    0    0    0    0  0.00000000000E+00  0.00000000000E+00  0.74505805969E-08  0.10566000000E+00  0.10566000000E+00 0.  1.
     999900   -1    0    0    0    0 -0.00000000000E+00 -0.00000000000E+00 -0.74505805969E-08  0.93827000000E+00  0.93827000000E+00 0. -1.
     999902    2    1    2    0    0  0.55117539058E-02  0.10810285859E-01  0.18490140397E-01  0.10218137842E+01  0.10215744136E+01 0.  0.
     999903    2    3    3    0    0  0.90635828488E-01  0.18572048411E-01  0.94150409295E-01  0.13444079081E+00  0.25500044600E-01 0.  0.
         14    1    1    2    0    0 -0.55117539058E-02 -0.10810285859E-01 -0.18490140397E-01  0.22116215846E-01  0.00000000000E+00 0. -1.
     999901    1    3    3    0    0 -0.85124074582E-01 -0.77617625521E-02 -0.75660268899E-01  0.88737299335E+00  0.88000000000E+00 0. -1.
        -11    1    4    4    0    0  0.55481213353E-01  0.35703092119E-02  0.41506127864E-01  0.69382504381E-01  0.51100000000E-03 0. -1.
         11    1    4    4    0    0  0.35154615135E-01  0.15001739199E-01  0.52644281431E-01  0.65058286426E-01  0.51100000000E-03 0.  1.
</event>
<event>
 8    1  0.1054086E+005  0.1043930E+01  0.7957747E-01            NaN
         13   -1    0    0    0    0  0.00000000000E+00  0.00000000000E+00  0.74505805969E-08  0.10566000000E+00  0.10566000000E+00 0. -1.
     999900   -1    0    0    0    0 -0.00000000000E+00 -0.00000000000E+00 -0.74505805969E-08  0.93827000000E+00  0.93827000000E+00 0. -1.
     999902    2    1    2    0    0 -0.78995401496E-02 -0.82431194276E-02 -0.21979905578E-01  0.10191617138E+01  0.10188607024E+01 0.  0.
     999903    2    3    3    0    0 -0.86216133392E-01  0.78262142370E-01  0.50602648165E-01  0.12849630175E+00  0.19811284086E-01 0.  0.
         14    1    1    2    0    0  0.78995401496E-02  0.82431194276E-02  0.21979905578E-01  0.24768286209E-01  0.00000000000E+00 0. -1.
     999901    1    3    3    0    0  0.78316593243E-01 -0.86505261797E-01 -0.72582553743E-01  0.89066541204E+00  0.88000000000E+00 0.  1.
        -11    1    4    4    0    0 -0.45145916777E-01  0.35532396546E-01  0.34742130894E-01  0.67141505687E-01  0.51100000000E-03 0. -1.
         11    1    4    4    0    0 -0.41070216616E-01  0.42729745823E-01  0.15860517271E-01  0.61354796064E-01  0.51100000000E-03 0.  1.
</event>
<event>
 8    1  0.1054086E+005  0.1043930E+01  0.7957747E-01            NaN
         13   -1    0    0    0    0  0.00000000000E+00  0.00000000000E+00  0.74505805969E-08  0.10566000000E+00  0.10566000000E+00 0.  1.
     999900   -1    0    0    0    0 -0.00000000000E+00 -0.00000000000E+00 -0.74505805969E-08  0.93827000000E+00  0.93827000000E+00 0. -1.
     999902    2    1    2    0    0  0.60180979699E-03  0.11018457089E-02  0.23433174053E-01  0.10204632174E+01  0.10201933582E+01 0.  0.
     999903    2    3    3    0    0 -0.44825976302E-01 -0.26122761150E-01 -0.11608965482E+00  0.12789866358E+00  0.13765659764E-01 0.  0.
         14    1    1    2    0    0 -0.60180979699E-03 -0.11018457089E-02 -0.23433174053E-01  0.23466782591E-01  0.00000000000E+00 0. -1.
     999901    1    3    3    0    0  0.45427786099E-01  0.27224606859E-01  0.13952282887E+00  0.89256455383E+00  0.88000000000E+00 0.  1.
        -11    1    4    4    0    0 -0.32537271739E-01 -0.25492974887E-01 -0.87807128996E-01  0.97051114596E-01  0.51100000000E-03 0.  1.
         11    1    4    4    0    0 -0.12288704563E-01 -0.62978626372E-03 -0.28282525824E-01  0.30847548988E-01  0.51100000000E-03 0. -1.
</event>
<event>
 8    1  0.1054086E+005  0.1043930E+01  0.7957747E-01            NaN
         13   -1    0    0    0    0  0.00000000000E+00  0.00000000000E+00  0.74505805969E-08  0.10566000000E+00  0.10566000000E+00 0.  1.
     999900   -1    0    0    0    0 -0.00000000000E+00 -0.00000000000E+00 -0.74505805969E-08  0.93827000000E+00  0.93827000000E+00 0.  1.
     999902    2    1    2    0    0  0.17202191442E-01 -0.69952426553E-02 -0.14948118404E-01  0.10200910601E+01  0.10198124710E+01 0.  0.
     999903    2    3    3    0    0 -0.77488098757E-01 -0.57639776728E-01  0.81834532244E-01  0.12829623992E+00  0.20887441194E-01 0.  0.
         14    1    1    2    0    0 -0.17202191442E-01  0.69952426553E-02  0.14948118404E-01  0.23838939869E-01  0.00000000000E+00 0. -1.
     999901    1    3    3    0    0  0.94690290200E-01  0.50644534073E-01 -0.96782650649E-01  0.89179482021E+00  0.88000000000E+00 0.  1.
        -11    1    4    4    0    0 -0.67724858397E-01 -0.57764267054E-01  0.74412531689E-01  0.11602091616E+00  0.51100000000E-03 0.  1.
         11    1    4    4    0    0 -0.97632403602E-02  0.12449032578E-03  0.74220005553E-02  0.12275323760E-01  0.51100000000E-03 0. -1.
</event>
<event>
 8    1  0.1054086E+005  0.1043930E+01  0.7957747E-01            NaN
         13   -1    0    0    0    0  0.00000000000E+00  0.00000000000E+00  0.74505805969E-08  0.10566000000E+00  0.10566000000E+00 0. -1.
     999900   -1    0    0    0    0 -0.00000000000E+00 -0.00000000000E+00 -0.74505805969E-08  0.93827000000E+00  0.93827000000E+00 0. -1.
     999902    2    1    2    0    0 -0.93820175179E-02 -0.66834005620E-02  0.20728671088E-01  0.10202157026E+01  0.10199400531E+01 0.  0.
     999903    2    3    3    0    0 -0.31213964753E-01 -0.12019496410E+00  0.40718974531E-01  0.13243131369E+00  0.21421413748E-01 0.  0.
         14    1    1    2    0    0  0.93820175179E-02  0.66834005620E-02 -0.20728671088E-01  0.23714297393E-01  0.00000000000E+00 0.  1.
     999901    1    3    3    0    0  0.21831947235E-01  0.11351156354E+00 -0.19990303444E-01  0.88778438892E+00  0.88000000000E+00 0.  1.
        -11    1    4    4    0    0 -0.39486344725E-02 -0.52514554646E-01  0.11998870837E-01  0.54014851533E-01  0.51100000000E-03 0. -1.
         11    1    4    4    0    0 -0.27265330281E-01 -0.67680409457E-01  0.28720103694E-01  0.78416462154E-01  0.51100000000E-03 0.  1.
</event>
<event>
 8    1  0.1054086E+005  0.1043930E+01  0.7957747E-01            NaN
         13   -1    0    0    0    0  0.00000000000E+00  0.00000000000E+00  0.74505805969E-08  0.10566000000E+00  0.10566000000E+00 0. -1.
     999900   -1    0    0    0    0 -0.00000000000E+00 -0.00000000000E+00 -0.74505805969E-08  0.93827000000E+00  0.93827000000E+00 0. -1.
     999902    2    1    2    0    0  0.27490775076E-02 -0.22417544406E-01  0.94297058426E-02  0.10194550521E+01  0.10191612140E+01 0.  0.
     999903    2    3    3    0    0  0.42042847376E-01 -0.20420177314E-01  0.12124222831E+00  0.13150796467E+00  0.20250486132E-01 0.  0.
         14    1    1    2    0    0 -0.27490775076E-02  0.22417544406E-01 -0.94297058426E-02  0.24474947939E-01  0.00000000000E+00 0.  1.
     999901    1    3    3    0    0 -0.39293769869E-01 -0.19973670923E-02 -0.11181252247E+00  0.88794708739E+00  0.88000000000E+00 0. -1.
        -11    1    4    4    0    0  0.85734145063E-02 -0.52084335012E-02  0.53463105585E-01  0.54398492586E-01  0.51100000000E-03 0.  1.
         11    1    4    4    0    0  0.33469432870E-01 -0.15211743813E-01  0.67779122726E-01  0.77109472084E-01  0.51100000000E-03 0. -1.
</event>
<event>
 8    1  0.1054086E+005  0.1043930E+01  0.7957747E-01            NaN
         13   -1    0    0    0    0  0.00000000000E+00  0.00000000000E+00  0.74505805969E-08  0.10566000000E+00  0.10566000000E+00 0. -1.
     999900   -1    0    0    0    0 -0.00000000000E+00 -0.00000000000E+00 -0.74505805969E-08  0.93827000000E+00  0.93827000000E+00 0.  1.
     999902    2    1    2    0    0  0.55784076303E-02  0.70782155366E-02  0.21417192688E-01  0.10206939093E+01  0.10204293903E+01 0.  0.
     999903    2    3    3    0    0 -0.12570944192E+00  0.21459528047E-01 -0.17229118375E-01  0.12999931580E+00  0.18428360126E-01 0.  0.
         14    1    1    2    0    0 -0.55784076303E-02 -0.70782155366E-02 -0.21417192688E-01  0.23236090667E-01  0.00000000000E+00 0.  1.
     999901    1    3    3    0    0  0.13128784955E+00 -0.14381312511E-01  0.38646311063E-01  0.89069459353E+00  0.88000000000E+00 0. -1.
        -11    1    4    4    0    0 -0.70184725026E-01  0.75204449549E-02 -0.17595182975E-01  0.72748225437E-01  0.51100000000E-03 0.  1.
         11    1    4    4    0    0 -0.55524716893E-01  0.13939083092E-01  0.36606459988E-03  0.57251090364E-01  0.51100000000E-03 0. -1.
</event>
<event>
 8    1  0.1054086E+005  0.1043930E+01  0.7957747E-01            NaN
         13   -1    0    0    0    0  0.00000000000E+00  0.00000000000E+00  0.74505805969E-08  0.10566000000E+00  0.10566000000E+00 0.  1.
     999900   -1    0    0    0    0 -0.00000000000E+00 -0.00000000000E+00 -0.74505805969E-08  0.93827000000E+00  0.93827000000E+00 0.  1.
     999902    2    1    2    0    0  0.21837863568E-03  0.10361146578E-01 -0.21065959825E-01  0.10204528683E+01  0.10201827683E+01 0.  0.
     999903    2    3    3    0    0 -0.46697933156E-01 -0.11644181308E+00 -0.27952523704E-01  0.13010037879E+00  0.20133856671E-01 0.  0.
         14    1    1    2    0    0 -0.21837863568E-03 -0.10361146578E-01  0.21065959825E-01  0.23477131660E-01  0.00000000000E+00 0.  1.
     999901    1    3    3    0    0  0.46916311791E-01  0.12680295966E+00  0.68865638789E-02  0.89035248955E+00  0.88000000000E+00 0.  1.
        -11    1    4    4    0    0 -0.36356114333E-01 -0.66018819751E-01 -0.12861546152E-01  0.76458695392E-01  0.51100000000E-03 0.  1.
         11    1    4    4    0    0 -0.10341818823E-01 -0.50422993330E-01 -0.15090977552E-01  0.53641683395E-01  0.51100000000E-03 0. -1.
</event>
<event>
 8    1  0.1054086E+005  0.1043930E+01  0.7957747E-01            NaN
         13   -1    0    0    0    0  0.00000000000E+00  0.00000000000E+00  0.74505805969E-08  0.10566000000E+00  0.10566000000E+00 0.  1.
     999900   -1    0    0    0    0 -0.00000000000E+00 -0.00000000000E+00 -0.74505805969E-08  0.93827000000E+00  0.93827000000E+00 0. -1.
     999902    2    1    2    0    0 -0.19933856674E-01 -0.53608939557E-02 -0.83294408209E-02  0.10216706781E+01  0.10214281654E+01 0.  0.
     999903    2    3    3    0    0  0.72033122734E-01  0.45459458501E-02  0.10548120659E+00  0.12953339371E+00  0.21051811069E-01 0.  0.
         14    1    1    2    0    0  0.19933856674E-01  0.53608939557E-02  0.83294408209E-02  0.22259321874E-01  0.00000000000E+00 0. -1.
     999901    1    3    3    0    0 -0.91966979408E-01 -0.99068398058E-02 -0.11381064741E+00  0.89213728441E+00  0.88000000000E+00 0. -1.
        -11    1    4    4    0    0  0.24652828264E-01  0.11386684200E-01  0.42160671801E-01  0.50151788465E-01  0.51100000000E-03 0.  1.
         11    1    4    4    0    0  0.47380294470E-01 -0.68407383497E-02  0.63320534785E-01  0.79381605248E-01  0.51100000000E-03 0. -1.
</event>
<event>
 8    1  0.1054086E+005  0.1043930E+01  0.7957747E-01            NaN
         13   -1    0    0    0    0  0.00000000000E+00  0.00000000000E+00  0.74505805969E-08  0.10566000000E+00  0.10566000000E+00 0. -1.
     999900   -1    0    0    0    0 -0.00000000000E+00 -0.00000000000E+00 -0.74505805969E-08  0.93827000000E+00  0.93827000000E+00 0.  1.
     999902    2    1    2    0    0  0.55781911251E-02  0.20287567516E-01 -0.85476939615E-02  0.10212195468E+01  0.10209669917E+01 0.  0.
     999903    2    3    3    0    0 -0.55241751791E-01  0.10687731714E+00  0.52315019339E-01  0.13279334275E+00  0.20562066278E-01 0.  0.
         14    1    1    2    0    0 -0.55781911251E-02 -0.20287567516E-01  0.85476939615E-02  0.22710453188E-01  0.00000000000E+00 0.  1.
     999901    1    3    3    0    0  0.60819942916E-01 -0.86589749626E-01 -0.60862713301E-01  0.88842620406E+00  0.88000000000E+00 0.  1.
        -11    1    4    4    0    0 -0.57569388327E-02  0.20549089879E-02  0.24222599220E-02  0.65949571494E-02  0.51100000000E-03 0.  1.
         11    1    4    4    0    0 -0.49484812958E-01  0.10482240815E+00  0.49892759417E-01  0.12619838560E+00  0.51100000000E-03 0. -1.
</event>
<event>
 8    1  0.1054086E+005  0.1043930E+01  0.7957747E-01            NaN
         13   -1    0    0    0    0  0.00000000000E+00  0.00000000000E+00  0.74505805969E-08  0.10566000000E+00  0.10566000000E+00 0.  1.
     999900   -1    0    0    0    0 -0.00000000000E+00 -0.00000000000E+00 -0.74505805969E-08  0.93827000000E+00  0.93827000000E+00 0. -1.
     999902    2    1    2    0    0 -0.12174315414E-01  0.18097686291E-01  0.11629777938E-01  0.10192117489E+01  0.10189119673E+01 0.  0.
     999903    2    3    3    0    0  0.76230394785E-01 -0.99521097158E-01  0.31691652113E-02  0.12695553398E+00  0.19802578928E-01 0.  0.
         14    1    1    2    0    0  0.12174315414E-01 -0.18097686291E-01 -0.11629777938E-01  0.24718251147E-01  0.00000000000E+00 0. -1.
     999901    1    3    3    0    0 -0.88404710199E-01  0.11761878345E+00  0.84606127269E-02  0.89225621487E+00  0.88000000000E+00 0. -1.
        -11    1    4    4    0    0  0.32571951293E-01 -0.46607294421E-01 -0.80905029107E-02  0.57435957924E-01  0.51100000000E-03 0. -1.
         11    1    4    4    0    0  0.43658443492E-01 -0.52913802737E-01  0.11259668122E-01  0.69519576059E-01  0.51100000000E-03 0.  1.
</event>
<event>
 8    1  0.1054086E+005  0.1043930E+01  0.7957747E-01            NaN
         13   -1    0    0    0    0  0.00000000000E+00  0.00000000000E+00  0.74505805969E-08  0.10566000000E+00  0.10566000000E+00 0.  1.
     999900   -1    0    0    0    0 -0.00000000000E+00 -0.00000000000E+00 -0.74505805969E-08  0.93827000000E+00  0.93827000000E+00 0.  1.
     999902    2    1    2    0    0  0.22233478137E-01 -0.22102348856E-02  0.76831329564E-02  0.10203028288E+01  0.10200292247E+01 0.  0.
     999903    2    3    3    0    0  0.65623889739E-01 -0.52700918691E-01 -0.99324121428E-01  0.13132443226E+00  0.17232053721E-01 0.  0.
         14    1    1    2    0    0 -0.22233478137E-01  0.22102348856E-02 -0.76831329564E-02  0.23627171231E-01  0.00000000000E+00 0.  1.
     999901    1    3    3    0    0 -0.43390411602E-01  0.50490683806E-01  0.10700725438E+00  0.88897839651E+00  0.88000000000E+00 0. -1.
        -11    1    4    4    0    0  0.39949589986E-01 -0.28870466430E-01 -0.45367135344E-01  0.66991877584E-01  0.51100000000E-03 0. -1.
         11    1    4    4    0    0  0.25674299753E-01 -0.23830452262E-01 -0.53956986084E-01  0.64332554676E-01  0.51100000000E-03 0.  1.
</event>
<event>
 8    1  0.1054086E+005  0.1043930E+01  0.7957747E-01            NaN
         13   -1    0    0    0    0  0.00000000000E+00  0.00000000000E+00  0.74505805969E-08  0.10566000000E+00  0.10566000000E+00 0. -1.
     999900   -1    0    0    0    0 -0.00000000000E+00 -0.00000000000E+00 -0.74505805969E-08  0.93827000000E+00  0.93827000000E+00 0. -1.
     999902    2    1    2    0    0  0.71134480198E-02 -0.12339487217E-01  0.19862930886E-01  0.10194882302E+01  0.10191951979E+01 0.  0.
     999903    2    3    3    0    0 -0.30518485952E-01 -0.70505465856E-03  0.12692748914E+00  0.13212452680E+00  0.20357504703E-01 0.  0.
         14    1    1    2    0    0 -0.71134480198E-02  0.12339487217E-01 -0.19862930886E-01  0.24441769798E-01  0.00000000000E+00 0.  1.
     999901    1    3    3    0    0  0.37631933972E-01 -0.11634432558E-01 -0.10706455825E+00  0.88736370340E+00  0.88000000000E+00 0. -1.
        -11    1    4    4    0    0 -0.39220312102E-02 -0.81279024663E-02  0.28863723812E-01  0.30246004705E-01  0.51100000000E-03 0.  1.
         11    1    4    4    0    0 -0.26596454742E-01  0.74228478077E-02  0.98063765324E-01  0.10187852210E+00  0.51100000000E-03 0. -1.
</event>
<event>
 8    1  0.1054086E+005  0.1043930E+01  0.7957747E-01            NaN
         13   -1    0    0    0    0  0.00000000000E+00  0.00000000000E+00  0.74505805969E-08  0.10566000000E+00  0.10566000000E+00 0. -1.
     999900   -1    0    0    0    0 -0.00000000000E+00 -0.00000000000E+00 -0.74505805969E-08  0.93827000000E+00  0.93827000000E+00 0. -1.
     999902    2    1    2    0    0  0.14815196676E-01  0.18340413257E-01 -0.40024305770E-02  0.10200159819E+01  0.10197356143E+01 0.  0.
     999903    2    3    3    0    0  0.57901083075E-01  0.61724674344E-01  0.99241473752E-01  0.13187303648E+00  0.19471948925E-01 0.  0.
         14    1    1    2    0    0 -0.14815196676E-01 -0.18340413257E-01  0.40024305770E-02  0.23914018097E-01  0.00000000000E+00 0. -1.
     999901    1    3    3    0    0 -0.43085886399E-01 -0.43384261086E-01 -0.10324390433E+00  0.88814294542E+00  0.88000000000E+00 0. -1.
        -11    1    4    4    0    0  0.30374481827E-01  0.25192860059E-01  0.58791592161E-01  0.70809616395E-01  0.51100000000E-03 0.  1.
         11    1    4    4    0    0  0.27526601249E-01  0.36531814285E-01  0.40449881591E-01  0.61063420089E-01  0.51100000000E-03 0. -1.
</event>
<event>
 8    1  0.1054086E+005  0.1043930E+01  0.7957747E-01            NaN
         13   -1    0    0    0    0  0.00000000000E+00  0.00000000000E+00  0.74505805969E-08  0.10566000000E+00  0.10566000000E+00 0.  1.
     999900   -1    0    0    0    0 -0.00000000000E+00 -0.00000000000E+00 -0.74505805969E-08  0.93827000000E+00  0.93827000000E+00 0.  1.
     999902    2    1    2    0    0 -0.18755389761E-02 -0.15118566198E-01 -0.18689275042E-01  0.10198182250E+01  0.10195331453E+01 0.  0.
     999903    2    3    3    0    0  0.76342000368E-01 -0.55662138885E-01 -0.90643419118E-01  0.13249688325E+00  0.20317970252E-01 0.  0.
         14    1    1    2    0    0  0.18755389761E-02  0.15118566198E-01  0.18689275042E-01  0.24111774964E-01  0.00000000000E+00 0.  1.
     999901    1    3    3    0    0 -0.78217539344E-01  0.40543572687E-01  0.71954144076E-01  0.88732134179E+00  0.88000000000E+00 0. -1.
        -11    1    4    4    0    0  0.31372638728E-01 -0.14839272005E-01 -0.43261277824E-01  0.55463913803E-01  0.51100000000E-03 0. -1.
         11    1    4    4    0    0  0.44969361639E-01 -0.40822866880E-01 -0.47382141294E-01  0.77032969443E-01  0.51100000000E-03 0.  1.
</event>
<event>
 8    1  0.1054086E+005  0.1043930E+01  0.7957747E-01            NaN
         13   -1    0    0    0    0  0.00000000000E+00  0.00000000000E+00  0.74505805969E-08  0.10566000000E+00  0.10566000000E+00 0. -1.
     999900   -1    0    0    0    0 -0.00000000000E+00 -0.00000000000E+00 -0.74505805969E-08  0.93827000000E+00  0.93827000000E+00 0.  1.
     999902    2    1    2    0    0 -0.15661414811E-01  0.17063159034E-01  0.11717140166E-01  0.10179738315E+01  0.10176428641E+01 0.  0.
     999903    2    3    3    0    0 -0.73554605895E-01  0.10696766961E+00  0.82022922363E-02  0.13149382791E+00  0.19261017330E-01 0.  0.
         14    1    1    2    0    0  0.15661414811E-01 -0.17063159034E-01 -0.11717140166E-01  0.25956168511E-01  0.00000000000E+00 0. -1.
     999901    1    3    3    0    0  0.57893191084E-01 -0.89904510578E-01  0.35148479300E-02  0.88648000358E+00  0.88000000000E+00 0.  1.
        -11    1    4    4    0    0 -0.39334248009E-01  0.63925079750E-01 -0.40006684959E-02  0.75165586254E-01  0.51100000000E-03 0.  1.
         11    1    4    4    0    0 -0.34220357886E-01  0.43042589863E-01  0.12202960732E-01  0.56328241652E-01  0.51100000000E-03 0. -1.
</event>
<event>
 8    1  0.1139193E+005  0.1043930E+01  0.7957747E-01            NaN
         13   -1    0    0    0    0  0.00000000000E+00  0.00000000000E+00  0.74505805969E-08  0.10566000000E+00  0.10566000000E+00 0. -1.
     999900   -1    0    0    0    0 -0.00000000000E+00 -0.00000000000E+00 -0.74505805969E-08  0.93827000000E+00  0.93827000000E+00 0.  1.
     999902    2    1    2    0    0  0.44006486134E-02 -0.18725539776E-01  0.12488932446E-01  0.10209956375E+01  0.10207380207E+01 0.  0.
     999903    2    3    3    0    0 -0.46774780492E-01 -0.18409021196E-01  0.12126046353E+00  0.13282320455E+00  0.20276377931E-01 0.  0.
         14    1    1    2    0    0 -0.44006486134E-02  0.18725539776E-01 -0.12488932446E-01  0.22934362467E-01  0.00000000000E+00 0.  1.
     999901    1    3    3    0    0  0.51175429105E-01 -0.31651858024E-03 -0.10877153108E+00  0.88817243298E+00  0.88000000000E+00 0.  1.
        -11    1    4    4    0    0 -0.22322874692E-01 -0.18598426918E-01  0.55228687198E-01  0.62407381206E-01  0.51100000000E-03 0. -1.
         11    1    4    4    0    0 -0.24451905800E-01  0.18940572210E-03  0.66031776329E-01  0.70415823349E-01  0.51100000000E-03 0.  1.
</event>
<event>
 8    1  0.1054086E+005  0.1043930E+01  0.7957747E-01            NaN
         13   -1    0    0    0    0  0.00000000000E+00  0.00000000000E+00  0.74505805969E-08  0.10566000000E+00  0.10566000000E+00 0. -1.
     999900   -1    0    0    0    0 -0.00000000000E+00 -0.00000000000E+00 -0.74505805969E-08  0.93827000000E+00  0.93827000000E+00 0.  1.
     999902    2    1    2    0    0 -0.12510358580E-01 -0.23171758932E-01  0.40153662423E-02  0.10172923828E+01  0.10169435724E+01 0.  0.
     999903    2    3    3    0    0 -0.11196335851E+00 -0.33353974199E-01  0.54337830514E-01  0.13020336410E+00  0.18762594509E-01 0.  0.
         14    1    1    2    0    0  0.12510358580E-01  0.23171758932E-01 -0.40153662423E-02  0.26637617196E-01  0.00000000000E+00 0. -1.
     999901    1    3    3    0    0  0.99452999932E-01  0.10182215267E-01 -0.50322464272E-01  0.88708901871E+00  0.88000000000E+00 0.  1.
        -11    1    4    4    0    0 -0.55451335127E-01 -0.20734110125E-01  0.36763110075E-01  0.69688889167E-01  0.51100000000E-03 0. -1.
         11    1    4    4    0    0 -0.56512023385E-01 -0.12619864075E-01  0.17574720440E-01  0.60514474928E-01  0.51100000000E-03 0.  1.
</event>
<event>
 8    1  0.1054086E+005  0.1043930E+01  0.7957747E-01            NaN
         13   -1    0    0    0    0  0.00000000000E+00  0.00000000000E+00  0.74505805969E-08  0.10566000000E+00  0.10566000000E+00 0. -1.
     999900   -1    0    0    0    0 -0.00000000000E+00 -0.00000000000E+00 -0.74505805969E-08  0.93827000000E+00  0.93827000000E+00 0. -1.
     999902    2    1    2    0    0  0.55826889356E-02  0.23153669205E-01 -0.25904851807E-02  0.10199723410E+01  0.10196909369E+01 0.  0.
     999903    2    3    3    0    0  0.97623324291E-01 -0.12799291119E-01 -0.83853716682E-01  0.13072107910E+00  0.19037316556E-01 0.  0.
         14    1    1    2    0    0 -0.55826889356E-02 -0.23153669205E-01  0.25904851807E-02  0.23957659044E-01  0.00000000000E+00 0.  1.
     999901    1    3    3    0    0 -0.92040635356E-01  0.35952960324E-01  0.81263231501E-01  0.88925126185E+00  0.88000000000E+00 0.  1.
        -11    1    4    4    0    0  0.28030485966E-01  0.12727667125E-02 -0.15024705029E-01  0.31832859764E-01  0.51100000000E-03 0. -1.
         11    1    4    4    0    0  0.69592838326E-01 -0.14072057831E-01 -0.68829011653E-01  0.98888219339E-01  0.51100000000E-03 0.  1.
</event>
<event>
 8    1  0.1054086E+005  0.1043930E+01  0.7957747E-01            NaN
         13   -1    0    0    0    0  0.00000000000E+00  0.00000000000E+00  0.74505805969E-08  0.10566000000E+00  0.10566000000E+00 0. -1.
     999900   -1    0    0    0    0 -0.00000000000E+00 -0.00000000000E+00 -0.74505805969E-08  0.93827000000E+00  0.93827000000E+00 0. -1.
     999902    2    1    2    0    0 -0.12173692282E-01  0.19999834423E-01 -0.98857819753E-02  0.10185150271E+01  0.10181978883E+01 0.  0.
     999903    2    3    3    0    0  0.87641546648E-01  0.48974300633E-01 -0.79630075988E-01  0.12965796991E+00  0.19766571257E-01 0.  0.
         14    1    1    2    0    0  0.12173692282E-01 -0.19999834423E-01  0.98857819753E-02  0.25414972870E-01  0.00000000000E+00 0. -1.
     999901    1    3    3    0    0 -0.99815238930E-01 -0.28974466210E-01  0.69744294012E-01  0.88885705722E+00  0.88000000000E+00 0. -1.
        -11    1    4    4    0    0  0.70337513811E-01  0.44228354490E-01 -0.56944412930E-01  0.10072954122E+00  0.51100000000E-03 0.  1.
         11    1    4    4    0    0  0.17304032838E-01  0.47459461426E-02 -0.22685663057E-01  0.28928428692E-01  0.51100000000E-03 0. -1.
</event>
<event>
 8    1  0.1054086E+005  0.1043930E+01  0.7957747E-01            NaN
         13   -1    0    0    0    0  0.00000000000E+00  0.00000000000E+00  0.74505805969E-08  0.10566000000E+00  0.10566000000E+00 0.  1.
     999900   -1    0    0    0    0 -0.00000000000E+00 -0.00000000000E+00 -0.74505805969E-08  0.93827000000E+00  0.93827000000E+00 0. -1.
     999902    2    1    2    0    0  0.20671818531E-02  0.23352766598E-01 -0.35539513621E-02  0.10202180722E+01  0.10199424785E+01 0.  0.
     999903    2    3    3    0    0 -0.38399314985E-01 -0.52761453138E-01 -0.11024462858E+00  0.12959255473E+00  0.19546707661E-01 0.  0.
         14    1    1    2    0    0 -0.20671818531E-02 -0.23352766598E-01  0.35539513621E-02  0.23711927777E-01  0.00000000000E+00 0.  1.
     999901    1    3    3    0    0  0.40466496838E-01  0.76114219737E-01  0.10669067722E+00  0.89062551750E+00  0.88000000000E+00 0.  1.
        -11    1    4    4    0    0 -0.10900898656E-01 -0.21434737606E-01 -0.57752852188E-01  0.62561414823E-01  0.51100000000E-03 0. -1.
         11    1    4    4    0    0 -0.27498416328E-01 -0.31326715533E-01 -0.52491776394E-01  0.67031139903E-01  0.51100000000E-03 0.  1.
</event>
<event>
 8    1  0.1054086E+005  0.1043930E+01  0.7957747E-01            NaN
         13   -1    0    0    0    0  0.00000000000E+00  0.00000000000E+00  0.74505805969E-08  0.10566000000E+00  0.10566000000E+00 0. -1.
     999900   -1    0    0    0    0 -0.00000000000E+00 -0.00000000000E+00 -0.74505805969E-08  0.93827000000E+00  0.93827000000E+00 0. -1.
     999902    2    1    2    0    0  0.22039000335E-01 -0.46163252224E-02  0.42777333415E-02  0.10210099870E+01  0.10207526961E+01 0.  0.
     999903    2    3    3    0    0  0.83194668217E-01  0.10067649803E+00  0.88434883162E-02  0.13261399393E+00  0.21240386654E-01 0.  0.
         14    1    1    2    0    0 -0.22039000335E-01  0.46163252224E-02 -0.42777333415E-02  0.22920013021E-01  0.00000000000E+00 0.  1.
     999901    1    3    3    0    0 -0.61155667882E-01 -0.10529282326E+00 -0.45657549747E-02  0.88839599305E+00  0.88000000000E+00 0.  1.
        -11    1    4    4    0    0  0.56549005151E-01  0.65631234642E-01  0.15731059147E-01  0.88050986860E-01  0.51100000000E-03 0.  1.
         11    1    4    4    0    0  0.26645663066E-01  0.35045263391E-01 -0.68875708306E-02  0.44563007072E-01  0.51100000000E-03 0. -1.
</event>
<event>
 8    1  0.1054086E+005  0.1043930E+01  0.7957747E-01            NaN
         13   -1    0    0    0    0  0.00000000000E+00  0.00000000000E+00  0.74505805969E-08  0.10566000000E+00  0.10566000000E+00 0. -1.
     999900   -1    0    0    0    0 -0.00000000000E+00 -0.00000000000E+00 -0.74505805969E-08  0.93827000000E+00  0.93827000000E+00 0. -1.
     999902    2    1    2    0    0 -0.89661818291E-03 -0.24493050494E-02 -0.22631572074E-01  0.10211486244E+01  0.10208944716E+01 0.  0.
     999903    2    3    3    0    0 -0.38205329683E-01  0.12380947451E+00 -0.32708251835E-02  0.13114409751E+00  0.19991068531E-01 0.  0.
         14    1    1    2    0    0  0.89661818291E-03  0.24493050494E-02  0.22631572074E-01  0.22781375593E-01  0.00000000000E+00 0. -1.
     999901    1    3    3    0    0  0.37308711501E-01 -0.12625877956E+00 -0.19360746890E-01  0.89000452689E+00  0.88000000000E+00 0. -1.
        -11    1    4    4    0    0 -0.20310255895E-01  0.72363756570E-01  0.77785052609E-02  0.75563126090E-01  0.51100000000E-03 0.  1.
         11    1    4    4    0    0 -0.17895073788E-01  0.51445717939E-01 -0.11049330444E-01  0.55580971424E-01  0.51100000000E-03 0. -1.
</event>
<event>
 8    1  0.1054086E+005  0.1043930E+01  0.7957747E-01            NaN
         13   -1    0    0    0    0  0.00000000000E+00  0.00000000000E+00  0.74505805969E-08  0.10566000000E+00  0.10566000000E+00 0. -1.
     999900   -1    0    0    0    0 -0.00000000000E+00 -0.00000000000E+00 -0.74505805969E-08  0.93827000000E+00  0.93827000000E+00 0.  1.
     999902    2    1    2    0    0 -0.23726510350E-01 -0.69460526763E-02 -0.24213228453E-02  0.10190893530E+01  0.10187865584E+01 0.  0.
     999903    2    3    3    0    0  0.83549366087E-01 -0.20512581858E-01 -0.92417700135E-01  0.12791512066E+00  0.20493516244E-01 0.  0.
         14    1    1    2    0    0  0.23726510350E-01  0.69460526763E-02  0.24213228453E-02  0.24840647042E-01  0.00000000000E+00 0. -1.
     999901    1    3    3    0    0 -0.10727587644E+00  0.13566529182E-01  0.89996377290E-01  0.89117423229E+00  0.88000000000E+00 0.  1.
        -11    1    4    4    0    0  0.28873197323E-01 -0.15614077714E-01 -0.26929692184E-01  0.42460927788E-01  0.51100000000E-03 0.  1.
         11    1    4    4    0    0  0.54676168765E-01 -0.48985041443E-02 -0.65488007951E-01  0.85454192875E-01  0.51100000000E-03 0. -1.
</event>
<event>
 7    1  0.1054086E+005  0.1043930E+01  0.7957747E-01            NaN
         13   -1    0    0    0    0  0.00000000000E+00  0.00000000000E+00  0.74505805969E-08  0.10566000000E+00  0.10566000000E+00 0. -1.
     999900   -1    0    0    0    0 -0.00000000000E+00 -0.00000000000E+00 -0.74505805969E-08  0.93827000000E+00  0.93827000000E+00 0.  1.
     999903    2    1    2    0    0 -0.70982095167E-01 -0.66877548700E-01 -0.55143025609E-01  0.11378718798E+00  0.19892373442E-01 0.  0.
         14    1    1    2    0    0 -0.37882334265E-01  0.20792459172E-02 -0.82038739361E-02  0.38816208734E-01  0.00000000000E+00 0.  1.
     999901    1    1    2    0    0  0.10886442943E+00  0.64798302783E-01  0.63346899545E-01  0.89132660328E+00  0.88000000000E+00 0.  1.
        -11    1    3    3    0    0 -0.10872847162E-01 -0.20208314623E-01 -0.17629314325E-01  0.28942160077E-01  0.51100000000E-03 0. -1.
         11    1    3    3    0    0 -0.60109248005E-01 -0.46669234077E-01 -0.37513711284E-01  0.84845027905E-01  0.51100000000E-03 0.  1.
</event>
<event>
 8    1  0.1054086E+005  0.1043930E+01  0.7957747E-01            NaN
         13   -1    0    0    0    0  0.00000000000E+00  0.00000000000E+00  0.74505805969E-08  0.10566000000E+00  0.10566000000E+00 0.  1.
     999900   -1    0    0    0    0 -0.00000000000E+00 -0.00000000000E+00 -0.74505805969E-08  0.93827000000E+00  0.93827000000E+00 0.  1.
     999902    2    1    2    0    0 -0.17587756163E-01 -0.39141593002E-02  0.11920734620E-01  0.10223255161E+01  0.10220972102E+01 0.  0.
     999903    2    3    3    0    0 -0.11503496646E+00  0.42348208271E-01  0.52437495120E-01  0.13481339038E+00  0.19963593876E-01 0.  0.
         14    1    1    2    0    0  0.17587756163E-01  0.39141593002E-02 -0.11920734620E-01  0.21604483881E-01  0.00000000000E+00 0. -1.
     999901    1    3    3    0    0  0.97447210294E-01 -0.46262367571E-01 -0.40516760499E-01  0.88751212574E+00  0.88000000000E+00 0. -1.
        -11    1    4    4    0    0 -0.76966959095E-01  0.26221518862E-01  0.44565710932E-01  0.92724562849E-01  0.51100000000E-03 0. -1.
         11    1    4    4    0    0 -0.38068007362E-01  0.16126689409E-01  0.78717841882E-02  0.42088827533E-01  0.51100000000E-03 0.  1.
</event>
<event>
 8    1  0.1054086E+005  0.1043930E+01  0.7957747E-01            NaN
         13   -1    0    0    0    0  0.00000000000E+00  0.00000000000E+00  0.74505805969E-08  0.10566000000E+00  0.10566000000E+00 0.  1.
     999900   -1    0    0    0    0 -0.00000000000E+00 -0.00000000000E+00 -0.74505805969E-08  0.93827000000E+00  0.93827000000E+00 0.  1.
     999902    2    1    2    0    0 -0.41698809685E-02 -0.10884515061E-01 -0.20368758489E-01  0.10204620027E+01  0.10201921153E+01 0.  0.
     999903    2    3    3    0    0  0.76641148539E-01 -0.10350696545E+00  0.16909304547E-01  0.13113698067E+00  0.17984036637E-01 0.  0.
         14    1    1    2    0    0  0.41698809685E-02  0.10884515061E-01  0.20368758489E-01  0.23467997311E-01  0.00000000000E+00 0.  1.
     999901    1    3    3    0    0 -0.80811029508E-01  0.92622450385E-01 -0.37278063036E-01  0.88932502202E+00  0.88000000000E+00 0.  1.
        -11    1    4    4    0    0  0.31343111522E-01 -0.29132472907E-01  0.24905373686E-02  0.42866718033E-01  0.51100000000E-03 0. -1.
         11    1    4    4    0    0  0.45298037018E-01 -0.74374492539E-01  0.14418767179E-01  0.88270262637E-01  0.51100000000E-03 0.  1.
</event>
<event>
 8    1  0.1054086E+005  0.1043930E+01  0.7957747E-01            NaN
         13   -1    0    0    0    0  0.00000000000E+00  0.00000000000E+00  0.74505805969E-08  0.10566000000E+00  0.10566000000E+00 0.  1.
     999900   -1    0    0    0    0 -0.00000000000E+00 -0.00000000000E+00 -0.74505805969E-08  0.93827000000E+00  0.93827000000E+00 0. -1.
     999902    2    1    2    0    0 -0.40343314193E-02 -0.18524766582E-01  0.13511567696E-01  0.10206489934E+01  0.10203834389E+01 0.  0.
     999903    2    3    3    0    0  0.12341390251E+00 -0.37706517386E-01  0.13084068868E-01  0.13126090339E+00  0.20136015311E-01 0.  0.
         14    1    1    2    0    0  0.40343314193E-02  0.18524766582E-01 -0.13511567696E-01  0.23281006605E-01  0.00000000000E+00 0. -1.
     999901    1    3    3    0    0 -0.12744823393E+00  0.19181750805E-01  0.42749882887E-03  0.88938809001E+00  0.88000000000E+00 0.  1.
        -11    1    4    4    0    0  0.10336307516E+00 -0.36708518150E-01  0.16395120425E-01  0.11090762691E+00  0.51100000000E-03 0. -1.
         11    1    4    4    0    0  0.20050827351E-01 -0.99799923620E-03 -0.33110515578E-02  0.20353276477E-01  0.51100000000E-03 0.  1.
</event>
<event>
 8    1  0.1054086E+005  0.1043930E+01  0.7957747E-01            NaN
         13   -1    0    0    0    0  0.00000000000E+00  0.00000000000E+00  0.74505805969E-08  0.10566000000E+00  0.10566000000E+00 0.  1.
     999900   -1    0    0    0    0 -0.00000000000E+00 -0.00000000000E+00 -0.74505805969E-08  0.93827000000E+00  0.93827000000E+00 0.  1.
     999902    2    1    2    0    0 -0.19875584051E-01 -0.11035065927E-01  0.15146368428E-01  0.10166128992E+01  0.10162458181E+01 0.  0.
     999903    2    3    3    0    0  0.11206830373E-01  0.27519425062E-01 -0.11973685803E+00  0.12495935095E+00  0.19874919325E-01 0.  0.
         14    1    1    2    0    0  0.19875584051E-01  0.11035065927E-01 -0.15146368428E-01  0.27317100833E-01  0.00000000000E+00 0.  1.
     999901    1    3    3    0    0 -0.31082414424E-01 -0.38554490989E-01  0.13488322645E+00  0.89165354821E+00  0.88000000000E+00 0. -1.
        -11    1    4    4    0    0  0.10580821847E-01  0.22543968622E-01 -0.59385406017E-01  0.64397763012E-01  0.51100000000E-03 0. -1.
         11    1    4    4    0    0  0.62600852611E-03  0.49754564405E-02 -0.60351452009E-01  0.60561587942E-01  0.51100000000E-03 0.  1.
</event>
<event>
 8    1  0.1054086E+005  0.1043930E+01  0.7957747E-01            NaN
         13   -1    0    0    0    0  0.00000000000E+00  0.00000000000E+00  0.74505805969E-08  0.10566000000E+00  0.10566000000E+00 0. -1.
     999900   -1    0    0    0    0 -0.00000000000E+00 -0.00000000000E+00 -0.74505805969E-08  0.93827000000E+00  0.93827000000E+00 0. -1.
     999902    2    1    2    0    0  0.15671069289E-01  0.12700744087E-01  0.13220800520E-01  0.10198119387E+01  0.10195267086E+01 0.  0.
     999903    2    3    3    0    0 -0.20222380891E-01 -0.32405521195E-01 -0.12028707060E+00  0.12787737466E+00  0.20605365865E-01 0.  0.
         14    1    1    2    0    0 -0.15671069289E-01 -0.12700744087E-01 -0.13220800520E-01  0.24118061270E-01  0.00000000000E+00 0.  1.
     999901    1    3    3    0    0  0.35893450179E-01  0.45106265282E-01  0.13350787112E+00  0.89193456407E+00  0.88000000000E+00 0.  1.
        -11    1    4    4    0    0 -0.20466514509E-01 -0.14789716008E-01 -0.60879057204E-01  0.65910049634E-01  0.51100000000E-03 0.  1.
         11    1    4    4    0    0  0.24413361854E-03 -0.17615805188E-01 -0.59408013400E-01  0.61967325025E-01  0.51100000000E-03 0. -1.
</event>
<event>
 8    1  0.1054086E+005  0.1043930E+01  0.7957747E-01            NaN
         13   -1    0    0    0    0  0.00000000000E+00  0.00000000000E+00  0.74505805969E-08  0.10566000000E+00  0.10566000000E+00 0.  1.
     999900   -1    0    0    0    0 -0.00000000000E+00 -0.00000000000E+00 -0.74505805969E-08  0.93827000000E+00  0.93827000000E+00 0.  1.
     999902    2    1    2    0    0  0.16835776943E-02 -0.51466161440E-02 -0.22619877643E-01  0.10206710027E+01  0.10204059559E+01 0.  0.
     999903    2    3    3    0    0  0.44805085954E-01 -0.82271694015E-01 -0.92847364568E-01  0.13346209717E+00  0.20380650365E-01 0.  0.
         14    1    1    2    0    0 -0.16835776943E-02  0.51466161440E-02  0.22619877643E-01  0.23258997316E-01  0.00000000000E+00 0.  1.
     999901    1    3    3    0    0 -0.43121508259E-01  0.77125077871E-01  0.70227486925E-01  0.88720890552E+00  0.88000000000E+00 0. -1.
        -11    1    4    4    0    0  0.36370444350E-01 -0.50136519509E-01 -0.67923127175E-01  0.91925470556E-01  0.51100000000E-03 0.  1.
         11    1    4    4    0    0  0.84346416038E-02 -0.32135174506E-01 -0.24924237392E-01  0.41536626610E-01  0.51100000000E-03 0. -1.
</event>
<event>
 8    1  0.1054086E+005  0.1043930E+01  0.7957747E-01            NaN
         13   -1    0    0    0    0  0.00000000000E+00  0.00000000000E+00  0.74505805969E-08  0.10566000000E+00  0.10566000000E+00 0.  1.
     999900   -1    0    0    0    0 -0.00000000000E+00 -0.00000000000E+00 -0.74505805969E-08  0.93827000000E+00  0.93827000000E+00 0. -1.
     999902    2    1    2    0    0  0.55650976066E-02 -0.63003727790E-03 -0.23425337293E-01  0.10198444507E+01  0.10195599982E+01 0.  0.
     999903    2    3    3    0    0 -0.76581963691E-01  0.10184899105E+00  0.11662241702E-01  0.12940566608E+00  0.19282229952E-01 0.  0.
         14    1    1    2    0    0 -0.55650976066E-02  0.63003727790E-03  0.23425337293E-01  0.24085549311E-01  0.00000000000E+00 0.  1.
     999901    1    3    3    0    0  0.82147061298E-01 -0.10247902833E+00 -0.35087578995E-01  0.89043878460E+00  0.88000000000E+00 0. -1.
        -11    1    4    4    0    0 -0.60192381555E-01  0.78729355978E-01  0.96260023922E-03  0.99109141910E-01  0.51100000000E-03 0. -1.
         11    1    4    4    0    0 -0.16389582136E-01  0.23119635076E-01  0.10699641463E-01  0.30296524175E-01  0.51100000000E-03 0.  1.
</event>
<event>
 8    1  0.1054086E+005  0.1043930E+01  0.7957747E-01            NaN
         13   -1    0    0    0    0  0.00000000000E+00  0.00000000000E+00  0.74505805969E-08  0.10566000000E+00  0.10566000000E+00 0. -1.
     999900   -1    0    0    0    0 -0.00000000000E+00 -0.00000000000E+00 -0.74505805969E-08  0.93827000000E+00  0.93827000000E+00 0.  1.
     999902    2    1    2    0    0 -0.22822354735E-01  0.27796469659E-03  0.88871074081E-02  0.10194367802E+01  0.10191424979E+01 0.  0.
     999903    2    3    3    0    0  0.85879515543E-01 -0.92365721132E-01  0.71175974629E-02  0.12792004992E+00  0.20153445083E-01 0.  0.
         14    1    1    2    0    0  0.22822354735E-01 -0.27796469659E-03 -0.88871074081E-02  0.24493219840E-01  0.00000000000E+00 0.  1.
     999901    1    3    3    0    0 -0.10870187028E+00  0.92643685829E-01  0.17695099452E-02  0.89151673024E+00  0.88000000000E+00 0.  1.
        -11    1    4    4    0    0  0.14482912597E-01 -0.25953019943E-01 -0.30470498880E-02  0.29880756942E-01  0.51100000000E-03 0.  1.
         11    1    4    4    0    0  0.71396602946E-01 -0.66412701190E-01  0.10164647351E-01  0.98039292982E-01  0.51100000000E-03 0. -1.
</event>
<event>
 8    1  0.1054086E+005  0.1043930E+01  0.7957747E-01            NaN
         13   -1    0    0    0    0  0.00000000000E+00  0.00000000000E+00  0.74505805969E-08  0.10566000000E+00  0.10566000000E+00 0.  1.
     999900   -1    0    0    0    0 -0.00000000000E+00 -0.00000000000E+00 -0.74505805969E-08  0.93827000000E+00  0.93827000000E+00 0.  1.
     999902    2    1    2    0    0 -0.55674998123E-02 -0.10113255254E-01 -0.17102226605E-01  0.10232960198E+01  0.10230879644E+01 0.  0.
     999903    2    3    3    0    0  0.11929244657E+00  0.33696981543E-01  0.40552438779E-01  0.13153741817E+00  0.17070961136E-01 0.  0.
         14    1    1    2    0    0  0.55674998123E-02  0.10113255254E-01  0.17102226605E-01  0.20633980247E-01  0.00000000000E+00 0. -1.
     999901    1    3    3    0    0 -0.12485994638E+00 -0.43810236798E-01 -0.57654665384E-01  0.89175860158E+00  0.88000000000E+00 0.  1.
        -11    1    4    4    0    0  0.25181112163E-01  0.23329754809E-02  0.30218175078E-02  0.25473980576E-01  0.51100000000E-03 0. -1.
         11    1    4    4    0    0  0.94111334406E-01  0.31364006063E-01  0.37530621271E-01  0.10606343759E+00  0.51100000000E-03 0.  1.
</event>
<event>
 8    1  0.1054086E+005  0.1043930E+01  0.7957747E-01            NaN
         13   -1    0    0    0    0  0.00000000000E+00  0.00000000000E+00  0.74505805969E-08  0.10566000000E+00  0.10566000000E+00 0.  1.
     999900   -1    0    0    0    0 -0.00000000000E+00 -0.00000000000E+00 -0.74505805969E-08  0.93827000000E+00  0.93827000000E+00 0. -1.
     999902    2    1    2    0    0  0.19240456646E-01 -0.11784040161E-01 -0.46355080652E-02  0.10208964004E+01  0.10206365238E+01 0.  0.
     999903    2    3    3    0    0 -0.33606823644E-01 -0.12223741569E+00 -0.31375711089E-01  0.13201630634E+00  0.19299365377E-01 0.  0.
         14    1    1    2    0    0 -0.19240456646E-01  0.11784040161E-01  0.46355080652E-02  0.23033599577E-01  0.00000000000E+00 0.  1.
     999901    1    3    3    0    0  0.52847280289E-01  0.11045337553E+00  0.26740203024E-01  0.88888009408E+00  0.88000000000E+00 0.  1.
        -11    1    4    4    0    0 -0.16035101430E-01 -0.29187253884E-01 -0.47093487895E-02  0.33637172209E-01  0.51100000000E-03 0.  1.
         11    1    4    4    0    0 -0.17571722214E-01 -0.93050161803E-01 -0.26666362299E-01  0.98379134131E-01  0.51100000000E-03 0. -1.
</event>
<event>
 8    1  0.1054086E+005  0.1043930E+01  0.7957747E-01            NaN
         13   -1    0    0    0    0  0.00000000000E+00  0.00000000000E+00  0.74505805969E-08  0.10566000000E+00  0.10566000000E+00 0.  1.
     999900   -1    0    0    0    0 -0.00000000000E+00 -0.00000000000E+00 -0.74505805969E-08  0.93827000000E+00  0.93827000000E+00 0. -1.
     999902    2    1    2    0    0 -0.77438126526E-02 -0.13136547470E-01  0.17705996130E-01  0.10205625480E+01  0.10202949949E+01 0.  0.
     999903    2    3    3    0    0  0.12392909274E+00  0.19048832865E-01 -0.23631154800E-01  0.12922511876E+00  0.20479789577E-01 0.  0.
         14    1    1    2    0    0  0.77438126526E-02  0.13136547470E-01 -0.17705996130E-01  0.23367451996E-01  0.00000000000E+00 0. -1.
     999901    1    3    3    0    0 -0.13167290539E+00 -0.32185380335E-01  0.41337150931E-01  0.89133742924E+00  0.88000000000E+00 0.  1.
        -11    1    4    4    0    0  0.10778726825E-01  0.11455404796E-02 -0.82639013422E-02  0.13639882747E-01  0.51100000000E-03 0. -1.
         11    1    4    4    0    0  0.11315036591E+00  0.17903292386E-01 -0.15367253458E-01  0.11558523601E+00  0.51100000000E-03 0.  1.
</event>
<event>
 8    1  0.1054086E+005  0.1043930E+01  0.7957747E-01            NaN
         13   -1    0    0    0    0  0.00000000000E+00  0.00000000000E+00  0.74505805969E-08  0.10566000000E+00  0.10566000000E+00 0. -1.
     999900   -1    0    0    0    0 -0.00000000000E+00 -0.00000000000E+00 -0.74505805969E-08  0.93827000000E+00  0.93827000000E+00 0.  1.
     999902    2    1    2    0    0 -0.45188254040E-02 -0.12246996941E-01  0.25242692711E-01  0.10155116564E+01  0.10151139454E+01 0.  0.
     999903    2    3    3    0    0 -0.10811942975E+00 -0.45088715626E-01 -0.42464031464E-01  0.12624461879E+00  0.20290550451E-01 0.  0.
         14    1    1    2    0    0  0.45188254040E-02  0.12246996941E-01 -0.25242692711E-01  0.28418343590E-01  0.00000000000E+00 0. -1.
     999901    1    3    3    0    0  0.10360060435E+00  0.32841718685E-01  0.67706724175E-01  0.88926703762E+00  0.88000000000E+00 0. -1.
        -11    1    4    4    0    0 -0.20039504297E-01 -0.67605356834E-02  0.15356068861E-03  0.21155880437E-01  0.51100000000E-03 0.  1.
         11    1    4    4    0    0 -0.88079925454E-01 -0.38328179943E-01 -0.42617592153E-01  0.10508873835E+00  0.51100000000E-03 0. -1.
</event>
<event>
 8    1  0.1054086E+005  0.1043930E+01  0.7957747E-01            NaN
         13   -1    0    0    0    0  0.00000000000E+00  0.00000000000E+00  0.74505805969E-08  0.10566000000E+00  0.10566000000E+00 0. -1.
     999900   -1    0    0    0    0 -0.00000000000E+00 -0.00000000000E+00 -0.74505805969E-08  0.93827000000E+00  0.93827000000E+00 0. -1.
     999902    2    1    2    0    0  0.18618294398E-01 -0.14098085406E-01  0.17788253305E-02  0.10205086184E+01  0.10202398145E+01 0.  0.
     999903    2    3    3    0    0  0.26833015707E-01  0.79960338328E-01 -0.96821128391E-01  0.12998269533E+00  0.20186721968E-01 0.  0.
         14    1    1    2    0    0 -0.18618294398E-01  0.14098085406E-01 -0.17788253305E-02  0.23421381641E-01  0.00000000000E+00 0. -1.
     999901    1    3    3    0    0 -0.82147213093E-02 -0.94058423734E-01  0.98599953721E-01  0.89052592303E+00  0.88000000000E+00 0.  1.
        -11    1    4    4    0    0  0.24360214746E-01  0.59021796027E-01 -0.83191142916E-01  0.10487144439E+00  0.51100000000E-03 0. -1.
         11    1    4    4    0    0  0.24728009613E-02  0.20938542301E-01 -0.13629985474E-01  0.25111250931E-01  0.51100000000E-03 0.  1.
</event>
<event>
 8    1  0.1054086E+005  0.1043930E+01  0.7957747E-01            NaN
         13   -1    0    0    0    0  0.00000000000E+00  0.00000000000E+00  0.74505805969E-08  0.10566000000E+00  0.10566000000E+00 0.  1.
     999900   -1    0    0    0    0 -0.00000000000E+00 -0.00000000000E+00 -0.74505805969E-08  0.93827000000E+00  0.93827000000E+00 0. -1.
     999902    2    1    2    0    0  0.21882277034E-02  0.83019426966E-02 -0.18089326327E-01  0.10239066556E+01  0.10237108503E+01 0.  0.
     999903    2    3    3    0    0 -0.11694266056E+00  0.60448802800E-01  0.12292265279E-01  0.13383109441E+00  0.20736885695E-01 0.  0.
         14    1    1    2    0    0 -0.21882277034E-02 -0.83019426966E-02  0.18089326327E-01  0.20023344376E-01  0.00000000000E+00 0.  1.
     999901    1    3    3    0    0  0.11913088826E+00 -0.52146860104E-01 -0.30381591606E-01  0.89007556121E+00  0.88000000000E+00 0.  1.
        -11    1    4    4    0    0 -0.83398908128E-01  0.32888584324E-01  0.48580128963E-02  0.89782505345E-01  0.51100000000E-03 0. -1.
         11    1    4    4    0    0 -0.33543752428E-01  0.27560218476E-01  0.74342523822E-02  0.44048589068E-01  0.51100000000E-03 0.  1.
</event>
<event>
 8    1  0.1054086E+005  0.1043930E+01  0.7957747E-01            NaN
         13   -1    0    0    0    0  0.00000000000E+00  0.00000000000E+00  0.74505805969E-08  0.10566000000E+00  0.10566000000E+00 0. -1.
     999900   -1    0    0    0    0 -0.00000000000E+00 -0.00000000000E+00 -0.74505805969E-08  0.93827000000E+00  0.93827000000E+00 0. -1.
     999902    2    1    2    0    0  0.95373051878E-02  0.20379251703E-01  0.12710933947E-01  0.10180873621E+01  0.10177593208E+01 0.  0.
     999903    2    3    3    0    0  0.63349732956E-01  0.15811933012E-01  0.11279836975E+00  0.13076885529E+00  0.10668430252E-01 0.  0.
         14    1    1    2    0    0 -0.95373051878E-02 -0.20379251703E-01 -0.12710933947E-01  0.25842637869E-01  0.00000000000E+00 0.  1.
     999901    1    3    3    0    0 -0.53812427768E-01  0.45673186902E-02 -0.10008743580E+00  0.88731850684E+00  0.88000000000E+00 0. -1.
        -11    1    4    4    0    0  0.97382296701E-02 -0.13623402864E-02  0.15811139586E-01  0.18626388383E-01  0.51100000000E-03 0. -1.
         11    1    4    4    0    0  0.53611503285E-01  0.17174273299E-01  0.96987230163E-01  0.11214246690E+00  0.51100000000E-03 0.  1.
</event>
<event>
 8    1  0.1054086E+005  0.1043930E+01  0.7957747E-01            NaN
         13   -1    0    0    0    0  0.00000000000E+00  0.00000000000E+00  0.74505805969E-08  0.10566000000E+00  0.10566000000E+00 0.  1.
     999900   -1    0    0    0    0 -0.00000000000E+00 -0.00000000000E+00 -0.74505805969E-08  0.93827000000E+00  0.93827000000E+00 0. -1.
     999902    2    1    2    0    0 -0.12409703946E-01  0.18147369629E-01  0.82702309615E-02  0.10204411836E+01  0.10201708115E+01 0.  0.
     999903    2    3    3    0    0  0.33866869837E-01 -0.56375263917E-01  0.11037425738E+00  0.13020504839E+00  0.21112618968E-01 0.  0.
         14    1    1    2    0    0  0.12409703946E-01 -0.18147369629E-01 -0.82702309615E-02  0.23488816416E-01  0.00000000000E+00 0. -1.
     999901    1    3    3    0    0 -0.46276573783E-01  0.74522633546E-01 -0.10210402642E+00  0.89023613519E+00  0.88000000000E+00 0. -1.
        -11    1    4    4    0    0  0.34404722701E-01 -0.43421299761E-01  0.96011764896E-01  0.11084951212E+00  0.51100000000E-03 0. -1.
         11    1    4    4    0    0 -0.53785286412E-03 -0.12953964157E-01  0.14362492485E-01  0.19355536274E-01  0.51100000000E-03 0.  1.
</event>
<event>
 8    1  0.1054086E+005  0.1043930E+01  0.7957747E-01            NaN
         13   -1    0    0    0    0  0.00000000000E+00  0.00000000000E+00  0.74505805969E-08  0.10566000000E+00  0.10566000000E+00 0. -1.
     999900   -1    0    0    0    0 -0.00000000000E+00 -0.00000000000E+00 -0.74505805969E-08  0.93827000000E+00  0.93827000000E+00 0. -1.
     999902    2    1    2    0    0  0.14467514287E-01  0.15093764011E-01 -0.11665160938E-01  0.10199882653E+01  0.10197072397E+01 0.  0.
     999903    2    3    3    0    0 -0.28241729323E-01 -0.11111414986E+00 -0.55485070532E-01  0.12888069518E+00  0.19689869564E-01 0.  0.
         14    1    1    2    0    0 -0.14467514287E-01 -0.15093764011E-01  0.11665160938E-01  0.23941734719E-01  0.00000000000E+00 0. -1.
     999901    1    3    3    0    0  0.42709243610E-01  0.12620791387E+00  0.43819909595E-01  0.89110757010E+00  0.88000000000E+00 0.  1.
        -11    1    4    4    0    0 -0.16867990543E-01 -0.57299124564E-01 -0.39453123803E-01  0.71585814793E-01  0.51100000000E-03 0.  1.
         11    1    4    4    0    0 -0.11373738780E-01 -0.53815025298E-01 -0.16031946729E-01  0.57294880387E-01  0.51100000000E-03 0. -1.
</event>
<event>
 8    1  0.1054086E+005  0.1043930E+01  0.7957747E-01            NaN
         13   -1    0    0    0    0  0.00000000000E+00  0.00000000000E+00  0.74505805969E-08  0.10566000000E+00  0.10566000000E+00 0. -1.
     999900   -1    0    0    0    0 -0.00000000000E+00 -0.00000000000E+00 -0.74505805969E-08  0.93827000000E+00  0.93827000000E+00 0.  1.
     999902    2    1    2    0    0  0.11344256878E-01 -0.20692816620E-01  0.30512766088E-02  0.10201351452E+01  0.10198575976E+01 0.  0.
     999903    2    3    3    0    0  0.46002015818E-01 -0.12238557284E+00  0.17543461114E-01  0.13348267650E+00  0.20382296233E-01 0.  0.
         14    1    1    2    0    0 -0.11344256878E-01  0.20692816620E-01 -0.30512766088E-02  0.23794854754E-01  0.00000000000E+00 0.  1.
     999901    1    3    3    0    0 -0.34657758940E-01  0.10169275622E+00 -0.14492184506E-01  0.88665246875E+00  0.88000000000E+00 0. -1.
        -11    1    4    4    0    0  0.31204250129E-01 -0.64088322998E-01  0.17893893085E-02  0.71305549615E-01  0.51100000000E-03 0. -1.
         11    1    4    4    0    0  0.14797765689E-01 -0.58297249840E-01  0.15754071806E-01  0.62177126885E-01  0.51100000000E-03 0.  1.
</event>
<event>
 8    1  0.1054086E+005  0.1043930E+01  0.7957747E-01            NaN
         13   -1    0    0    0    0  0.00000000000E+00  0.00000000000E+00  0.74505805969E-08  0.10566000000E+00  0.10566000000E+00 0. -1.
     999900   -1    0    0    0    0 -0.00000000000E+00 -0.00000000000E+00 -0.74505805969E-08  0.93827000000E+00  0.93827000000E+00 0.  1.
     999902    2    1    2    0    0  0.96352789470E-02  0.93844058135E-02  0.19707950727E-01  0.10200698031E+01  0.10197907110E+01 0.  0.
     999903    2    3    3    0    0 -0.25673207974E-01 -0.12547508029E+00 -0.69892573546E-03  0.12886263818E+00  0.14212024505E-01 0.  0.
         14    1    1    2    0    0 -0.96352789470E-02 -0.93844058135E-02 -0.19707950727E-01  0.23860196871E-01  0.00000000000E+00 0.  1.
     999901    1    3    3    0    0  0.35308486921E-01  0.13485948611E+00  0.20406876462E-01  0.89120716494E+00  0.88000000000E+00 0.  1.
        -11    1    4    4    0    0 -0.13126144372E-02 -0.38200366805E-01  0.88500856269E-03  0.38236570738E-01  0.51100000000E-03 0. -1.
         11    1    4    4    0    0 -0.24360593537E-01 -0.87274713488E-01 -0.15839342981E-02  0.90626067446E-01  0.51100000000E-03 0.  1.
</event>
<event>
 8    1  0.1054086E+005  0.1043930E+01  0.7957747E-01            NaN
         13   -1    0    0    0    0  0.00000000000E+00  0.00000000000E+00  0.74505805969E-08  0.10566000000E+00  0.10566000000E+00 0. -1.
     999900   -1    0    0    0    0 -0.00000000000E+00 -0.00000000000E+00 -0.74505805969E-08  0.93827000000E+00  0.93827000000E+00 0.  1.
     999902    2    1    2    0    0  0.10267438274E-01  0.19705046028E-01  0.76106001544E-02  0.10204431875E+01  0.10201728621E+01 0.  0.
     999903    2    3    3    0    0  0.73416768615E-01  0.93237156115E-01 -0.55914661541E-01  0.13284515458E+00  0.20933144183E-01 0.  0.
         14    1    1    2    0    0 -0.10267438274E-01 -0.19705046028E-01 -0.76106001544E-02  0.23486812521E-01  0.00000000000E+00 0.  1.
     999901    1    3    3    0    0 -0.63149330341E-01 -0.73532110087E-01  0.63525261696E-01  0.88759803290E+00  0.88000000000E+00 0. -1.
        -11    1    4    4    0    0  0.16923258360E-02  0.43756223816E-02  0.15986959816E-02  0.49826687430E-02  0.51100000000E-03 0. -1.
         11    1    4    4    0    0  0.71724442779E-01  0.88861533733E-01 -0.57513357523E-01  0.12786248584E+00  0.51100000000E-03 0.  1.
</event>
<event>
 8    1  0.1054086E+005  0.1043930E+01  0.7957747E-01            NaN
         13   -1    0    0    0    0  0.00000000000E+00  0.00000000000E+00  0.74505805969E-08  0.10566000000E+00  0.10566000000E+00 0. -1.
     999900   -1    0    0    0    0 -0.00000000000E+00 -0.00000000000E+00 -0.74505805969E-08  0.93827000000E+00  0.93827000000E+00 0. -1.
     999902    2    1    2    0    0 -0.19914540595E-01 -0.72790149712E-02 -0.41542151607E-02  0.10223237396E+01  0.10220953957E+01 0.  0.
     999903    2    3    3    0    0  0.35271605502E-01 -0.10046080364E+00 -0.76545591478E-01  0.13273458281E+00  0.20561679828E-01 0.  0.
         14    1    1    2    0    0  0.19914540595E-01  0.72790149712E-02  0.41542151607E-02  0.21606260428E-01  0.00000000000E+00 0. -1.
     999901    1    3    3    0    0 -0.55186146097E-01  0.93181788666E-01  0.72391376318E-01  0.88958915676E+00  0.88000000000E+00 0.  1.
        -11    1    4    4    0    0  0.11726191199E-01 -0.62225380346E-01 -0.48836379807E-01  0.79967209735E-01  0.51100000000E-03 0. -1.
         11    1    4    4    0    0  0.23545414302E-01 -0.38235423291E-01 -0.27709211672E-01  0.52767373077E-01  0.51100000000E-03 0.  1.
</event>
<event>
 8    1  0.1054086E+005  0.1043930E+01  0.7957747E-01            NaN
         13   -1    0    0    0    0  0.00000000000E+00  0.00000000000E+00  0.74505805969E-08  0.10566000000E+00  0.10566000000E+00 0.  1.
     999900   -1    0    0    0    0 -0.00000000000E+00 -0.00000000000E+00 -0.74505805969E-08  0.93827000000E+00  0.93827000000E+00 0. -1.
     999902    2    1    2    0    0  0.63561337590E-02 -0.23405727669E-01 -0.36694005337E-02  0.10194005682E+01  0.10191054045E+01 0.  0.
     999903    2    3    3    0    0 -0.46437855326E-01 -0.75297517811E-01  0.94276662809E-01  0.13087741460E+00  0.20362168486E-01 0.  0.
         14    1    1    2    0    0 -0.63561337590E-02  0.23405727669E-01  0.36694005337E-02  0.24529431798E-01  0.00000000000E+00 0. -1.
     999901    1    3    3    0    0  0.52793989085E-01  0.51891790142E-01 -0.97946063343E-01  0.88852315360E+00  0.88000000000E+00 0. -1.
        -11    1    4    4    0    0 -0.30295788792E-01 -0.64589076997E-01  0.76022254445E-01  0.10425558967E+00  0.51100000000E-03 0. -1.
         11    1    4    4    0    0 -0.16142066534E-01 -0.10708440814E-01  0.18254408364E-01  0.26621824925E-01  0.51100000000E-03 0.  1.
</event>
<event>
 8    1  0.1054086E+005  0.1043930E+01  0.7957747E-01            NaN
         13   -1    0    0    0    0  0.00000000000E+00  0.00000000000E+00  0.74505805969E-08  0.10566000000E+00  0.10566000000E+00 0.  1.
     999900   -1    0    0    0    0 -0.00000000000E+00 -0.00000000000E+00 -0.74505805969E-08  0.93827000000E+00  0.93827000000E+00 0. -1.
     999902    2    1    2    0    0  0.24916324913E-02 -0.47382067975E-02  0.23042251229E-01  0.10202740456E+01  0.10199997667E+01 0.  0.
     999903    2    3    3    0    0 -0.84708265451E-01 -0.12588347336E-01 -0.94097155813E-01  0.12820505300E+00  0.15757669810E-01 0.  0.
         14    1    1    2    0    0 -0.24916324913E-02  0.47382067975E-02 -0.23042251229E-01  0.23655954384E-01  0.00000000000E+00 0. -1.
     999901    1    3    3    0    0  0.87199897942E-01  0.78501405386E-02  0.11713940704E+00  0.89206899262E+00  0.88000000000E+00 0.  1.
        -11    1    4    4    0    0 -0.44454680007E-01 -0.12760658334E-02 -0.39892992196E-01  0.59745785340E-01  0.51100000000E-03 0.  1.
         11    1    4    4    0    0 -0.40253585444E-01 -0.11312281503E-01 -0.54204163618E-01  0.68459267659E-01  0.51100000000E-03 0. -1.
</event>
<event>
 8    1  0.1054086E+005  0.1043930E+01  0.7957747E-01            NaN
         13   -1    0    0    0    0  0.00000000000E+00  0.00000000000E+00  0.74505805969E-08  0.10566000000E+00  0.10566000000E+00 0.  1.
     999900   -1    0    0    0    0 -0.00000000000E+00 -0.00000000000E+00 -0.74505805969E-08  0.93827000000E+00  0.93827000000E+00 0.  1.
     999902    2    1    2    0    0  0.20200608582E-01  0.39538742951E-02 -0.11442903458E-01  0.10203792516E+01  0.10201074352E+01 0.  0.
     999903    2    3    3    0    0  0.11806330494E+00  0.19933507908E-01  0.53003770167E-01  0.13246831592E+00  0.20054085857E-01 0.  0.
         14    1    1    2    0    0 -0.20200608582E-01 -0.39538742951E-02  0.11442903458E-01  0.23550748366E-01  0.00000000000E+00 0.  1.
     999901    1    3    3    0    0 -0.97862696353E-01 -0.15979633613E-01 -0.64446673625E-01  0.88791093572E+00  0.88000000000E+00 0. -1.
        -11    1    4    4    0    0  0.55821048990E-01 -0.76762656626E-05  0.20468123855E-01  0.59457504021E-01  0.51100000000E-03 0.  1.
         11    1    4    4    0    0  0.62242255946E-01  0.19941184174E-01  0.32535646313E-01  0.73010811894E-01  0.51100000000E-03 0. -1.
</event>
<event>
 8    1  0.1054086E+005  0.1043930E+01  0.7957747E-01            NaN
         13   -1    0    0    0    0  0.00000000000E+00  0.00000000000E+00  0.74505805969E-08  0.10566000000E+00  0.10566000000E+00 0. -1.
     999900   -1    0    0    0    0 -0.00000000000E+00 -0.00000000000E+00 -0.74505805969E-08  0.93827000000E+00  0.93827000000E+00 0. -1.
     999902    2    1    2    0    0 -0.22323282213E-01 -0.76941151566E-02  0.12058908407E-01  0.10174168786E+01  0.10170713638E+01 0.  0.
     999903    2    3    3    0    0 -0.74062932548E-01  0.52096815591E-01  0.91564091247E-01  0.13030187986E+00  0.19879660864E-01 0.  0.
         14    1    1    2    0    0  0.22323282213E-01  0.76941151566E-02 -0.12058908407E-01  0.26513121446E-01  0.00000000000E+00 0.  1.
     999901    1    3    3    0    0  0.51739650335E-01 -0.59790930747E-01 -0.79505182840E-01  0.88711499870E+00  0.88000000000E+00 0. -1.
        -11    1    4    4    0    0 -0.47647670683E-01  0.44305252723E-01  0.67007994805E-01  0.93400152190E-01  0.51100000000E-03 0. -1.
         11    1    4    4    0    0 -0.26415261864E-01  0.77915628673E-02  0.24556096442E-01  0.36901727666E-01  0.51100000000E-03 0.  1.
</event>
<event>
 8    1  0.1054086E+005  0.1043930E+01  0.7957747E-01            NaN
         13   -1    0    0    0    0  0.00000000000E+00  0.00000000000E+00  0.74505805969E-08  0.10566000000E+00  0.10566000000E+00 0.  1.
     999900   -1    0    0    0    0 -0.00000000000E+00 -0.00000000000E+00 -0.74505805969E-08  0.93827000000E+00  0.93827000000E+00 0. -1.
     999902    2    1    2    0    0 -0.21077754684E-01  0.31957163779E-02 -0.78307504016E-02  0.10212186593E+01  0.10209660842E+01 0.  0.
     999903    2    3    3    0    0 -0.58871646797E-01 -0.11392195698E+00  0.24190305992E-01  0.13207847025E+00  0.20383040014E-01 0.  0.
         14    1    1    2    0    0  0.21077754684E-01 -0.31957163779E-02  0.78307504016E-02  0.22711340725E-01  0.00000000000E+00 0. -1.
     999901    1    3    3    0    0  0.37793892113E-01  0.11711767336E+00 -0.32021056394E-01  0.88914018903E+00  0.88000000000E+00 0.  1.
        -11    1    4    4    0    0 -0.40832041882E-02 -0.20515668551E-01 -0.80967878193E-03  0.20939959725E-01  0.51100000000E-03 0. -1.
         11    1    4    4    0    0 -0.54788442609E-01 -0.93406288428E-01  0.24999984774E-01  0.11113851052E+00  0.51100000000E-03 0.  1.
</event>
<event>
 8    1  0.1054086E+005  0.1043930E+01  0.7957747E-01            NaN
         13   -1    0    0    0    0  0.00000000000E+00  0.00000000000E+00  0.74505805969E-08  0.10566000000E+00  0.10566000000E+00 0.  1.
     999900   -1    0    0    0    0 -0.00000000000E+00 -0.00000000000E+00 -0.74505805969E-08  0.93827000000E+00  0.93827000000E+00 0.  1.
     999902    2    1    2    0    0  0.27988555193E-03  0.22322014470E-01  0.48662267442E-02  0.10210820060E+01  0.10208263477E+01 0.  0.
     999903    2    3    3    0    0  0.31586472826E-01  0.31455261876E-02  0.12655562652E+00  0.13194976045E+00  0.19667564075E-01 0.  0.
         14    1    1    2    0    0 -0.27988555193E-03 -0.22322014470E-01 -0.48662267442E-02  0.22847993975E-01  0.00000000000E+00 0.  1.
     999901    1    3    3    0    0 -0.31306587274E-01  0.19176488283E-01 -0.12168939978E+00  0.88913224558E+00  0.88000000000E+00 0.  1.
        -11    1    4    4    0    0  0.20372937452E-01 -0.20783863550E-02  0.10593653917E+00  0.10789896998E+00  0.51100000000E-03 0.  1.
         11    1    4    4    0    0  0.11213535374E-01  0.52239125427E-02  0.20619087356E-01  0.24050790470E-01  0.51100000000E-03 0. -1.
</event>
<event>
 8    1  0.1054086E+005  0.1043930E+01  0.7957747E-01            NaN
         13   -1    0    0    0    0  0.00000000000E+00  0.00000000000E+00  0.74505805969E-08  0.10566000000E+00  0.10566000000E+00 0. -1.
     999900   -1    0    0    0    0 -0.00000000000E+00 -0.00000000000E+00 -0.74505805969E-08  0.93827000000E+00  0.93827000000E+00 0. -1.
     999902    2    1    2    0    0  0.12328232533E-01  0.16451337524E-01  0.15592727226E-01  0.10181275783E+01  0.10178005702E+01 0.  0.
     999903    2    3    3    0    0 -0.11056303721E+00 -0.22280136605E-01  0.56276768514E-01  0.12781438481E+00  0.21186141830E-01 0.  0.
         14    1    1    2    0    0 -0.12328232533E-01 -0.16451337524E-01 -0.15592727226E-01  0.25802421709E-01  0.00000000000E+00 0. -1.
     999901    1    3    3    0    0  0.12289126975E+00  0.38731474128E-01 -0.40684041288E-01  0.89031319348E+00  0.88000000000E+00 0.  1.
        -11    1    4    4    0    0 -0.64491938546E-01 -0.19556352929E-01  0.24195224469E-01  0.71605384472E-01  0.51100000000E-03 0. -1.
         11    1    4    4    0    0 -0.46071098666E-01 -0.27237836762E-02  0.32081544046E-01  0.56209000340E-01  0.51100000000E-03 0.  1.
</event>
<event>
 8    1  0.1054086E+005  0.1043930E+01  0.7957747E-01            NaN
         13   -1    0    0    0    0  0.00000000000E+00  0.00000000000E+00  0.74505805969E-08  0.10566000000E+00  0.10566000000E+00 0. -1.
     999900   -1    0    0    0    0 -0.00000000000E+00 -0.00000000000E+00 -0.74505805969E-08  0.93827000000E+00  0.93827000000E+00 0.  1.
     999902    2    1    2    0    0  0.57643270537E-02  0.12662238373E-01 -0.19182860727E-01  0.10202331248E+01  0.10199578850E+01 0.  0.
     999903    2    3    3    0    0 -0.12308327107E+00 -0.33804673470E-01 -0.10740334362E-02  0.12945323784E+00  0.21557821683E-01 0.  0.
         14    1    1    2    0    0 -0.57643270537E-02 -0.12662238373E-01  0.19182860727E-01  0.23696875167E-01  0.00000000000E+00 0. -1.
     999901    1    3    3    0    0  0.12884759812E+00  0.46466911843E-01 -0.18108827290E-01  0.89077988699E+00  0.88000000000E+00 0.  1.
        -11    1    4    4    0    0 -0.56046241453E-01 -0.26471134968E-01 -0.17775528939E-02  0.62010668298E-01  0.51100000000E-03 0.  1.
         11    1    4    4    0    0 -0.67037029614E-01 -0.73335385020E-02  0.70351945770E-03  0.67442569546E-01  0.51100000000E-03 0. -1.
</event>
<event>
 8    1  0.1054086E+005  0.1043930E+01  0.7957747E-01            NaN
         13   -1    0    0    0    0  0.00000000000E+00  0.00000000000E+00  0.74505805969E-08  0.10566000000E+00  0.10566000000E+00 0.  1.
     999900   -1    0    0    0    0 -0.00000000000E+00 -0.00000000000E+00 -0.74505805969E-08  0.93827000000E+00  0.93827000000E+00 0. -1.
     999902    2    1    2    0    0  0.14897000120E-01 -0.10122472073E-01 -0.15644502919E-01  0.10200734385E+01  0.10197944325E+01 0.  0.
     999903    2    3    3    0    0  0.11510458793E+00  0.51913539035E-01 -0.33019354586E-01  0.13204646102E+00  0.20047653031E-01 0.  0.
         14    1    1    2    0    0 -0.14897000120E-01  0.10122472073E-01  0.15644502919E-01  0.23856561467E-01  0.00000000000E+00 0.  1.
     999901    1    3    3    0    0 -0.10020758781E+00 -0.62036011107E-01  0.17374851667E-01  0.88802697752E+00  0.88000000000E+00 0. -1.
        -11    1    4    4    0    0  0.81763653592E-01  0.39120197315E-01 -0.14429557837E-01  0.91783212773E-01  0.51100000000E-03 0.  1.
         11    1    4    4    0    0  0.33340934337E-01  0.12793341720E-01 -0.18589796749E-01  0.40263248242E-01  0.51100000000E-03 0. -1.
</event>
<event>
 8    1  0.1249258E+005  0.1043930E+01  0.7957747E-01            NaN
         13   -1    0    0    0    0  0.00000000000E+00  0.00000000000E+00  0.74505805969E-08  0.10566000000E+00  0.10566000000E+00 0.  1.
     999900   -1    0    0    0    0 -0.00000000000E+00 -0.00000000000E+00 -0.74505805969E-08  0.93827000000E+00  0.93827000000E+00 0. -1.
     999902    2    1    2    0    0  0.88134859291E-02  0.92664307494E-02  0.19744782175E-01  0.10204055298E+01  0.10201343268E+01 0.  0.
     999903    2    3    3    0    0  0.15801057501E-01 -0.41109733279E-01 -0.11866461040E+00  0.12813665556E+00  0.19950667849E-01 0.  0.
         14    1    1    2    0    0 -0.88134859291E-02 -0.92664307494E-02 -0.19744782175E-01  0.23524470158E-01  0.00000000000E+00 0. -1.
     999901    1    3    3    0    0 -0.69875715720E-02  0.50376164028E-01  0.13840939258E+00  0.89226887428E+00  0.88000000000E+00 0. -1.
        -11    1    4    4    0    0  0.90834293476E-03 -0.10388695086E-01 -0.54112456983E-01  0.55110518000E-01  0.51100000000E-03 0. -1.
         11    1    4    4    0    0  0.14892714566E-01 -0.30721038193E-01 -0.64552153420E-01  0.73026137560E-01  0.51100000000E-03 0.  1.
</event>
<event>
 8    1  0.1054086E+005  0.1043930E+01  0.7957747E-01            NaN
         13   -1    0    0    0    0  0.00000000000E+00  0.00000000000E+00  0.74505805969E-08  0.10566000000E+00  0.10566000000E+00 0. -1.
     999900   -1    0    0    0    0 -0.00000000000E+00 -0.00000000000E+00 -0.74505805969E-08  0.93827000000E+00  0.93827000000E+00 0. -1.
     999902    2    1    2    0    0  0.55914952813E-02 -0.10025623507E-01 -0.20663328898E-01  0.10202920833E+01  0.10200182273E+01 0.  0.
     999903    2    3    3    0    0  0.20744864432E-01  0.82744023185E-01  0.93036016242E-01  0.12801220956E+00  0.21319069045E-01 0.  0.
         14    1    1    2    0    0 -0.55914952813E-02  0.10025623507E-01  0.20663328898E-01  0.23637916730E-01  0.00000000000E+00 0. -1.
     999901    1    3    3    0    0 -0.15153369150E-01 -0.92769646692E-01 -0.11369934514E+00  0.89227987371E+00  0.88000000000E+00 0. -1.
        -11    1    4    4    0    0  0.23747042836E-01  0.53620041901E-01  0.62204210166E-01  0.85490676803E-01  0.51100000000E-03 0.  1.
         11    1    4    4    0    0 -0.30021784044E-02  0.29123981284E-01  0.30831806076E-01  0.42521532756E-01  0.51100000000E-03 0. -1.
</event>
<event>
 8    1  0.1054086E+005  0.1043930E+01  0.7957747E-01            NaN
         13   -1    0    0    0    0  0.00000000000E+00  0.00000000000E+00  0.74505805969E-08  0.10566000000E+00  0.10566000000E+00 0.  1.
     999900   -1    0    0    0    0 -0.00000000000E+00 -0.00000000000E+00 -0.74505805969E-08  0.93827000000E+00  0.93827000000E+00 0.  1.
     999902    2    1    2    0    0 -0.18615700826E-01  0.10816623709E-01  0.88241539177E-02  0.10206617951E+01  0.10203965360E+01 0.  0.
     999903    2    3    3    0    0 -0.82326925905E-01  0.90235376470E-01 -0.48404538577E-01  0.13294473337E+00  0.20277003719E-01 0.  0.
         14    1    1    2    0    0  0.18615700826E-01 -0.10816623709E-01 -0.88241539177E-02  0.23268204874E-01  0.00000000000E+00 0. -1.
     999901    1    3    3    0    0  0.63711225079E-01 -0.79418752761E-01  0.57228692495E-01  0.88771706176E+00  0.88000000000E+00 0. -1.
        -11    1    4    4    0    0 -0.63074130437E-01  0.69120881822E-01 -0.27486905989E-01  0.97528628392E-01  0.51100000000E-03 0.  1.
         11    1    4    4    0    0 -0.19252795468E-01  0.21114494648E-01 -0.20917632588E-01  0.35416104976E-01  0.51100000000E-03 0. -1.
</event>
<event>
 8    1  0.1054086E+005  0.1043930E+01  0.7957747E-01            NaN
         13   -1    0    0    0    0  0.00000000000E+00  0.00000000000E+00  0.74505805969E-08  0.10566000000E+00  0.10566000000E+00 0.  1.
     999900   -1    0    0    0    0 -0.00000000000E+00 -0.00000000000E+00 -0.74505805969E-08  0.93827000000E+00  0.93827000000E+00 0.  1.
     999902    2    1    2    0    0  0.17447641129E-01 -0.16412419349E-02  0.16580749458E-01  0.10198045962E+01  0.10195191903E+01 0.  0.
     999903    2    3    3    0    0 -0.58037534278E-01  0.32469670709E-01  0.11069855910E+00  0.13091780467E+00  0.21509665045E-01 0.  0.
         14    1    1    2    0    0 -0.17447641129E-01  0.16412419349E-02 -0.16580749458E-01  0.24125403802E-01  0.00000000000E+00 0.  1.
     999901    1    3    3    0    0  0.75485175407E-01 -0.34110912644E-01 -0.94117809643E-01  0.88888679153E+00  0.88000000000E+00 0.  1.
        -11    1    4    4    0    0 -0.32658519662E-01  0.25290437642E-01  0.82737558907E-01  0.92476753390E-01  0.51100000000E-03 0.  1.
         11    1    4    4    0    0 -0.25379014617E-01  0.71792330673E-02  0.27961000194E-01  0.38441051276E-01  0.51100000000E-03 0. -1.
</event>
<event>
 8    1  0.1054086E+005  0.1043930E+01  0.7957747E-01            NaN
         13   -1    0    0    0    0  0.00000000000E+00  0.00000000000E+00  0.74505805969E-08  0.10566000000E+00  0.10566000000E+00 0.  1.
     999900   -1    0    0    0    0 -0.00000000000E+00 -0.00000000000E+00 -0.74505805969E-08  0.93827000000E+00  0.93827000000E+00 0.  1.
     999902    2    1    2    0    0 -0.86252125939E-03 -0.14214218178E-01  0.19086199759E-01  0.10201167482E+01  0.10198387661E+01 0.  0.
     999903    2    3    3    0    0  0.60705060166E-01  0.17471729856E-01 -0.10955411004E+00  0.12807252523E+00  0.20251000379E-01 0.  0.
         14    1    1    2    0    0  0.86252125939E-03  0.14214218178E-01 -0.19086199759E-01  0.23813251827E-01  0.00000000000E+00 0. -1.
     999901    1    3    3    0    0 -0.61567581425E-01 -0.31685948034E-01  0.12864030980E+00  0.89204422295E+00  0.88000000000E+00 0. -1.
        -11    1    4    4    0    0  0.50929297217E-01  0.68252895765E-02 -0.78615759531E-01  0.93920586989E-01  0.51100000000E-03 0. -1.
         11    1    4    4    0    0  0.97757629495E-02  0.10646440279E-01 -0.30938350514E-01  0.34151938238E-01  0.51100000000E-03 0.  1.
</event>
<event>
 8    1  0.1054086E+005  0.1043930E+01  0.7957747E-01            NaN
         13   -1    0    0    0    0  0.00000000000E+00  0.00000000000E+00  0.74505805969E-08  0.10566000000E+00  0.10566000000E+00 0.  1.
     999900   -1    0    0    0    0 -0.00000000000E+00 -0.00000000000E+00 -0.74505805969E-08  0.93827000000E+00  0.93827000000E+00 0.  1.
     999902    2    1    2    0    0  0.20333135517E-01 -0.25128823949E-02  0.11364244650E-01  0.10205014483E+01  0.10202324779E+01 0.  0.
     999903    2    3    3    0    0  0.10233297434E+00 -0.10757413898E-01  0.83530900272E-01  0.13370949297E+00  0.17693434347E-01 0.  0.
         14    1    1    2    0    0 -0.20333135517E-01  0.25128823949E-02 -0.11364244650E-01  0.23428551692E-01  0.00000000000E+00 0. -1.
     999901    1    3    3    0    0 -0.81999838825E-01  0.82445315035E-02 -0.72166655622E-01  0.88679195534E+00  0.88000000000E+00 0.  1.
        -11    1    4    4    0    0  0.32522858503E-01  0.21991245099E-02  0.34210695274E-01  0.47256801267E-01  0.51100000000E-03 0.  1.
         11    1    4    4    0    0  0.69810115839E-01 -0.12956538408E-01  0.49320204997E-01  0.86452691704E-01  0.51100000000E-03 0. -1.
</event>
<event>
 8    1  0.1054086E+005  0.1043930E+01  0.7957747E-01            NaN
         13   -1    0    0    0    0  0.00000000000E+00  0.00000000000E+00  0.74505805969E-08  0.10566000000E+00  0.10566000000E+00 0. -1.
     999900   -1    0    0    0    0 -0.00000000000E+00 -0.00000000000E+00 -0.74505805969E-08  0.93827000000E+00  0.93827000000E+00 0. -1.
     999902    2    1    2    0    0  0.47086510195E-02  0.20280829134E-01 -0.12416070359E-01  0.10196886670E+01  0.10194004784E+01 0.  0.
     999903    2    3    3    0    0 -0.23563211526E-01  0.60979665633E-01  0.11091407789E+00  0.12970775762E+00  0.15761508643E-01 0.  0.
         14    1    1    2    0    0 -0.47086510195E-02 -0.20280829134E-01  0.12416070359E-01  0.24241333047E-01  0.00000000000E+00 0. -1.
     999901    1    3    3    0    0  0.28271862546E-01 -0.40698836499E-01 -0.12333014825E+00  0.88998090933E+00  0.88000000000E+00 0. -1.
        -11    1    4    4    0    0 -0.93857848500E-02  0.33155876229E-01  0.44219577878E-01  0.56062797598E-01  0.51100000000E-03 0. -1.
         11    1    4    4    0    0 -0.14177426676E-01  0.27823789404E-01  0.66694500014E-01  0.73644960025E-01  0.51100000000E-03 0.  1.
</event>
<event>
 8    1  0.1054086E+005  0.1043930E+01  0.7957747E-01            NaN
         13   -1    0    0    0    0  0.00000000000E+00  0.00000000000E+00  0.74505805969E-08  0.10566000000E+00  0.10566000000E+00 0.  1.
     999900   -1    0    0    0    0 -0.00000000000E+00 -0.00000000000E+00 -0.74505805969E-08  0.93827000000E+00  0.93827000000E+00 0.  1.
     999902    2    1    2    0    0 -0.30004856596E-02  0.14585196316E-01 -0.19500297661E-01  0.10193944651E+01  0.10190991526E+01 0.  0.
     999903    2    3    3    0    0 -0.31384689621E-01 -0.39565101862E-01  0.11538686905E+00  0.12701984330E+00  0.16416912484E-01 0.  0.
         14    1    1    2    0    0  0.30004856596E-02 -0.14585196316E-01  0.19500297661E-01  0.24535534937E-01  0.00000000000E+00 0.  1.
     999901    1    3    3    0    0  0.28384203962E-01  0.54150298178E-01 -0.13488716671E+00  0.89237462176E+00  0.88000000000E+00 0.  1.
        -11    1    4    4    0    0 -0.76743970815E-02 -0.17354007089E-02  0.11487346199E-01  0.13932990701E-01  0.51100000000E-03 0. -1.
         11    1    4    4    0    0 -0.23710292540E-01 -0.37829701153E-01  0.10389952285E+00  0.11308685260E+00  0.51100000000E-03 0.  1.
</event>
<event>
 8    1  0.1054086E+005  0.1043930E+01  0.7957747E-01            NaN
         13   -1    0    0    0    0  0.00000000000E+00  0.00000000000E+00  0.74505805969E-08  0.10566000000E+00  0.10566000000E+00 0. -1.
     999900   -1    0    0    0    0 -0.00000000000E+00 -0.00000000000E+00 -0.74505805969E-08  0.93827000000E+00  0.93827000000E+00 0. -1.
     999902    2    1    2    0    0  0.14728920395E-01 -0.65796886388E-02  0.16202967310E-01  0.10210658458E+01  0.10208098216E+01 0.  0.
     999903    2    3    3    0    0  0.77527533037E-01 -0.97952687512E-01  0.43602073488E-01  0.13368576842E+00  0.19117962656E-01 0.  0.
         14    1    1    2    0    0 -0.14728920395E-01  0.65796886388E-02 -0.16202967310E-01  0.22864154221E-01  0.00000000000E+00 0.  1.
     999901    1    3    3    0    0 -0.62798612642E-01  0.91372998874E-01 -0.27399106178E-01  0.88738007736E+00  0.88000000000E+00 0. -1.
        -11    1    4    4    0    0  0.48946663806E-01 -0.55528331690E-01  0.16685398227E-01  0.75880400322E-01  0.51100000000E-03 0. -1.
         11    1    4    4    0    0  0.28580869231E-01 -0.42424355822E-01  0.26916675261E-01  0.57805368099E-01  0.51100000000E-03 0.  1.
</event>
<event>
 8    1  0.1054086E+005  0.1043930E+01  0.7957747E-01            NaN
         13   -1    0    0    0    0  0.00000000000E+00  0.00000000000E+00  0.74505805969E-08  0.10566000000E+00  0.10566000000E+00 0.  1.
     999900   -1    0    0    0    0 -0.00000000000E+00 -0.00000000000E+00 -0.74505805969E-08  0.93827000000E+00  0.93827000000E+00 0.  1.
     999902    2    1    2    0    0  0.65578532490E-02 -0.17594846720E-01  0.76338426917E-02  0.10236603275E+01  0.10234596262E+01 0.  0.
     999903    2    3    3    0    0  0.12167169432E+00 -0.39374853111E-01 -0.37219574617E-01  0.13476359886E+00  0.20531697153E-01 0.  0.
         14    1    1    2    0    0 -0.65578532490E-02  0.17594846720E-01 -0.76338426917E-02  0.20269672533E-01  0.00000000000E+00 0. -1.
     999901    1    3    3    0    0 -0.11511384107E+00  0.21780006391E-01  0.44853417309E-01  0.88889672861E+00  0.88000000000E+00 0.  1.
        -11    1    4    4    0    0  0.50668660903E-01 -0.12620580615E-01 -0.54493199989E-02  0.52502842420E-01  0.51100000000E-03 0. -1.
         11    1    4    4    0    0  0.71003033413E-01 -0.26754272496E-01 -0.31770254618E-01  0.82260756440E-01  0.51100000000E-03 0.  1.
</event>
<event>
 8    1  0.1393223E+005  0.1043930E+01  0.7957747E-01            NaN
         13   -1    0    0    0    0  0.00000000000E+00  0.00000000000E+00  0.74505805969E-08  0.10566000000E+00  0.10566000000E+00 0.  1.
     999900   -1    0    0    0    0 -0.00000000000E+00 -0.00000000000E+00 -0.74505805969E-08  0.93827000000E+00  0.93827000000E+00 0.  1.
     999902    2    1    2    0    0  0.12581233056E-01  0.18599205869E-01 -0.10411442589E-01  0.10191789188E+01  0.10188783306E+01 0.  0.
     999903    2    3    3    0    0  0.19773015059E-01  0.47258820680E-01  0.11700090197E+00  0.12951212679E+00  0.21443219603E-01 0.  0.
         14    1    1    2    0    0 -0.12581233056E-01 -0.18599205869E-01  0.10411442589E-01  0.24751081208E-01  0.00000000000E+00 0.  1.
     999901    1    3    3    0    0 -0.71917820030E-02 -0.28659614811E-01 -0.12741234456E+00  0.88966679200E+00  0.88000000000E+00 0.  1.
        -11    1    4    4    0    0  0.15452133111E-01  0.35538740198E-01  0.62064974038E-01  0.73171665253E-01  0.51100000000E-03 0. -1.
         11    1    4    4    0    0  0.43208819479E-02  0.11720080482E-01  0.54935927931E-01  0.56340461535E-01  0.51100000000E-03 0.  1.
</event>
<event>
 8    1  0.1054086E+005  0.1043930E+01  0.7957747E-01            NaN
         13   -1    0    0    0    0  0.00000000000E+00  0.00000000000E+00  0.74505805969E-08  0.10566000000E+00  0.10566000000E+00 0.  1.
     999900   -1    0    0    0    0 -0.00000000000E+00 -0.00000000000E+00 -0.74505805969E-08  0.93827000000E+00  0.93827000000E+00 0. -1.
     999902    2    1    2    0    0 -0.16529283732E-01  0.15772888006E-01  0.55955401788E-02  0.10204074303E+01  0.10201362715E+01 0.  0.
     999903    2    3    3    0    0  0.49841631625E-01 -0.22236335610E-01  0.11651170644E+00  0.13015342415E+00  0.19654343416E-01 0.  0.
         14    1    1    2    0    0  0.16529283732E-01 -0.15772888006E-01 -0.55955401788E-02  0.23522569728E-01  0.00000000000E+00 0. -1.
     999901    1    3    3    0    0 -0.66370915357E-01  0.38009223616E-01 -0.11091616626E+00  0.89025400613E+00  0.88000000000E+00 0. -1.
        -11    1    4    4    0    0  0.27681309376E-01 -0.34572495817E-02  0.69476349651E-01  0.74869431314E-01  0.51100000000E-03 0. -1.
         11    1    4    4    0    0  0.22160322249E-01 -0.18779086028E-01  0.47035356788E-01  0.55283992832E-01  0.51100000000E-03 0.  1.
</event>
<event>
 8    1  0.1054086E+005  0.1043930E+01  0.7957747E-01            NaN
         13   -1    0    0    0    0  0.00000000000E+00  0.00000000000E+00  0.74505805969E-08  0.10566000000E+00  0.10566000000E+00 0.  1.
     999900   -1    0    0    0    0 -0.00000000000E+00 -0.00000000000E+00 -0.74505805969E-08  0.93827000000E+00  0.93827000000E+00 0.  1.
     999902    2    1    2    0    0 -0.14491357400E-01 -0.89100856937E-02  0.16342434030E-01  0.10203405062E+01  0.10200677842E+01 0.  0.
     999903    2    3    3    0    0  0.12394034131E+00  0.15887393788E-01 -0.21625642717E-01  0.12836526832E+00  0.19908696639E-01 0.  0.
         14    1    1    2    0    0  0.14491357400E-01  0.89100856937E-02 -0.16342434030E-01  0.23589493771E-01  0.00000000000E+00 0. -1.
     999901    1    3    3    0    0 -0.13843169871E+00 -0.24797479481E-01  0.37968076747E-01  0.89197523791E+00  0.88000000000E+00 0. -1.
        -11    1    4    4    0    0  0.51571305001E-01 -0.13942349362E-02 -0.14655912545E-01  0.53633947124E-01  0.51100000000E-03 0. -1.
         11    1    4    4    0    0  0.72369036308E-01  0.17281628724E-01 -0.69697301721E-02  0.74731321192E-01  0.51100000000E-03 0.  1.
</event>
<event>
 8    1  0.1054086E+005  0.1043930E+01  0.7957747E-01            NaN
         13   -1    0    0    0    0  0.00000000000E+00  0.00000000000E+00  0.74505805969E-08  0.10566000000E+00  0.10566000000E+00 0. -1.
     999900   -1    0    0    0    0 -0.00000000000E+00 -0.00000000000E+00 -0.74505805969E-08  0.93827000000E+00  0.93827000000E+00 0.  1.
     999902    2    1    2    0    0 -0.86624850972E-02  0.19811975281E-01 -0.68545296739E-02  0.10212465790E+01  0.10209946315E+01 0.  0.
     999903    2    3    3    0    0  0.12492354075E+00  0.29121375072E-01  0.16622316604E-01  0.13080676992E+00  0.19497798020E-01 0.  0.
         14    1    1    2    0    0  0.86624850972E-02 -0.19811975281E-01  0.68545296739E-02  0.22683421030E-01  0.00000000000E+00 0. -1.
     999901    1    3    3    0    0 -0.13358602585E+00 -0.93093997916E-02 -0.23476846278E-01  0.89043980905E+00  0.88000000000E+00 0.  1.
        -11    1    4    4    0    0  0.46915931790E-01  0.15846140042E-01 -0.18181180171E-02  0.49555741182E-01  0.51100000000E-03 0. -1.
         11    1    4    4    0    0  0.78007608963E-01  0.13275235031E-01  0.18440434621E-01  0.81251028740E-01  0.51100000000E-03 0.  1.
</event>
<event>
 8    1  0.1054086E+005  0.1043930E+01  0.7957747E-01            NaN
         13   -1    0    0    0    0  0.00000000000E+00  0.00000000000E+00  0.74505805969E-08  0.10566000000E+00  0.10566000000E+00 0.  1.
     999900   -1    0    0    0    0 -0.00000000000E+00 -0.00000000000E+00 -0.74505805969E-08  0.93827000000E+00  0.93827000000E+00 0. -1.
     999902    2    1    2    0    0  0.88940099040E-02  0.17506862776E-01  0.14822348690E-01  0.10193272425E+01  0.10190302898E+01 0.  0.
     999903    2    3    3    0    0 -0.83997667469E-01  0.94505319748E-01 -0.24183658641E-01  0.13023832978E+00  0.19756254628E-01 0.  0.
         14    1    1    2    0    0 -0.88940099040E-02 -0.17506862776E-01 -0.14822348690E-01  0.24602757510E-01  0.00000000000E+00 0. -1.
     999901    1    3    3    0    0  0.92891677373E-01 -0.76998456973E-01  0.39006007330E-01  0.88908891271E+00  0.88000000000E+00 0.  1.
        -11    1    4    4    0    0 -0.53221559278E-01  0.61489789776E-01 -0.25037411239E-01  0.85092077782E-01  0.51100000000E-03 0. -1.
         11    1    4    4    0    0 -0.30776108190E-01  0.33015529972E-01  0.85375259817E-03  0.45146251995E-01  0.51100000000E-03 0.  1.
</event>
<event>
 8    1  0.1054086E+005  0.1043930E+01  0.7957747E-01            NaN
         13   -1    0    0    0    0  0.00000000000E+00  0.00000000000E+00  0.74505805969E-08  0.10566000000E+00  0.10566000000E+00 0.  1.
     999900   -1    0    0    0    0 -0.00000000000E+00 -0.00000000000E+00 -0.74505805969E-08  0.93827000000E+00  0.93827000000E+00 0. -1.
     999902    2    1    2    0    0  0.13941675361E-01 -0.19331209665E-01  0.38124504696E-02  0.10197928759E+01  0.10195071893E+01 0.  0.
     999903    2    3    3    0    0  0.10132105865E+00  0.65340359789E-02  0.81567225151E-01  0.13167690799E+00  0.19415079888E-01 0.  0.
         14    1    1    2    0    0 -0.13941675361E-01  0.19331209665E-01 -0.38124504696E-02  0.24137124054E-01  0.00000000000E+00 0. -1.
     999901    1    3    3    0    0 -0.87379383286E-01 -0.25865245644E-01 -0.77754774681E-01  0.88811596796E+00  0.88000000000E+00 0.  1.
        -11    1    4    4    0    0  0.18596469941E-01  0.69245618200E-02  0.97037654512E-02  0.22095303473E-01  0.51100000000E-03 0. -1.
         11    1    4    4    0    0  0.82724588707E-01 -0.39052584113E-03  0.71863459700E-01  0.10958160452E+00  0.51100000000E-03 0.  1.
</event>
<event>
 8    1  0.1054086E+005  0.1043930E+01  0.7957747E-01            NaN
         13   -1    0    0    0    0  0.00000000000E+00  0.00000000000E+00  0.74505805969E-08  0.10566000000E+00  0.10566000000E+00 0.  1.
     999900   -1    0    0    0    0 -0.00000000000E+00 -0.00000000000E+00 -0.74505805969E-08  0.93827000000E+00  0.93827000000E+00 0. -1.
     999902    2    1    2    0    0  0.12104397130E-02 -0.35290309797E-01  0.10661488943E-01  0.10070445221E+01  0.10063687848E+01 0.  0.
     999903    2    3    3    0    0 -0.23222573945E-01 -0.11352346087E+00  0.36189607816E-01  0.12286745677E+00  0.18969979199E-01 0.  0.
         14    1    1    2    0    0 -0.12104397130E-02  0.35290309797E-01 -0.10661488943E-01  0.36885477852E-01  0.00000000000E+00 0.  1.
     999901    1    3    3    0    0  0.24433013658E-01  0.78233151075E-01 -0.25528118873E-01  0.88417706538E+00  0.88000000000E+00 0. -1.
        -11    1    4    4    0    0 -0.12560184544E-01 -0.57867405835E-01  0.86013364526E-02  0.59838440852E-01  0.51100000000E-03 0.  1.
         11    1    4    4    0    0 -0.10662389401E-01 -0.55656055038E-01  0.27588271363E-01  0.63029015920E-01  0.51100000000E-03 0. -1.
</event>
<event>
 8    1  0.1054086E+005  0.1043930E+01  0.7957747E-01            NaN
         13   -1    0    0    0    0  0.00000000000E+00  0.00000000000E+00  0.74505805969E-08  0.10566000000E+00  0.10566000000E+00 0. -1.
     999900   -1    0    0    0    0 -0.00000000000E+00 -0.00000000000E+00 -0.74505805969E-08  0.93827000000E+00  0.93827000000E+00 0.  1.
     999902    2    1    2    0    0 -0.14752600245E-01  0.26204040800E-02 -0.17477811084E-01  0.10209087139E+01  0.10206491183E+01 0.  0.
     999903    2    3    3    0    0  0.24456405859E-01 -0.10814285235E+00  0.63765929281E-01  0.12938956637E+00  0.19559495055E-01 0.  0.
         14    1    1    2    0    0  0.14752600245E-01 -0.26204040800E-02  0.17477811084E-01  0.23021286059E-01  0.00000000000E+00 0. -1.
     999901    1    3    3    0    0 -0.39209006104E-01  0.11076325643E+00 -0.81243740366E-01  0.89151914757E+00  0.88000000000E+00 0.  1.
        -11    1    4    4    0    0  0.20826871872E-01 -0.63022137131E-01  0.46005764313E-01  0.80761004399E-01  0.51100000000E-03 0.  1.
         11    1    4    4    0    0  0.36295339876E-02 -0.45120715218E-01  0.17760164969E-01  0.48628561972E-01  0.51100000000E-03 0. -1.
</event>
<event>
 8    1  0.1054086E+005  0.1043930E+01  0.7957747E-01            NaN
         13   -1    0    0    0    0  0.00000000000E+00  0.00000000000E+00  0.74505805969E-08  0.10566000000E+00  0.10566000000E+00 0. -1.
     999900   -1    0    0    0    0 -0.00000000000E+00 -0.00000000000E+00 -0.74505805969E-08  0.93827000000E+00  0.93827000000E+00 0.  1.
     999902    2    1    2    0    0  0.17200212301E-01 -0.14765239539E-01  0.30305795657E-02  0.10210598445E+01  0.10208036843E+01 0.  0.
     999903    2    3    3    0    0  0.80471781290E-01  0.85259776999E-01 -0.55527177183E-01  0.13120743746E+00  0.19677069913E-01 0.  0.
         14    1    1    2    0    0 -0.17200212301E-01  0.14765239539E-01 -0.30305795657E-02  0.22870155539E-01  0.00000000000E+00 0.  1.
     999901    1    3    3    0    0 -0.63271568988E-01 -0.10002501654E+00  0.58557756749E-01  0.88985240700E+00  0.88000000000E+00 0. -1.
        -11    1    4    4    0    0  0.25928152645E-01  0.40132171494E-01 -0.17812489617E-01  0.50994178058E-01  0.51100000000E-03 0. -1.
         11    1    4    4    0    0  0.54543628645E-01  0.45127605505E-01 -0.37714687566E-01  0.80213259400E-01  0.51100000000E-03 0.  1.
</event>
<event>
 8    1  0.1054086E+005  0.1043930E+01  0.7957747E-01            NaN
         13   -1    0    0    0    0  0.00000000000E+00  0.00000000000E+00  0.74505805969E-08  0.10566000000E+00  0.10566000000E+00 0. -1.
     999900   -1    0    0    0    0 -0.00000000000E+00 -0.00000000000E+00 -0.74505805969E-08  0.93827000000E+00  0.93827000000E+00 0.  1.
     999902    2    1    2    0    0 -0.15704906452E-02  0.17065208430E-01 -0.14642291921E-01  0.10213892704E+01  0.10211405178E+01 0.  0.
     999903    2    3    3    0    0  0.12853865212E+00  0.61576846132E-02  0.16994864500E-01  0.13119363301E+00  0.19048405567E-01 0.  0.
         14    1    1    2    0    0  0.15704906452E-02 -0.17065208430E-01  0.14642291921E-01  0.22540729631E-01  0.00000000000E+00 0. -1.
     999901    1    3    3    0    0 -0.13010914276E+00  0.10907523817E-01 -0.31637156420E-01  0.89019563736E+00  0.88000000000E+00 0. -1.
        -11    1    4    4    0    0  0.70558613803E-01 -0.51389340460E-02  0.13452828709E-01  0.72015042499E-01  0.51100000000E-03 0.  1.
         11    1    4    4    0    0  0.57980038316E-01  0.11296618659E-01  0.35420357902E-02  0.59178590510E-01  0.51100000000E-03 0. -1.
</event>
<event>
 8    1  0.1054086E+005  0.1043930E+01  0.7957747E-01            NaN
         13   -1    0    0    0    0  0.00000000000E+00  0.00000000000E+00  0.74505805969E-08  0.10566000000E+00  0.10566000000E+00 0.  1.
     999900   -1    0    0    0    0 -0.00000000000E+00 -0.00000000000E+00 -0.74505805969E-08  0.93827000000E+00  0.93827000000E+00 0.  1.
     999902    2    1    2    0    0 -0.68695011908E-04  0.20401278835E-01 -0.10996427421E-01  0.10207537554E+01  0.10204906128E+01 0.  0.
     999903    2    3    3    0    0 -0.23362651573E-01  0.13012697499E+00  0.41295150829E-03  0.13356014028E+00  0.18955142680E-01 0.  0.
         14    1    1    2    0    0  0.68695011908E-04 -0.20401278835E-01  0.10996427421E-01  0.23176244587E-01  0.00000000000E+00 0.  1.
     999901    1    3    3    0    0  0.23293956561E-01 -0.10972569615E+00 -0.11409378930E-01  0.88719361513E+00  0.88000000000E+00 0.  1.
        -11    1    4    4    0    0 -0.16730815934E-01  0.73918347253E-01  0.89599180280E-02  0.76317648774E-01  0.51100000000E-03 0.  1.
         11    1    4    4    0    0 -0.66318356393E-02  0.56208627736E-01 -0.85469665197E-02  0.57242491504E-01  0.51100000000E-03 0. -1.
</event>
<event>
 8    1  0.1054086E+005  0.1043930E+01  0.7957747E-01            NaN
         13   -1    0    0    0    0  0.00000000000E+00  0.00000000000E+00  0.74505805969E-08  0.10566000000E+00  0.10566000000E+00 0.  1.
     999900   -1    0    0    0    0 -0.00000000000E+00 -0.00000000000E+00 -0.74505805969E-08  0.93827000000E+00  0.93827000000E+00 0.  1.
     999902    2    1    2    0    0  0.15442263818E-01  0.11660480187E-01 -0.14930003052E-01  0.10194895560E+01  0.10191965559E+01 0.  0.
     999903    2    3    3    0    0 -0.33026837851E-01  0.52389774160E-01  0.11063621040E+00  0.12832458637E+00  0.19783022000E-01 0.  0.
         14    1    1    2    0    0 -0.15442263818E-01 -0.11660480187E-01  0.14930003052E-01  0.24440443963E-01  0.00000000000E+00 0.  1.
     999901    1    3    3    0    0  0.48469101668E-01 -0.40729293973E-01 -0.12556621345E+00  0.89116496967E+00  0.88000000000E+00 0.  1.
        -11    1    4    4    0    0 -0.17502324123E-02  0.16855146666E-01  0.21334013296E-01  0.27249963798E-01  0.51100000000E-03 0.  1.
         11    1    4    4    0    0 -0.31276605438E-01  0.35534627493E-01  0.89302197105E-01  0.10107462257E+00  0.51100000000E-03 0. -1.
</event>
<event>
 8    1  0.1054086E+005  0.1043930E+01  0.7957747E-01            NaN
         13   -1    0    0    0    0  0.00000000000E+00  0.00000000000E+00  0.74505805969E-08  0.10566000000E+00  0.10566000000E+00 0. -1.
     999900   -1    0    0    0    0 -0.00000000000E+00 -0.00000000000E+00 -0.74505805969E-08  0.93827000000E+00  0.93827000000E+00 0.  1.
     999902    2    1    2    0    0 -0.56537090650E-02 -0.21945915251E-01 -0.37909244848E-02  0.10209526474E+01  0.10206940529E+01 0.  0.
     999903    2    3    3    0    0 -0.12822558358E+00 -0.26998331251E-01 -0.48173260097E-02  0.13244240842E+00  0.18629942136E-01 0.  0.
         14    1    1    2    0    0  0.56537090650E-02  0.21945915251E-01  0.37909244848E-02  0.22977352564E-01  0.00000000000E+00 0.  1.
     999901    1    3    3    0    0  0.12257187452E+00  0.50524159999E-02  0.10264015249E-02  0.88851023901E+00  0.88000000000E+00 0.  1.
        -11    1    4    4    0    0 -0.33102373082E-01 -0.15251005303E-01 -0.30694890555E-02  0.36579272143E-01  0.51100000000E-03 0.  1.
         11    1    4    4    0    0 -0.95123210499E-01 -0.11747325948E-01 -0.17478369542E-02  0.95863136281E-01  0.51100000000E-03 0. -1.
</event>
<event>
 8    1  0.1054086E+005  0.1043930E+01  0.7957747E-01            NaN
         13   -1    0    0    0    0  0.00000000000E+00  0.00000000000E+00  0.74505805969E-08  0.10566000000E+00  0.10566000000E+00 0. -1.
     999900   -1    0    0    0    0 -0.00000000000E+00 -0.00000000000E+00 -0.74505805969E-08  0.93827000000E+00  0.93827000000E+00 0. -1.
     999902    2    1    2    0    0 -0.73160167633E-02 -0.17232823426E-01 -0.13898066685E-01  0.10206136846E+01  0.10203473147E+01 0.  0.
     999903    2    3    3    0    0  0.54398384858E-01  0.10324049556E+00 -0.52313006561E-01  0.12943570266E+00  0.19979145859E-01 0.  0.
         14    1    1    2    0    0  0.73160167633E-02  0.17232823426E-01  0.13898066685E-01  0.23316315362E-01  0.00000000000E+00 0. -1.
     999901    1    3    3    0    0 -0.61714401621E-01 -0.12047331899E+00  0.38414939876E-01  0.89117798198E+00  0.88000000000E+00 0. -1.
        -11    1    4    4    0    0  0.17582847381E-01  0.23495806161E-01 -0.21385810928E-01  0.36315609030E-01  0.51100000000E-03 0. -1.
         11    1    4    4    0    0  0.36815537477E-01  0.79744689399E-01 -0.30927195632E-01  0.93120093630E-01  0.51100000000E-03 0.  1.
</event>
<event>
 8    1  0.1054086E+005  0.1043930E+01  0.7957747E-01            NaN
         13   -1    0    0    0    0  0.00000000000E+00  0.00000000000E+00  0.74505805969E-08  0.10566000000E+00  0.10566000000E+00 0.  1.
     999900   -1    0    0    0    0 -0.00000000000E+00 -0.00000000000E+00 -0.74505805969E-08  0.93827000000E+00  0.93827000000E+00 0. -1.
     999902    2    1    2    0    0 -0.16385854150E-02 -0.15286806171E-01 -0.17898964426E-01  0.10203345697E+01  0.10200617088E+01 0.  0.
     999903    2    3    3    0    0 -0.64457177251E-01  0.10983292579E+00  0.41921584063E-02  0.12899336647E+00  0.20092663228E-01 0.  0.
         14    1    1    2    0    0  0.16385854150E-02  0.15286806171E-01  0.17898964426E-01  0.23595430333E-01  0.00000000000E+00 0.  1.
     999901    1    3    3    0    0  0.62818591836E-01 -0.12511973196E+00 -0.22091122832E-01  0.89134120320E+00  0.88000000000E+00 0. -1.
        -11    1    4    4    0    0 -0.17723309298E-01  0.48071755889E-01  0.54913762172E-02  0.51530823208E-01  0.51100000000E-03 0. -1.
         11    1    4    4    0    0 -0.46733867953E-01  0.61761169897E-01 -0.12992178109E-02  0.77462543263E-01  0.51100000000E-03 0.  1.
</event>
<event>
 8    1  0.1054086E+005  0.1043930E+01  0.7957747E-01            NaN
         13   -1    0    0    0    0  0.00000000000E+00  0.00000000000E+00  0.74505805969E-08  0.10566000000E+00  0.10566000000E+00 0.  1.
     999900   -1    0    0    0    0 -0.00000000000E+00 -0.00000000000E+00 -0.74505805969E-08  0.93827000000E+00  0.93827000000E+00 0. -1.
     999902    2    1    2    0    0 -0.73055875390E-03 -0.15330768990E-01  0.67181604707E-02  0.10271758998E+01  0.10270392540E+01 0.  0.
     999903    2    3    3    0    0 -0.37077852863E-01 -0.12336839451E+00  0.47758515825E-01  0.13887551980E+00  0.20273288526E-01 0.  0.
         14    1    1    2    0    0  0.73055875390E-03  0.15330768990E-01 -0.67181604707E-02  0.16754100215E-01  0.00000000000E+00 0. -1.
     999901    1    3    3    0    0  0.36347294109E-01  0.10803762552E+00 -0.41040355354E-01  0.88830037999E+00  0.88000000000E+00 0. -1.
        -11    1    4    4    0    0 -0.28737264063E-01 -0.11419289881E+00  0.45618385978E-01  0.12628201276E+00  0.51100000000E-03 0.  1.
         11    1    4    4    0    0 -0.83405888000E-02 -0.91754956985E-02  0.21401298465E-02  0.12593507041E-01  0.51100000000E-03 0. -1.
</event>
<event>
 8    1  0.1054086E+005  0.1043930E+01  0.7957747E-01            NaN
         13   -1    0    0    0    0  0.00000000000E+00  0.00000000000E+00  0.74505805969E-08  0.10566000000E+00  0.10566000000E+00 0. -1.
     999900   -1    0    0    0    0 -0.00000000000E+00 -0.00000000000E+00 -0.74505805969E-08  0.93827000000E+00  0.93827000000E+00 0.  1.
     999902    2    1    2    0    0 -0.81012363973E-03  0.22092698658E-01  0.77763472619E-02  0.10204946589E+01  0.10202255308E+01 0.  0.
     999903    2    3    3    0    0  0.45875482041E-01 -0.11243064123E+00  0.37519211234E-01  0.12855255727E+00  0.19309578691E-01 0.  0.
         14    1    1    2    0    0  0.81012363973E-03 -0.22092698658E-01 -0.77763472619E-02  0.23435341070E-01  0.00000000000E+00 0. -1.
     999901    1    3    3    0    0 -0.46685605681E-01  0.13452333989E+00 -0.29742863972E-01  0.89194210166E+00  0.88000000000E+00 0.  1.
        -11    1    4    4    0    0  0.21324169711E-01 -0.76583390819E-01  0.24835552144E-01  0.83287464450E-01  0.51100000000E-03 0. -1.
         11    1    4    4    0    0  0.24551312330E-01 -0.35847250414E-01  0.12683659090E-01  0.45265092823E-01  0.51100000000E-03 0.  1.
</event>
<event>
 8    1  0.1054086E+005  0.1043930E+01  0.7957747E-01            NaN
         13   -1    0    0    0    0  0.00000000000E+00  0.00000000000E+00  0.74505805969E-08  0.10566000000E+00  0.10566000000E+00 0. -1.
     999900   -1    0    0    0    0 -0.00000000000E+00 -0.00000000000E+00 -0.74505805969E-08  0.93827000000E+00  0.93827000000E+00 0. -1.
     999902    2    1    2    0    0  0.13388761864E-01  0.19507363996E-01  0.35034679046E-02  0.10200120051E+01  0.10197315431E+01 0.  0.
     999903    2    3    3    0    0 -0.17587325786E-01 -0.19947947538E-01  0.12575928468E+00  0.13014531598E+00  0.20375744145E-01 0.  0.
         14    1    1    2    0    0 -0.13388761864E-01 -0.19507363996E-01 -0.35034679046E-02  0.23917994934E-01  0.00000000000E+00 0.  1.
     999901    1    3    3    0    0  0.30976087649E-01  0.39455311534E-01 -0.12225581677E+00  0.88986668909E+00  0.88000000000E+00 0. -1.
        -11    1    4    4    0    0 -0.15038985227E-02 -0.78118750360E-02  0.76615263371E-01  0.77028869943E-01  0.51100000000E-03 0. -1.
         11    1    4    4    0    0 -0.16083427263E-01 -0.12136072502E-01  0.49144021306E-01  0.53116446035E-01  0.51100000000E-03 0.  1.
</event>
<event>
 8    1  0.1054086E+005  0.1043930E+01  0.7957747E-01            NaN
         13   -1    0    0    0    0  0.00000000000E+00  0.00000000000E+00  0.74505805969E-08  0.10566000000E+00  0.10566000000E+00 0.  1.
     999900   -1    0    0    0    0 -0.00000000000E+00 -0.00000000000E+00 -0.74505805969E-08  0.93827000000E+00  0.93827000000E+00 0.  1.
     999902    2    1    2    0    0  0.50075406427E-03 -0.19130940629E-01 -0.14535749725E-01  0.10198981115E+01  0.10196149402E+01 0.  0.
     999903    2    3    3    0    0 -0.94228251360E-01 -0.67642809853E-01  0.56759903091E-01  0.13062309442E+00  0.19651796799E-01 0.  0.
         14    1    1    2    0    0 -0.50075406427E-03  0.19130940629E-01  0.14535749725E-01  0.24031888483E-01  0.00000000000E+00 0. -1.
     999901    1    3    3    0    0  0.94729005425E-01  0.48511869224E-01 -0.71295652816E-01  0.88927501710E+00  0.88000000000E+00 0. -1.
        -11    1    4    4    0    0 -0.45824789594E-01 -0.42221674562E-01  0.23324599818E-01  0.66534797075E-01  0.51100000000E-03 0.  1.
         11    1    4    4    0    0 -0.48403461766E-01 -0.25421135291E-01  0.33435303274E-01  0.64088297344E-01  0.51100000000E-03 0. -1.
</event>
<event>
 8    1  0.1054086E+005  0.1043930E+01  0.7957747E-01            NaN
         13   -1    0    0    0    0  0.00000000000E+00  0.00000000000E+00  0.74505805969E-08  0.10566000000E+00  0.10566000000E+00 0. -1.
     999900   -1    0    0    0    0 -0.00000000000E+00 -0.00000000000E+00 -0.74505805969E-08  0.93827000000E+00  0.93827000000E+00 0.  1.
     999902    2    1    2    0    0 -0.12537184811E-01  0.12685896198E-01  0.15176317184E-01  0.10205113414E+01  0.10202426008E+01 0.  0.
     999903    2    3    3    0    0  0.58929754953E-01 -0.83861599783E-01 -0.73760215699E-01  0.12790916279E+00  0.20364198199E-01 0.  0.
         14    1    1    2    0    0  0.12537184811E-01 -0.12685896198E-01 -0.15176317184E-01  0.23418658557E-01  0.00000000000E+00 0.  1.
     999901    1    3    3    0    0 -0.71466939763E-01  0.96547495981E-01  0.88936532883E-01  0.89260217866E+00  0.88000000000E+00 0. -1.
        -11    1    4    4    0    0  0.35501023971E-01 -0.32947515871E-01 -0.35260764150E-01  0.59911969710E-01  0.51100000000E-03 0.  1.
         11    1    4    4    0    0  0.23428730982E-01 -0.50914083911E-01 -0.38499451549E-01  0.67997193078E-01  0.51100000000E-03 0. -1.
</event>
<event>
 8    1  0.1054086E+005  0.1043930E+01  0.7957747E-01            NaN
         13   -1    0    0    0    0  0.00000000000E+00  0.00000000000E+00  0.74505805969E-08  0.10566000000E+00  0.10566000000E+00 0. -1.
     999900   -1    0    0    0    0 -0.00000000000E+00 -0.00000000000E+00 -0.74505805969E-08  0.93827000000E+00  0.93827000000E+00 0. -1.
     999902    2    1    2    0    0  0.10052076460E-01  0.67777649174E-03 -0.21557228068E-01  0.10201346705E+01  0.10198571117E+01 0.  0.
     999903    2    3    3    0    0  0.11345697271E+00  0.16111665073E-02  0.61009673645E-01  0.13024100440E+00  0.19116967175E-01 0.  0.
         14    1    1    2    0    0 -0.10052076460E-01 -0.67777649174E-03  0.21557228068E-01  0.23795329460E-01  0.00000000000E+00 0. -1.
     999901    1    3    3    0    0 -0.10340489625E+00 -0.93339001554E-03 -0.82566901714E-01  0.88989366614E+00  0.88000000000E+00 0.  1.
        -11    1    4    4    0    0  0.38840849099E-01 -0.27434717311E-02  0.11565070168E-01  0.40622040382E-01  0.51100000000E-03 0. -1.
         11    1    4    4    0    0  0.74616123610E-01  0.43546382384E-02  0.49444603477E-01  0.89618964013E-01  0.51100000000E-03 0.  1.
</event>
<event>
 8    1  0.1054086E+005  0.1043930E+01  0.7957747E-01            NaN
         13   -1    0    0    0    0  0.00000000000E+00  0.00000000000E+00  0.74505805969E-08  0.10566000000E+00  0.10566000000E+00 0.  1.
     999900   -1    0    0    0    0 -0.00000000000E+00 -0.00000000000E+00 -0.74505805969E-08  0.93827000000E+00  0.93827000000E+00 0. -1.
     999902    2    1    2    0    0  0.18685431608E-01  0.13521011190E-01  0.56387935670E-02  0.10201863884E+01  0.10199100490E+01 0.  0.
     999903    2    3    3    0    0  0.36530689691E-01 -0.11839373061E+00 -0.31403238440E-01  0.12940467303E+00  0.20195031045E-01 0.  0.
         14    1    1    2    0    0 -0.18685431608E-01 -0.13521011190E-01 -0.56387935670E-02  0.23743611580E-01  0.00000000000E+00 0.  1.
     999901    1    3    3    0    0 -0.17845258083E-01  0.13191474180E+00  0.37042032007E-01  0.89078171539E+00  0.88000000000E+00 0.  1.
        -11    1    4    4    0    0  0.26929786449E-01 -0.54476171386E-01 -0.18146774366E-01  0.63422655164E-01  0.51100000000E-03 0. -1.
         11    1    4    4    0    0  0.96009032420E-02 -0.63917559227E-01 -0.13256464074E-01  0.65982017864E-01  0.51100000000E-03 0.  1.
</event>
<event>
 8    1  0.1054086E+005  0.1043930E+01  0.7957747E-01            NaN
         13   -1    0    0    0    0  0.00000000000E+00  0.00000000000E+00  0.74505805969E-08  0.10566000000E+00  0.10566000000E+00 0.  1.
     999900   -1    0    0    0    0 -0.00000000000E+00 -0.00000000000E+00 -0.74505805969E-08  0.93827000000E+00  0.93827000000E+00 0. -1.
     999902    2    1    2    0    0 -0.12375115149E-01 -0.95203896966E-02 -0.18818835129E-01  0.10194773958E+01  0.10191841005E+01 0.  0.
     999903    2    3    3    0    0 -0.86863568309E-02  0.12684437209E+00  0.15668462593E-02  0.12873358800E+00  0.20122975556E-01 0.  0.
         14    1    1    2    0    0  0.12375115149E-01  0.95203896966E-02  0.18818835129E-01  0.24452604167E-01  0.00000000000E+00 0.  1.
     999901    1    3    3    0    0 -0.36887583184E-02 -0.13636476179E+00 -0.20385681388E-01  0.89074380784E+00  0.88000000000E+00 0. -1.
        -11    1    4    4    0    0 -0.11059708103E-01  0.35615507712E-01 -0.25132430624E-02  0.37381265958E-01  0.51100000000E-03 0. -1.
         11    1    4    4    0    0  0.23733512717E-02  0.91228864378E-01  0.40800893217E-02  0.91352322038E-01  0.51100000000E-03 0.  1.
</event>
<event>
 8    1  0.1054086E+005  0.1043930E+01  0.7957747E-01            NaN
         13   -1    0    0    0    0  0.00000000000E+00  0.00000000000E+00  0.74505805969E-08  0.10566000000E+00  0.10566000000E+00 0.  1.
     999900   -1    0    0    0    0 -0.00000000000E+00 -0.00000000000E+00 -0.74505805969E-08  0.93827000000E+00  0.93827000000E+00 0. -1.
     999902    2    1    2    0    0  0.63713418191E-03 -0.20852618126E-02 -0.24350725522E-01  0.10194818489E+01  0.10191886617E+01 0.  0.
     999903    2    3    3    0    0  0.36838761007E-01 -0.11885551696E+00 -0.35398141428E-01  0.13096178970E+00  0.20352732506E-01 0.  0.
         14    1    1    2    0    0 -0.63713418191E-03  0.20852618126E-02  0.24350725522E-01  0.24448151060E-01  0.00000000000E+00 0.  1.
     999901    1    3    3    0    0 -0.36201626825E-01  0.11677025515E+00  0.11047415906E-01  0.88852005924E+00  0.88000000000E+00 0.  1.
        -11    1    4    4    0    0  0.64784038420E-02 -0.41009428748E-01 -0.40568370861E-02  0.41718844791E-01  0.51100000000E-03 0.  1.
         11    1    4    4    0    0  0.30360357165E-01 -0.77846088213E-01 -0.31341304342E-01  0.89242944910E-01  0.51100000000E-03 0. -1.
</event>
<event>
 8    1  0.1054086E+005  0.1043930E+01  0.7957747E-01            NaN
         13   -1    0    0    0    0  0.00000000000E+00  0.00000000000E+00  0.74505805969E-08  0.10566000000E+00  0.10566000000E+00 0.  1.
     999900   -1    0    0    0    0 -0.00000000000E+00 -0.00000000000E+00 -0.74505805969E-08  0.93827000000E+00  0.93827000000E+00 0. -1.
     999902    2    1    2    0    0  0.72068273048E-02  0.19786965987E-01  0.99313032447E-02  0.10206471057E+01  0.10203815077E+01 0.  0.
     999903    2    3    3    0    0  0.45631827369E-01  0.10514301545E+00  0.65923020034E-01  0.13391309363E+00  0.21202705243E-01 0.  0.
         14    1    1    2    0    0 -0.72068273048E-02 -0.19786965987E-01 -0.99313032447E-02  0.23282894299E-01  0.00000000000E+00 0. -1.
     999901    1    3    3    0    0 -0.38425000064E-01 -0.85356049460E-01 -0.55991716789E-01  0.88673401207E+00  0.88000000000E+00 0. -1.
        -11    1    4    4    0    0  0.45666053570E-01  0.87283904624E-01  0.52993602399E-01  0.11185906969E+00  0.51100000000E-03 0.  1.
         11    1    4    4    0    0 -0.34226200769E-04  0.17859110823E-01  0.12929417635E-01  0.22054023946E-01  0.51100000000E-03 0. -1.
</event>
<event>
 8    1  0.1054086E+005  0.1043930E+01  0.7957747E-01            NaN
         13   -1    0    0    0    0  0.00000000000E+00  0.00000000000E+00  0.74505805969E-08  0.10566000000E+00  0.10566000000E+00 0.  1.
     999900   -1    0    0    0    0 -0.00000000000E+00 -0.00000000000E+00 -0.74505805969E-08  0.93827000000E+00  0.93827000000E+00 0. -1.
     999902    2    1    2    0    0  0.18901082629E-01 -0.13920835959E-01 -0.53257557632E-02  0.10198591821E+01  0.10195750816E+01 0.  0.
     999903    2    3    3    0    0  0.24695077289E-01  0.12380993753E+00  0.16292357884E-01  0.12886497386E+00  0.20049765329E-01 0.  0.
         14    1    1    2    0    0 -0.18901082629E-01  0.13920835959E-01  0.53257557632E-02  0.24070817867E-01  0.00000000000E+00 0.  1.
     999901    1    3    3    0    0 -0.57939946600E-02 -0.13773077349E+00 -0.21618113647E-01  0.89099420827E+00  0.88000000000E+00 0.  1.
        -11    1    4    4    0    0  0.49233056787E-02  0.25563671447E-01 -0.47349222367E-02  0.26465465163E-01  0.51100000000E-03 0. -1.
         11    1    4    4    0    0  0.19771771610E-01  0.98246266079E-01  0.21027280121E-01  0.10239950870E+00  0.51100000000E-03 0.  1.
</event>
<event>
 8    1  0.1054086E+005  0.1043930E+01  0.7957747E-01            NaN
         13   -1    0    0    0    0  0.00000000000E+00  0.00000000000E+00  0.74505805969E-08  0.10566000000E+00  0.10566000000E+00 0.  1.
     999900   -1    0    0    0    0 -0.00000000000E+00 -0.00000000000E+00 -0.74505805969E-08  0.93827000000E+00  0.93827000000E+00 0. -1.
     999902    2    1    2    0    0  0.84305303568E-02 -0.14036481188E-01 -0.16275439538E-01  0.10208434979E+01  0.10205824125E+01 0.  0.
     999903    2    3    3    0    0 -0.10504268379E+00 -0.68269490425E-01  0.32417623328E-01  0.13056915594E+00  0.17398661987E-01 0.  0.
         14    1    1    2    0    0 -0.84305303568E-02  0.14036481188E-01  0.16275439538E-01  0.23086502082E-01  0.00000000000E+00 0.  1.
     999901    1    3    3    0    0  0.11347321415E+00  0.54233009236E-01 -0.48693062866E-01  0.89027434198E+00  0.88000000000E+00 0. -1.
        -11    1    4    4    0    0 -0.30107091017E-01 -0.28243147173E-01  0.14392566707E-01  0.43720926216E-01  0.51100000000E-03 0.  1.
         11    1    4    4    0    0 -0.74935592773E-01 -0.40026343251E-01  0.18025056621E-01  0.86848229721E-01  0.51100000000E-03 0. -1.
</event>
<event>
 8    1  0.1054086E+005  0.1043930E+01  0.7957747E-01            NaN
         13   -1    0    0    0    0  0.00000000000E+00  0.00000000000E+00  0.74505805969E-08  0.10566000000E+00  0.10566000000E+00 0. -1.
     999900   -1    0    0    0    0 -0.00000000000E+00 -0.00000000000E+00 -0.74505805969E-08  0.93827000000E+00  0.93827000000E+00 0. -1.
     999902    2    1    2    0    0  0.76748557461E-02  0.51779849335E-02 -0.20053312458E-01  0.10218426670E+01  0.10216039281E+01 0.  0.
     999903    2    3    3    0    0  0.11637606377E+00  0.56455386126E-01 -0.27089475031E-01  0.13364514838E+00  0.19914496861E-01 0.  0.
         14    1    1    2    0    0 -0.76748557461E-02 -0.51779849335E-02  0.20053312458E-01  0.22087333004E-01  0.00000000000E+00 0.  1.
     999901    1    3    3    0    0 -0.10870120803E+00 -0.51277401193E-01  0.70361625733E-02  0.88819751862E+00  0.88000000000E+00 0.  1.
        -11    1    4    4    0    0  0.10687032829E+00  0.48166028826E-01 -0.19272105157E-01  0.11879776328E+00  0.51100000000E-03 0. -1.
         11    1    4    4    0    0  0.95057354840E-02  0.82893573005E-02 -0.78173698746E-02  0.14847385100E-01  0.51100000000E-03 0.  1.
</event>
<event>
 8    1  0.1054086E+005  0.1043930E+01  0.7957747E-01            NaN
         13   -1    0    0    0    0  0.00000000000E+00  0.00000000000E+00  0.74505805969E-08  0.10566000000E+00  0.10566000000E+00 0.  1.
     999900   -1    0    0    0    0 -0.00000000000E+00 -0.00000000000E+00 -0.74505805969E-08  0.93827000000E+00  0.93827000000E+00 0.  1.
     999902    2    1    2    0    0 -0.76588901962E-02 -0.21453675291E-01  0.16330965532E-02  0.10210917473E+01  0.10208363094E+01 0.  0.
     999903    2    3    3    0    0  0.54426711370E-01  0.98475195026E-01 -0.59220659648E-01  0.12871249187E+00  0.20004701656E-01 0.  0.
         14    1    1    2    0    0  0.76588901962E-02  0.21453675291E-01 -0.16330965532E-02  0.22838252711E-01  0.00000000000E+00 0.  1.
     999901    1    3    3    0    0 -0.62085601566E-01 -0.11992887032E+00  0.60853756202E-01  0.89237925542E+00  0.88000000000E+00 0. -1.
        -11    1    4    4    0    0  0.15978889108E-01  0.43671627640E-01 -0.16750839267E-01  0.49430635187E-01  0.51100000000E-03 0. -1.
         11    1    4    4    0    0  0.38447822262E-01  0.54803567386E-01 -0.42469820382E-01  0.79281856683E-01  0.51100000000E-03 0.  1.
</event>
<event>
 8    1  0.1054086E+005  0.1043930E+01  0.7957747E-01            NaN
         13   -1    0    0    0    0  0.00000000000E+00  0.00000000000E+00  0.74505805969E-08  0.10566000000E+00  0.10566000000E+00 0. -1.
     999900   -1    0    0    0    0 -0.00000000000E+00 -0.00000000000E+00 -0.74505805969E-08  0.93827000000E+00  0.93827000000E+00 0. -1.
     999902    2    1    2    0    0 -0.22110471339E-01 -0.12193472597E-02  0.13979305239E-01  0.10177425846E+01  0.10174056162E+01 0.  0.
     999903    2    3    3    0    0  0.73758795519E-01 -0.96360218382E-01 -0.19810923648E-01  0.12679674940E+00  0.30972429022E-01 0.  0.
         14    1    1    2    0    0  0.22110471339E-01  0.12193472597E-02 -0.13979305239E-01  0.26187415404E-01  0.00000000000E+00 0.  1.
     999901    1    3    3    0    0 -0.95869266858E-01  0.95140871122E-01  0.33790228887E-01  0.89094583520E+00  0.88000000000E+00 0.  1.
        -11    1    4    4    0    0  0.48428562533E-01 -0.37844671269E-01 -0.88882478900E-02  0.62103195441E-01  0.51100000000E-03 0. -1.
         11    1    4    4    0    0  0.25330232986E-01 -0.58515547113E-01 -0.10922675758E-01  0.64693553959E-01  0.51100000000E-03 0.  1.
</event>
<event>
 8    1  0.1054086E+005  0.1043930E+01  0.7957747E-01            NaN
         13   -1    0    0    0    0  0.00000000000E+00  0.00000000000E+00  0.74505805969E-08  0.10566000000E+00  0.10566000000E+00 0.  1.
     999900   -1    0    0    0    0 -0.00000000000E+00 -0.00000000000E+00 -0.74505805969E-08  0.93827000000E+00  0.93827000000E+00 0.  1.
     999902    2    1    2    0    0  0.15862572185E-01 -0.15793989803E-01 -0.87746309895E-02  0.10198870081E+01  0.10196035719E+01 0.  0.
     999903    2    3    3    0    0  0.78064097768E-01 -0.14108830646E-01  0.10193267615E+00  0.13077060549E+00  0.20435712137E-01 0.  0.
         14    1    1    2    0    0 -0.15862572185E-01  0.15793989803E-01  0.87746309895E-02  0.24042991894E-01  0.00000000000E+00 0.  1.
     999901    1    3    3    0    0 -0.62201525583E-01 -0.16851591569E-02 -0.11070730714E+00  0.88911640262E+00  0.88000000000E+00 0.  1.
        -11    1    4    4    0    0  0.19121918942E-01 -0.10299418157E-01  0.37669581060E-01  0.43485448792E-01  0.51100000000E-03 0. -1.
         11    1    4    4    0    0  0.58942178826E-01 -0.38094124895E-02  0.64263095091E-01  0.87285156698E-01  0.51100000000E-03 0.  1.
</event>
<event>
 8    1  0.1054086E+005  0.1043930E+01  0.7957747E-01            NaN
         13   -1    0    0    0    0  0.00000000000E+00  0.00000000000E+00  0.74505805969E-08  0.10566000000E+00  0.10566000000E+00 0. -1.
     999900   -1    0    0    0    0 -0.00000000000E+00 -0.00000000000E+00 -0.74505805969E-08  0.93827000000E+00  0.93827000000E+00 0. -1.
     999902    2    1    2    0    0 -0.13440961685E-01 -0.17079687056E-01  0.11618458572E-01  0.10192852492E+01  0.10189872696E+01 0.  0.
     999903    2    3    3    0    0  0.68715042371E-01 -0.24021733683E-01  0.10638601887E+00  0.13036529136E+00  0.19450538353E-01 0.  0.
         14    1    1    2    0    0  0.13440961685E-01  0.17079687056E-01 -0.11618458572E-01  0.24644750771E-01  0.00000000000E+00 0.  1.
     999901    1    3    3    0    0 -0.82156004057E-01  0.69420466271E-02 -0.94767560301E-01  0.88891995787E+00  0.88000000000E+00 0. -1.
        -11    1    4    4    0    0  0.19659508934E-01 -0.49554167298E-02  0.45928990467E-01  0.50207427068E-01  0.51100000000E-03 0. -1.
         11    1    4    4    0    0  0.49055533437E-01 -0.19066316954E-01  0.60457028407E-01  0.80157864291E-01  0.51100000000E-03 0.  1.
</event>
<event>
 8    1  0.1054086E+005  0.1043930E+01  0.7957747E-01            NaN
         13   -1    0    0    0    0  0.00000000000E+00  0.00000000000E+00  0.74505805969E-08  0.10566000000E+00  0.10566000000E+00 0. -1.
     999900   -1    0    0    0    0 -0.00000000000E+00 -0.00000000000E+00 -0.74505805969E-08  0.93827000000E+00  0.93827000000E+00 0.  1.
     999902    2    1    2    0    0 -0.82638098022E-02 -0.95878693129E-02  0.20195183142E-01  0.10200959233E+01  0.10198174491E+01 0.  0.
     999903    2    3    3    0    0  0.11907464645E+00  0.17108324801E-01  0.45530212341E-01  0.13016916623E+00  0.19988631732E-01 0.  0.
         14    1    1    2    0    0  0.82638098022E-02  0.95878693129E-02 -0.20195183142E-01  0.23834076709E-01  0.00000000000E+00 0.  1.
     999901    1    3    3    0    0 -0.12733845625E+00 -0.26696194114E-01 -0.25335029198E-01  0.88992675706E+00  0.88000000000E+00 0.  1.
        -11    1    4    4    0    0  0.48618052351E-01  0.32960646806E-02  0.28216114095E-01  0.56311537650E-01  0.51100000000E-03 0.  1.
         11    1    4    4    0    0  0.70456594096E-01  0.13812260121E-01  0.17314098245E-01  0.73857628585E-01  0.51100000000E-03 0. -1.
</event>
<event>
 8    1  0.1054086E+005  0.1043930E+01  0.7957747E-01            NaN
         13   -1    0    0    0    0  0.00000000000E+00  0.00000000000E+00  0.74505805969E-08  0.10566000000E+00  0.10566000000E+00 0. -1.
     999900   -1    0    0    0    0 -0.00000000000E+00 -0.00000000000E+00 -0.74505805969E-08  0.93827000000E+00  0.93827000000E+00 0. -1.
     999902    2    1    2    0    0 -0.13335699684E-01 -0.15263023689E-01 -0.12515706793E-01  0.10201089233E+01  0.10198307564E+01 0.  0.
     999903    2    3    3    0    0 -0.99338933366E-01 -0.38897603189E-01 -0.77111997039E-01  0.13324488059E+00  0.20656497774E-01 0.  0.
         14    1    1    2    0    0  0.13335699684E-01  0.15263023689E-01  0.12515706793E-01  0.23821076691E-01  0.00000000000E+00 0. -1.
     999901    1    3    3    0    0  0.86003233682E-01  0.23634579500E-01  0.64596290247E-01  0.88686404272E+00  0.88000000000E+00 0.  1.
        -11    1    4    4    0    0 -0.31967268029E-01 -0.22798541105E-01 -0.31010787015E-01  0.50036084320E-01  0.51100000000E-03 0.  1.
         11    1    4    4    0    0 -0.67371665337E-01 -0.16099062083E-01 -0.46101210024E-01  0.83208796272E-01  0.51100000000E-03 0. -1.
</event>
<event>
 8    1  0.1054086E+005  0.1043930E+01  0.7957747E-01            NaN
         13   -1    0    0    0    0  0.00000000000E+00  0.00000000000E+00  0.74505805969E-08  0.10566000000E+00  0.10566000000E+00 0. -1.
     999900   -1    0    0    0    0 -0.00000000000E+00 -0.00000000000E+00 -0.74505805969E-08  0.93827000000E+00  0.93827000000E+00 0.  1.
     999902    2    1    2    0    0 -0.15222680272E-01 -0.11258900566E-01  0.12816924311E-01  0.10210659149E+01  0.10208098923E+01 0.  0.
     999903    2    3    3    0    0  0.23377718927E-01 -0.91929401985E-01  0.91061142683E-01  0.13307949707E+00  0.20505807535E-01 0.  0.
         14    1    1    2    0    0  0.15222680272E-01  0.11258900566E-01 -0.12816924311E-01  0.22864085055E-01  0.00000000000E+00 0.  1.
     999901    1    3    3    0    0 -0.38600399199E-01  0.80670501419E-01 -0.78244218373E-01  0.88798641787E+00  0.88000000000E+00 0.  1.
        -11    1    4    4    0    0  0.98232982304E-02 -0.15691664215E-01  0.26109082694E-01  0.32010480066E-01  0.51100000000E-03 0. -1.
         11    1    4    4    0    0  0.13554420697E-01 -0.76237737770E-01  0.64952059989E-01  0.10106901701E+00  0.51100000000E-03 0.  1.
</event>
<event>
 8    1  0.1054086E+005  0.1043930E+01  0.7957747E-01            NaN
         13   -1    0    0    0    0  0.00000000000E+00  0.00000000000E+00  0.74505805969E-08  0.10566000000E+00  0.10566000000E+00 0. -1.
     999900   -1    0    0    0    0 -0.00000000000E+00 -0.00000000000E+00 -0.74505805969E-08  0.93827000000E+00  0.93827000000E+00 0. -1.
     999902    2    1    2    0    0  0.14633306793E-01 -0.30945221573E-02  0.19050033663E-01  0.10197098944E+01  0.10194222163E+01 0.  0.
     999903    2    3    3    0    0 -0.17173461196E-01  0.10189177763E+00 -0.69265098758E-01  0.12851218551E+00  0.32262451869E-01 0.  0.
         14    1    1    2    0    0 -0.14633306793E-01  0.30945221573E-02 -0.19050033663E-01  0.24220105649E-01  0.00000000000E+00 0.  1.
     999901    1    3    3    0    0  0.31806767989E-01 -0.10498629979E+00  0.88315132421E-01  0.89119770884E+00  0.88000000000E+00 0.  1.
        -11    1    4    4    0    0 -0.25693384940E-01  0.63918942021E-01 -0.38642384928E-01  0.78989089200E-01  0.51100000000E-03 0. -1.
         11    1    4    4    0    0  0.85199237443E-02  0.37972835607E-01 -0.30622713830E-01  0.49523096308E-01  0.51100000000E-03 0.  1.
</event>
<event>
 8    1  0.1054086E+005  0.1043930E+01  0.7957747E-01            NaN
         13   -1    0    0    0    0  0.00000000000E+00  0.00000000000E+00  0.74505805969E-08  0.10566000000E+00  0.10566000000E+00 0. -1.
     999900   -1    0    0    0    0 -0.00000000000E+00 -0.00000000000E+00 -0.74505805969E-08  0.93827000000E+00  0.93827000000E+00 0.  1.
     999902    2    1    2    0    0 -0.42968418415E-02  0.22777144293E-01  0.32984055288E-02  0.10205175966E+01  0.10202490012E+01 0.  0.
     999903    2    3    3    0    0 -0.41527503383E-01  0.77864745647E-01  0.97653699807E-01  0.13297960447E+00  0.18970449870E-01 0.  0.
         14    1    1    2    0    0  0.42968418415E-02 -0.22777144293E-01 -0.32984055288E-02  0.23412403358E-01  0.00000000000E+00 0.  1.
     999901    1    3    3    0    0  0.37230661542E-01 -0.55087601354E-01 -0.94355294278E-01  0.88753799217E+00  0.88000000000E+00 0.  1.
        -11    1    4    4    0    0 -0.49894787601E-02  0.13846772090E-01  0.27625769946E-01  0.31306106141E-01  0.51100000000E-03 0.  1.
         11    1    4    4    0    0 -0.36538024623E-01  0.64017973558E-01  0.70027929861E-01  0.10167349833E+00  0.51100000000E-03 0. -1.
</event>
<event>
 8    1  0.1054086E+005  0.1043930E+01  0.7957747E-01            NaN
         13   -1    0    0    0    0  0.00000000000E+00  0.00000000000E+00  0.74505805969E-08  0.10566000000E+00  0.10566000000E+00 0. -1.
     999900   -1    0    0    0    0 -0.00000000000E+00 -0.00000000000E+00 -0.74505805969E-08  0.93827000000E+00  0.93827000000E+00 0. -1.
     999902    2    1    2    0    0  0.18654824492E-01 -0.12407084918E-01 -0.89864884437E-02  0.10197909195E+01  0.10195051860E+01 0.  0.
     999903    2    3    3    0    0 -0.92041298257E-01 -0.67384568725E-01  0.56114157497E-01  0.12877226121E+00  0.20523544961E-01 0.  0.
         14    1    1    2    0    0 -0.18654824492E-01  0.12407084918E-01  0.89864884437E-02  0.24139080504E-01  0.00000000000E+00 0.  1.
     999901    1    3    3    0    0  0.11069612275E+00  0.54977483807E-01 -0.65100645941E-01  0.89101865829E+00  0.88000000000E+00 0. -1.
        -11    1    4    4    0    0 -0.16680356425E-01 -0.18065611145E-01  0.20138062796E-01  0.31786841471E-01  0.51100000000E-03 0.  1.
         11    1    4    4    0    0 -0.75360941831E-01 -0.49318957581E-01  0.35976094701E-01  0.96985419737E-01  0.51100000000E-03 0. -1.
</event>
<event>
 8    1  0.1054086E+005  0.1043930E+01  0.7957747E-01            NaN
         13   -1    0    0    0    0  0.00000000000E+00  0.00000000000E+00  0.74505805969E-08  0.10566000000E+00  0.10566000000E+00 0.  1.
     999900   -1    0    0    0    0 -0.00000000000E+00 -0.00000000000E+00 -0.74505805969E-08  0.93827000000E+00  0.93827000000E+00 0. -1.
     999902    2    1    2    0    0 -0.13303432711E-01  0.85330059785E-02  0.16977285809E-01  0.10207347042E+01  0.10204711239E+01 0.  0.
     999903    2    3    3    0    0 -0.67884130923E-01  0.12280566397E-02 -0.10914379237E+00  0.13003894176E+00  0.19697604092E-01 0.  0.
         14    1    1    2    0    0  0.13303432711E-01 -0.85330059785E-02 -0.16977285809E-01  0.23195295781E-01  0.00000000000E+00 0.  1.
     999901    1    3    3    0    0  0.54580698212E-01  0.73049493388E-02  0.12612107818E+00  0.89069576246E+00  0.88000000000E+00 0.  1.
        -11    1    4    4    0    0 -0.29746774768E-01 -0.77787231356E-02 -0.57528961261E-01  0.65232059967E-01  0.51100000000E-03 0. -1.
         11    1    4    4    0    0 -0.38137356155E-01  0.90067797752E-02 -0.51614831108E-01  0.64806881792E-01  0.51100000000E-03 0.  1.
</event>
<event>
 8    1  0.1054086E+005  0.1043930E+01  0.7957747E-01            NaN
         13   -1    0    0    0    0  0.00000000000E+00  0.00000000000E+00  0.74505805969E-08  0.10566000000E+00  0.10566000000E+00 0.  1.
     999900   -1    0    0    0    0 -0.00000000000E+00 -0.00000000000E+00 -0.74505805969E-08  0.93827000000E+00  0.93827000000E+00 0.  1.
     999902    2    1    2    0    0 -0.18343148865E-01 -0.13894862767E-01 -0.98029482234E-02  0.10189172809E+01  0.10186102244E+01 0.  0.
     999903    2    3    3    0    0 -0.12701757909E+00 -0.29782572418E-01  0.27714234560E-02  0.13200090047E+00  0.19902007874E-01 0.  0.
         14    1    1    2    0    0  0.18343148865E-01  0.13894862767E-01  0.98029482234E-02  0.25012719074E-01  0.00000000000E+00 0.  1.
     999901    1    3    3    0    0  0.10867443023E+00  0.15887709651E-01 -0.12574371679E-01  0.88691638046E+00  0.88000000000E+00 0.  1.
        -11    1    4    4    0    0 -0.28280306495E-01  0.16946404540E-02  0.32934434127E-03  0.28337556889E-01  0.51100000000E-03 0.  1.
         11    1    4    4    0    0 -0.98737272599E-01 -0.31477212872E-01  0.24420791148E-02  0.10366334358E+00  0.51100000000E-03 0. -1.
</event>
<event>
 8    1  0.1054086E+005  0.1043930E+01  0.7957747E-01            NaN
         13   -1    0    0    0    0  0.00000000000E+00  0.00000000000E+00  0.74505805969E-08  0.10566000000E+00  0.10566000000E+00 0.  1.
     999900   -1    0    0    0    0 -0.00000000000E+00 -0.00000000000E+00 -0.74505805969E-08  0.93827000000E+00  0.93827000000E+00 0.  1.
     999902    2    1    2    0    0 -0.22631917516E-01 -0.43391135501E-02 -0.16510178018E-01  0.10155818506E+01  0.10151861296E+01 0.  0.
     999903    2    3    3    0    0 -0.10518597380E-01  0.12392015137E+00 -0.39761838102E-02  0.12611331681E+00  0.20540541206E-01 0.  0.
         14    1    1    2    0    0  0.22631917516E-01  0.43391135501E-02  0.16510178018E-01  0.28348149411E-01  0.00000000000E+00 0.  1.
     999901    1    3    3    0    0 -0.12113320136E-01 -0.12825926492E+00 -0.12533994208E-01  0.88946853377E+00  0.88000000000E+00 0.  1.
        -11    1    4    4    0    0 -0.30883765463E-02  0.35240152711E-01  0.81311873012E-02  0.36301291447E-01  0.51100000000E-03 0.  1.
         11    1    4    4    0    0 -0.74302208334E-02  0.88679998663E-01 -0.12107371111E-01  0.89812025368E-01  0.51100000000E-03 0. -1.
</event>
<event>
 8    1  0.1054086E+005  0.1043930E+01  0.7957747E-01            NaN
         13   -1    0    0    0    0  0.00000000000E+00  0.00000000000E+00  0.74505805969E-08  0.10566000000E+00  0.10566000000E+00 0. -1.
     999900   -1    0    0    0    0 -0.00000000000E+00 -0.00000000000E+00 -0.74505805969E-08  0.93827000000E+00  0.93827000000E+00 0.  1.
     999902    2    1    2    0    0  0.82499447918E-02  0.17084993882E-01 -0.14058620991E-01  0.10203163720E+01  0.10200430851E+01 0.  0.
     999903    2    3    3    0    0  0.61149381413E-01 -0.11214389954E+00 -0.66278680609E-03  0.12920588181E+00  0.19447867630E-01 0.  0.
         14    1    1    2    0    0 -0.82499447918E-02 -0.17084993882E-01  0.14058620991E-01  0.23613628040E-01  0.00000000000E+00 0. -1.
     999901    1    3    3    0    0 -0.52899436621E-01  0.12922889342E+00 -0.13395834185E-01  0.89111049015E+00  0.88000000000E+00 0.  1.
        -11    1    4    4    0    0  0.24724378554E-01 -0.64733504405E-01 -0.31123459089E-02  0.69366197138E-01  0.51100000000E-03 0. -1.
         11    1    4    4    0    0  0.36425002859E-01 -0.47410395136E-01  0.24495591028E-02  0.59839684667E-01  0.51100000000E-03 0.  1.
</event>
<event>
 8    1  0.1054086E+005  0.1043930E+01  0.7957747E-01            NaN
         13   -1    0    0    0    0  0.00000000000E+00  0.00000000000E+00  0.74505805969E-08  0.10566000000E+00  0.10566000000E+00 0. -1.
     999900   -1    0    0    0    0 -0.00000000000E+00 -0.00000000000E+00 -0.74505805969E-08  0.93827000000E+00  0.93827000000E+00 0. -1.
     999902    2    1    2    0    0  0.15600209072E-01  0.67475543896E-02 -0.16590717132E-01  0.10201782020E+01  0.10199016697E+01 0.  0.
     999903    2    3    3    0    0  0.70694258222E-01  0.96478970139E-01 -0.54734347808E-01  0.13308067761E+00  0.20217519562E-01 0.  0.
         14    1    1    2    0    0 -0.15600209072E-01 -0.67475543896E-02  0.16590717132E-01  0.23751798001E-01  0.00000000000E+00 0. -1.
     999901    1    3    3    0    0 -0.55094049150E-01 -0.89731415749E-01  0.38143630676E-01  0.88709752439E+00  0.88000000000E+00 0.  1.
        -11    1    4    4    0    0  0.65199010130E-01  0.77188685963E-01 -0.48440623908E-01  0.11205248470E+00  0.51100000000E-03 0. -1.
         11    1    4    4    0    0  0.54952480919E-02  0.19290284176E-01 -0.62937238999E-02  0.21028192901E-01  0.51100000000E-03 0.  1.
</event>
<event>
 8    1  0.1054086E+005  0.1043930E+01  0.7957747E-01            NaN
         13   -1    0    0    0    0  0.00000000000E+00  0.00000000000E+00  0.74505805969E-08  0.10566000000E+00  0.10566000000E+00 0. -1.
     999900   -1    0    0    0    0 -0.00000000000E+00 -0.00000000000E+00 -0.74505805969E-08  0.93827000000E+00  0.93827000000E+00 0. -1.
     999902    2    1    2    0    0  0.10312953446E-01  0.21050890853E-01 -0.12276343971E-01  0.10174686010E+01  0.10171244508E+01 0.  0.
     999903    2    3    3    0    0 -0.42632319970E-01  0.25924558937E-01  0.11456837180E+00  0.12678541575E+00  0.21425040638E-01 0.  0.
         14    1    1    2    0    0 -0.10312953446E-01 -0.21050890853E-01  0.12276343971E-01  0.26461398976E-01  0.00000000000E+00 0. -1.
     999901    1    3    3    0    0  0.52945273416E-01 -0.48736680839E-02 -0.12684471577E+00  0.89068318528E+00  0.88000000000E+00 0. -1.
        -11    1    4    4    0    0 -0.29907568488E-01  0.68070443462E-02  0.75023361237E-01  0.81052849166E-01  0.51100000000E-03 0. -1.
         11    1    4    4    0    0 -0.12724751482E-01  0.19117514590E-01  0.39545010565E-01  0.45732566580E-01  0.51100000000E-03 0.  1.
</event>
<event>
 8    1  0.1054086E+005  0.1043930E+01  0.7957747E-01            NaN
         13   -1    0    0    0    0  0.00000000000E+00  0.00000000000E+00  0.74505805969E-08  0.10566000000E+00  0.10566000000E+00 0. -1.
     999900   -1    0    0    0    0 -0.00000000000E+00 -0.00000000000E+00 -0.74505805969E-08  0.93827000000E+00  0.93827000000E+00 0.  1.
     999902    2    1    2    0    0 -0.18407444080E-01 -0.23336007671E-02  0.13498078963E-01  0.10209848954E+01  0.10207270344E+01 0.  0.
     999903    2    3    3    0    0 -0.13378481784E-01 -0.40647180359E-02  0.13098502576E+00  0.13316088698E+00  0.19474063276E-01 0.  0.
         14    1    1    2    0    0  0.18407444080E-01  0.23336007671E-02 -0.13498078963E-01  0.22945104615E-01  0.00000000000E+00 0.  1.
     999901    1    3    3    0    0 -0.50289622961E-02  0.17311172688E-02 -0.11748694680E+00  0.88782400840E+00  0.88000000000E+00 0.  1.
        -11    1    4    4    0    0  0.41237164194E-02  0.29247803993E-02  0.24812698851E-01  0.25327663192E-01  0.51100000000E-03 0.  1.
         11    1    4    4    0    0 -0.17502198204E-01 -0.69894984352E-02  0.10617232691E+00  0.10783322379E+00  0.51100000000E-03 0. -1.
</event>
<event>
 8    1  0.1054086E+005  0.1043930E+01  0.7957747E-01            NaN
         13   -1    0    0    0    0  0.00000000000E+00  0.00000000000E+00  0.74505805969E-08  0.10566000000E+00  0.10566000000E+00 0. -1.
     999900   -1    0    0    0    0 -0.00000000000E+00 -0.00000000000E+00 -0.74505805969E-08  0.93827000000E+00  0.93827000000E+00 0. -1.
     999902    2    1    2    0    0 -0.14016228769E-01  0.11268973419E-01 -0.15650240572E-01  0.10200893947E+01  0.10198107661E+01 0.  0.
     999903    2    3    3    0    0  0.12514990075E+00 -0.11639999920E-01 -0.21110512915E-01  0.12884204002E+00  0.18884656823E-01 0.  0.
         14    1    1    2    0    0  0.14016228769E-01 -0.11268973419E-01  0.15650240572E-01  0.23840605293E-01  0.00000000000E+00 0. -1.
     999901    1    3    3    0    0 -0.13916612952E+00  0.22908973338E-01  0.54602723435E-02  0.89124735469E+00  0.88000000000E+00 0. -1.
        -11    1    4    4    0    0  0.55959908733E-01 -0.14343173577E-01 -0.11949906572E-01  0.58994062428E-01  0.51100000000E-03 0.  1.
         11    1    4    4    0    0  0.69189992022E-01  0.27031736574E-02 -0.91606063433E-02  0.69847977590E-01  0.51100000000E-03 0. -1.
</event>
<event>
 8    1  0.1054086E+005  0.1043930E+01  0.7957747E-01            NaN
         13   -1    0    0    0    0  0.00000000000E+00  0.00000000000E+00  0.74505805969E-08  0.10566000000E+00  0.10566000000E+00 0. -1.
     999900   -1    0    0    0    0 -0.00000000000E+00 -0.00000000000E+00 -0.74505805969E-08  0.93827000000E+00  0.93827000000E+00 0. -1.
     999902    2    1    2    0    0 -0.18728854156E-01 -0.97065565514E-02 -0.10892502991E-01  0.10201890261E+01  0.10199127488E+01 0.  0.
     999903    2    3    3    0    0 -0.22040676734E-01  0.40466239874E-01 -0.12184905073E+00  0.13179742716E+00  0.20001565993E-01 0.  0.
         14    1    1    2    0    0  0.18728854156E-01  0.97065565514E-02  0.10892502991E-01  0.23740973853E-01  0.00000000000E+00 0. -1.
     999901    1    3    3    0    0  0.33118225783E-02 -0.50172796425E-01  0.11095654773E+00  0.88839159899E+00  0.88000000000E+00 0.  1.
        -11    1    4    4    0    0 -0.85519685698E-03  0.28965232246E-02 -0.31835912099E-01  0.31982927143E-01  0.51100000000E-03 0.  1.
         11    1    4    4    0    0 -0.21185479877E-01  0.37569716649E-01 -0.90013138627E-01  0.99814500015E-01  0.51100000000E-03 0. -1.
</event>
<event>
 8    1  0.1054086E+005  0.1043930E+01  0.7957747E-01            NaN
         13   -1    0    0    0    0  0.00000000000E+00  0.00000000000E+00  0.74505805969E-08  0.10566000000E+00  0.10566000000E+00 0.  1.
     999900   -1    0    0    0    0 -0.00000000000E+00 -0.00000000000E+00 -0.74505805969E-08  0.93827000000E+00  0.93827000000E+00 0. -1.
     999902    2    1    2    0    0  0.20059607383E-01 -0.17966842851E-02 -0.12836036035E-01  0.10200473757E+01  0.10197677524E+01 0.  0.
     999903    2    3    3    0    0  0.26870067106E-01  0.11522260745E+00 -0.53516906200E-01  0.13134335849E+00  0.19717220776E-01 0.  0.
         14    1    1    2    0    0 -0.20059607383E-01  0.17966842851E-02  0.12836036035E-01  0.23882624309E-01  0.00000000000E+00 0. -1.
     999901    1    3    3    0    0 -0.68104597236E-02 -0.11701929174E+00  0.40680870165E-01  0.88870401721E+00  0.88000000000E+00 0. -1.
        -11    1    4    4    0    0  0.16306224637E-01  0.54741871954E-01 -0.15724760004E-01  0.59246052233E-01  0.51100000000E-03 0.  1.
         11    1    4    4    0    0  0.10563842469E-01  0.60480735496E-01 -0.37792146196E-01  0.72097306253E-01  0.51100000000E-03 0. -1.
</event>
<event>
 8    1  0.1054086E+005  0.1043930E+01  0.7957747E-01            NaN
         13   -1    0    0    0    0  0.00000000000E+00  0.00000000000E+00  0.74505805969E-08  0.10566000000E+00  0.10566000000E+00 0. -1.
     999900   -1    0    0    0    0 -0.00000000000E+00 -0.00000000000E+00 -0.74505805969E-08  0.93827000000E+00  0.93827000000E+00 0.  1.
     999902    2    1    2    0    0 -0.18811284494E-01 -0.45656757680E-03  0.15836021043E-01  0.10193362520E+01  0.10190395194E+01 0.  0.
     999903    2    3    3    0    0  0.77674586799E-01  0.84944278791E-01  0.55110094456E-01  0.12908612941E+00  0.19422522039E-01 0.  0.
         14    1    1    2    0    0  0.18811284494E-01  0.45656757680E-03 -0.15836021043E-01  0.24593748001E-01  0.00000000000E+00 0.  1.
     999901    1    3    3    0    0 -0.96485871293E-01 -0.85400846368E-01 -0.39274073413E-01  0.89025012258E+00  0.88000000000E+00 0.  1.
        -11    1    4    4    0    0  0.48998136523E-01  0.51615818773E-01  0.23564350940E-01  0.74970326707E-01  0.51100000000E-03 0.  1.
         11    1    4    4    0    0  0.28676450276E-01  0.33328460018E-01  0.31545743517E-01  0.54115802707E-01  0.51100000000E-03 0. -1.
</event>
<event>
 8    1  0.1054086E+005  0.1043930E+01  0.7957747E-01            NaN
         13   -1    0    0    0    0  0.00000000000E+00  0.00000000000E+00  0.74505805969E-08  0.10566000000E+00  0.10566000000E+00 0. -1.
     999900   -1    0    0    0    0 -0.00000000000E+00 -0.00000000000E+00 -0.74505805969E-08  0.93827000000E+00  0.93827000000E+00 0.  1.
     999902    2    1    2    0    0  0.14845270225E-01 -0.43830992229E-02 -0.18284247167E-01  0.10199736376E+01  0.10196922644E+01 0.  0.
     999903    2    3    3    0    0  0.55137407867E-01 -0.99397122836E-01  0.61007120456E-01  0.13040169442E+00  0.19047608449E-01 0.  0.
         14    1    1    2    0    0 -0.14845270225E-01  0.43830992229E-02  0.18284247167E-01  0.23956362439E-01  0.00000000000E+00 0. -1.
     999901    1    3    3    0    0 -0.40292137642E-01  0.95014023613E-01 -0.79291367623E-01  0.88957194314E+00  0.88000000000E+00 0.  1.
        -11    1    4    4    0    0  0.11162324266E-01 -0.87709034347E-02  0.10832764243E-01  0.17864381663E-01  0.51100000000E-03 0.  1.
         11    1    4    4    0    0  0.43975083601E-01 -0.90626219401E-01  0.50174356214E-01  0.11253731276E+00  0.51100000000E-03 0. -1.
</event>
<event>
 8    1  0.1054086E+005  0.1043930E+01  0.7957747E-01            NaN
         13   -1    0    0    0    0  0.00000000000E+00  0.00000000000E+00  0.74505805969E-08  0.10566000000E+00  0.10566000000E+00 0. -1.
     999900   -1    0    0    0    0 -0.00000000000E+00 -0.00000000000E+00 -0.74505805969E-08  0.93827000000E+00  0.93827000000E+00 0. -1.
     999902    2    1    2    0    0  0.12966737933E-01 -0.68942034812E-02 -0.18502320302E-01  0.10203079300E+01  0.10200344454E+01 0.  0.
     999903    2    3    3    0    0 -0.12643283002E+00  0.12804395055E-01  0.61319454446E-02  0.12877715579E+00  0.19918384941E-01 0.  0.
         14    1    1    2    0    0 -0.12966737933E-01  0.68942034812E-02  0.18502320302E-01  0.23622069995E-01  0.00000000000E+00 0. -1.
     999901    1    3    3    0    0  0.13939956795E+00 -0.19698598536E-01 -0.24634265747E-01  0.89153077422E+00  0.88000000000E+00 0. -1.
        -11    1    4    4    0    0 -0.43264728743E-02  0.18047624317E-02 -0.33876459960E-02  0.58062725876E-02  0.51100000000E-03 0.  1.
         11    1    4    4    0    0 -0.12210635714E+00  0.10999632624E-01  0.95195914406E-02  0.12297088320E+00  0.51100000000E-03 0. -1.
</event>
<event>
 8    1  0.1054086E+005  0.1043930E+01  0.7957747E-01            NaN
         13   -1    0    0    0    0  0.00000000000E+00  0.00000000000E+00  0.74505805969E-08  0.10566000000E+00  0.10566000000E+00 0. -1.
     999900   -1    0    0    0    0 -0.00000000000E+00 -0.00000000000E+00 -0.74505805969E-08  0.93827000000E+00  0.93827000000E+00 0.  1.
     999902    2    1    2    0    0  0.62868268704E-02 -0.20299154115E-01  0.10611074897E-01  0.10201776367E+01  0.10199010912E+01 0.  0.
     999903    2    3    3    0    0  0.75771401842E-01  0.87304732873E-01 -0.52718914676E-01  0.12865232009E+00  0.20216670857E-01 0.  0.
         14    1    1    2    0    0 -0.62868268704E-02  0.20299154115E-01 -0.10611074897E-01  0.23752363258E-01  0.00000000000E+00 0.  1.
     999901    1    3    3    0    0 -0.69484574972E-01 -0.10760388699E+00  0.63329989573E-01  0.89152531665E+00  0.88000000000E+00 0. -1.
        -11    1    4    4    0    0  0.43706706752E-01  0.35050692472E-01 -0.26279170484E-01  0.61884434070E-01  0.51100000000E-03 0. -1.
         11    1    4    4    0    0  0.32064695090E-01  0.52254040401E-01 -0.26439744192E-01  0.66767886018E-01  0.51100000000E-03 0.  1.
</event>
<event>
 8    1  0.1054086E+005  0.1043930E+01  0.7957747E-01            NaN
         13   -1    0    0    0    0  0.00000000000E+00  0.00000000000E+00  0.74505805969E-08  0.10566000000E+00  0.10566000000E+00 0. -1.
     999900   -1    0    0    0    0 -0.00000000000E+00 -0.00000000000E+00 -0.74505805969E-08  0.93827000000E+00  0.93827000000E+00 0.  1.
     999902    2    1    2    0    0  0.20163207033E-01 -0.17846326436E-02 -0.12806509336E-01  0.10199769937E+01  0.10196957002E+01 0.  0.
     999903    2    3    3    0    0  0.76464607091E-01  0.47277838389E-01  0.92481727290E-01  0.13056000119E+00  0.20273477460E-01 0.  0.
         14    1    1    2    0    0 -0.20163207033E-01  0.17846326436E-02  0.12806509336E-01  0.23953006343E-01  0.00000000000E+00 0. -1.
     999901    1    3    3    0    0 -0.56301400059E-01 -0.49062471032E-01 -0.10528823663E+00  0.88941699246E+00  0.88000000000E+00 0.  1.
        -11    1    4    4    0    0  0.17596932127E-01  0.21614215703E-01  0.25837740911E-01  0.38008897868E-01  0.51100000000E-03 0. -1.
         11    1    4    4    0    0  0.58867674964E-01  0.25663622686E-01  0.66643986379E-01  0.92551103324E-01  0.51100000000E-03 0.  1.
</event>
<event>
 8    1  0.1054086E+005  0.1043930E+01  0.7957747E-01            NaN
         13   -1    0    0    0    0  0.00000000000E+00  0.00000000000E+00  0.74505805969E-08  0.10566000000E+00  0.10566000000E+00 0.  1.
     999900   -1    0    0    0    0 -0.00000000000E+00 -0.00000000000E+00 -0.74505805969E-08  0.93827000000E+00  0.93827000000E+00 0. -1.
     999902    2    1    2    0    0  0.15808732020E-01  0.62408386385E-02  0.14500838050E-01  0.10215885950E+01  0.10213442705E+01 0.  0.
     999903    2    3    3    0    0 -0.61816141699E-01  0.49900494236E-01 -0.98591604090E-01  0.12989263387E+00  0.28991330400E-01 0.  0.
         14    1    1    2    0    0 -0.15808732020E-01 -0.62408386385E-02 -0.14500838050E-01  0.22341405040E-01  0.00000000000E+00 0.  1.
     999901    1    3    3    0    0  0.77624873720E-01 -0.43659655598E-01  0.11309244214E+00  0.89169596109E+00  0.88000000000E+00 0.  1.
        -11    1    4    4    0    0 -0.35791802703E-01  0.22714266211E-01 -0.72871347955E-01  0.84305904324E-01  0.51100000000E-03 0.  1.
         11    1    4    4    0    0 -0.26024338996E-01  0.27186228026E-01 -0.25720256135E-01  0.45586729550E-01  0.51100000000E-03 0. -1.
</event>
<event>
 8    1  0.1054086E+005  0.1043930E+01  0.7957747E-01            NaN
         13   -1    0    0    0    0  0.00000000000E+00  0.00000000000E+00  0.74505805969E-08  0.10566000000E+00  0.10566000000E+00 0.  1.
     999900   -1    0    0    0    0 -0.00000000000E+00 -0.00000000000E+00 -0.74505805969E-08  0.93827000000E+00  0.93827000000E+00 0. -1.
     999902    2    1    2    0    0 -0.61714084817E-02 -0.21249056477E-01 -0.89404877920E-02  0.10200649417E+01  0.10197857345E+01 0.  0.
     999903    2    3    3    0    0  0.62741567488E-01 -0.10969522452E+00 -0.34271155236E-01  0.13258910229E+00  0.20876096135E-01 0.  0.
         14    1    1    2    0    0  0.61714084817E-02  0.21249056477E-01  0.89404877920E-02  0.23865058260E-01  0.00000000000E+00 0. -1.
     999901    1    3    3    0    0 -0.68912975969E-01  0.88446168047E-01  0.25330667444E-01  0.88747583945E+00  0.88000000000E+00 0.  1.
        -11    1    4    4    0    0  0.28059387118E-01 -0.31105856609E-01 -0.15413856519E-01  0.44640246579E-01  0.51100000000E-03 0. -1.
         11    1    4    4    0    0  0.34682180369E-01 -0.78589367915E-01 -0.18857298717E-01  0.87948855708E-01  0.51100000000E-03 0.  1.
</event>
<event>
 8    1  0.1054086E+005  0.1043930E+01  0.7957747E-01            NaN
         13   -1    0    0    0    0  0.00000000000E+00  0.00000000000E+00  0.74505805969E-08  0.10566000000E+00  0.10566000000E+00 0. -1.
     999900   -1    0    0    0    0 -0.00000000000E+00 -0.00000000000E+00 -0.74505805969E-08  0.93827000000E+00  0.93827000000E+00 0. -1.
     999902    2    1    2    0    0 -0.71456386439E-02 -0.20822047447E-01  0.35474751921E-02  0.10216319644E+01  0.10213885981E+01 0.  0.
     999903    2    3    3    0    0 -0.21405737351E-01  0.12597297902E+00 -0.30872001128E-02  0.12933372439E+00  0.19755617556E-01 0.  0.
         14    1    1    2    0    0  0.71456386439E-02  0.20822047447E-01 -0.35474751921E-02  0.22298035603E-01  0.00000000000E+00 0.  1.
     999901    1    3    3    0    0  0.14260098707E-01 -0.14679502646E+00  0.66346753049E-02  0.89229824001E+00  0.88000000000E+00 0.  1.
        -11    1    4    4    0    0 -0.13923392880E-03  0.28561986563E-01  0.60791269326E-02  0.29206563779E-01  0.51100000000E-03 0.  1.
         11    1    4    4    0    0 -0.21266503422E-01  0.97410992454E-01 -0.91663270454E-02  0.10012716061E+00  0.51100000000E-03 0. -1.
</event>
<event>
 8    1  0.1054086E+005  0.1043930E+01  0.7957747E-01            NaN
         13   -1    0    0    0    0  0.00000000000E+00  0.00000000000E+00  0.74505805969E-08  0.10566000000E+00  0.10566000000E+00 0.  1.
     999900   -1    0    0    0    0 -0.00000000000E+00 -0.00000000000E+00 -0.74505805969E-08  0.93827000000E+00  0.93827000000E+00 0.  1.
     999902    2    1    2    0    0 -0.57172986847E-02  0.65422259680E-02  0.20987039607E-01  0.10212155980E+01  0.10209629541E+01 0.  0.
     999903    2    3    3    0    0 -0.85010693564E-01 -0.69370226297E-01  0.72259363160E-01  0.13291441373E+00  0.20143969251E-01 0.  0.
         14    1    1    2    0    0  0.57172986847E-02 -0.65422259680E-02 -0.20987039607E-01  0.22714401958E-01  0.00000000000E+00 0. -1.
     999901    1    3    3    0    0  0.79293394879E-01  0.75912452265E-01 -0.51272323554E-01  0.88830118431E+00  0.88000000000E+00 0. -1.
        -11    1    4    4    0    0 -0.66848269824E-01 -0.63113443988E-01  0.55313572732E-01  0.10729329168E+00  0.51100000000E-03 0.  1.
         11    1    4    4    0    0 -0.18162423740E-01 -0.62567823087E-02  0.16945790428E-01  0.25621122052E-01  0.51100000000E-03 0. -1.
</event>
<event>
 8    1  0.1054086E+005  0.1043930E+01  0.7957747E-01            NaN
         13   -1    0    0    0    0  0.00000000000E+00  0.00000000000E+00  0.74505805969E-08  0.10566000000E+00  0.10566000000E+00 0. -1.
     999900   -1    0    0    0    0 -0.00000000000E+00 -0.00000000000E+00 -0.74505805969E-08  0.93827000000E+00  0.93827000000E+00 0.  1.
     999902    2    1    2    0    0 -0.46201084878E-02  0.17639767892E-01  0.15215945315E-02  0.10256318563E+01  0.10254686161E+01 0.  0.
     999903    2    3    3    0    0 -0.54169699822E-01 -0.10720749745E+00  0.55380875863E-01  0.13381190592E+00  0.20267729681E-01 0.  0.
         14    1    1    2    0    0  0.46201084878E-02 -0.17639767892E-01 -0.15215945315E-02  0.18298143721E-01  0.00000000000E+00 0. -1.
     999901    1    3    3    0    0  0.49549591334E-01  0.12484726535E+00 -0.53859281332E-01  0.89181995036E+00  0.88000000000E+00 0.  1.
        -11    1    4    4    0    0 -0.12566216496E-01 -0.35954303591E-01  0.89273562832E-02  0.39122634816E-01  0.51100000000E-03 0. -1.
         11    1    4    4    0    0 -0.41603483327E-01 -0.71253193863E-01  0.46453519580E-01  0.94689271108E-01  0.51100000000E-03 0.  1.
</event>
<event>
 8    1  0.1054086E+005  0.1043930E+01  0.7957747E-01            NaN
         13   -1    0    0    0    0  0.00000000000E+00  0.00000000000E+00  0.74505805969E-08  0.10566000000E+00  0.10566000000E+00 0.  1.
     999900   -1    0    0    0    0 -0.00000000000E+00 -0.00000000000E+00 -0.74505805969E-08  0.93827000000E+00  0.93827000000E+00 0.  1.
     999902    2    1    2    0    0 -0.16716913139E-02 -0.16583947188E-01  0.17943572106E-01  0.10194393153E+01  0.10191450947E+01 0.  0.
     999903    2    3    3    0    0 -0.87830135103E-01  0.74298058541E-01  0.56474329070E-01  0.12973855909E+00  0.20209149812E-01 0.  0.
         14    1    1    2    0    0  0.16716913139E-02  0.16583947188E-01 -0.17943572106E-01  0.24490684680E-01  0.00000000000E+00 0. -1.
     999901    1    3    3    0    0  0.86158443789E-01 -0.90882005728E-01 -0.38530756964E-01  0.88970075623E+00  0.88000000000E+00 0.  1.
        -11    1    4    4    0    0 -0.70155629102E-01  0.62598749499E-01  0.37303151379E-01  0.10115434720E+00  0.51100000000E-03 0.  1.
         11    1    4    4    0    0 -0.17674506000E-01  0.11699309041E-01  0.19171177691E-01  0.28584211892E-01  0.51100000000E-03 0. -1.
</event>
<event>
 8    1  0.1054086E+005  0.1043930E+01  0.7957747E-01            NaN
         13   -1    0    0    0    0  0.00000000000E+00  0.00000000000E+00  0.74505805969E-08  0.10566000000E+00  0.10566000000E+00 0. -1.
     999900   -1    0    0    0    0 -0.00000000000E+00 -0.00000000000E+00 -0.74505805969E-08  0.93827000000E+00  0.93827000000E+00 0. -1.
     999902    2    1    2    0    0  0.31698439351E-02  0.91828698781E-02 -0.21312776428E-01  0.10205076293E+01  0.10202388025E+01 0.  0.
     999903    2    3    3    0    0  0.11727981625E-01  0.59749114571E-01  0.11267211709E+00  0.12888992058E+00  0.14494944431E-01 0.  0.
         14    1    1    2    0    0 -0.31698439351E-02 -0.91828698781E-02  0.21312776428E-01  0.23422370692E-01  0.00000000000E+00 0. -1.
     999901    1    3    3    0    0 -0.85581376904E-02 -0.50566244693E-01 -0.13398489351E+00  0.89161770873E+00  0.88000000000E+00 0. -1.
        -11    1    4    4    0    0  0.11084857363E-01  0.53083650042E-01  0.88429083532E-01  0.10373385127E+00  0.51100000000E-03 0.  1.
         11    1    4    4    0    0  0.64312426236E-03  0.66654645284E-02  0.24243033554E-01  0.25156069310E-01  0.51100000000E-03 0. -1.
</event>
<event>
 8    1  0.1054086E+005  0.1043930E+01  0.7957747E-01            NaN
         13   -1    0    0    0    0  0.00000000000E+00  0.00000000000E+00  0.74505805969E-08  0.10566000000E+00  0.10566000000E+00 0.  1.
     999900   -1    0    0    0    0 -0.00000000000E+00 -0.00000000000E+00 -0.74505805969E-08  0.93827000000E+00  0.93827000000E+00 0.  1.
     999902    2    1    2    0    0 -0.19013266984E-01  0.10761760773E-01  0.97976910207E-02  0.10199860119E+01  0.10197049328E+01 0.  0.
     999903    2    3    3    0    0 -0.92381149820E-01  0.59327610143E-01 -0.70401804647E-01  0.13196943151E+00  0.20136399590E-01 0.  0.
         14    1    1    2    0    0  0.19013266984E-01 -0.10761760773E-01 -0.97976910207E-02  0.23943988091E-01  0.00000000000E+00 0. -1.
     999901    1    3    3    0    0  0.73367882836E-01 -0.48565849369E-01  0.80199495667E-01  0.88801658040E+00  0.88000000000E+00 0.  1.
        -11    1    4    4    0    0 -0.91281031953E-01  0.57845970357E-01 -0.71669222090E-01  0.12967313367E+00  0.51100000000E-03 0.  1.
         11    1    4    4    0    0 -0.11001178676E-02  0.14816397861E-02  0.12674174438E-02  0.22962978368E-02  0.51100000000E-03 0. -1.
</event>
<event>
 8    1  0.1054086E+005  0.1043930E+01  0.7957747E-01            NaN
         13   -1    0    0    0    0  0.00000000000E+00  0.00000000000E+00  0.74505805969E-08  0.10566000000E+00  0.10566000000E+00 0. -1.
     999900   -1    0    0    0    0 -0.00000000000E+00 -0.00000000000E+00 -0.74505805969E-08  0.93827000000E+00  0.93827000000E+00 0. -1.
     999902    2    1    2    0    0  0.10352012800E-01  0.19626961433E-01 -0.10976737912E-01  0.10191737774E+01  0.10188730627E+01 0.  0.
     999903    2    3    3    0    0 -0.77527511670E-01  0.26492085270E-01  0.96309868183E-01  0.12828637898E+00  0.21666995065E-01 0.  0.
         14    1    1    2    0    0 -0.10352012800E-01 -0.19626961433E-01  0.10976737912E-01  0.24756222637E-01  0.00000000000E+00 0.  1.
     999901    1    3    3    0    0  0.87879524469E-01 -0.68651238368E-02 -0.10728660610E+00  0.89088739838E+00  0.88000000000E+00 0. -1.
        -11    1    4    4    0    0 -0.20583429459E-01  0.17504038940E-01  0.33189444105E-01  0.42800341920E-01  0.51100000000E-03 0.  1.
         11    1    4    4    0    0 -0.56944082211E-01  0.89880463297E-02  0.63120424079E-01  0.85486037062E-01  0.51100000000E-03 0. -1.
</event>
<event>
 8    1  0.1054086E+005  0.1043930E+01  0.7957747E-01            NaN
         13   -1    0    0    0    0  0.00000000000E+00  0.00000000000E+00  0.74505805969E-08  0.10566000000E+00  0.10566000000E+00 0.  1.
     999900   -1    0    0    0    0 -0.00000000000E+00 -0.00000000000E+00 -0.74505805969E-08  0.93827000000E+00  0.93827000000E+00 0.  1.
     999902    2    1    2    0    0  0.13539367673E-01  0.31159061521E-01  0.15523728712E-02  0.10099210092E+01  0.10093482221E+01 0.  0.
     999903    2    3    3    0    0 -0.27051423774E-01  0.31670295078E-01  0.11282098465E+00  0.12198600165E+00  0.20426034914E-01 0.  0.
         14    1    1    2    0    0 -0.13539367673E-01 -0.31159061521E-01 -0.15523728712E-02  0.34008990773E-01  0.00000000000E+00 0.  1.
     999901    1    3    3    0    0  0.40590791447E-01 -0.51123355669E-03 -0.11126861178E+00  0.88793500758E+00  0.88000000000E+00 0.  1.
        -11    1    4    4    0    0 -0.15577789234E-01  0.18093516715E-01  0.36482630649E-01  0.43603742094E-01  0.51100000000E-03 0.  1.
         11    1    4    4    0    0 -0.11473634540E-01  0.13576778363E-01  0.76338354004E-01  0.78382259558E-01  0.51100000000E-03 0. -1.
</event>
<event>
 8    1  0.1054086E+005  0.1043930E+01  0.7957747E-01            NaN
         13   -1    0    0    0    0  0.00000000000E+00  0.00000000000E+00  0.74505805969E-08  0.10566000000E+00  0.10566000000E+00 0.  1.
     999900   -1    0    0    0    0 -0.00000000000E+00 -0.00000000000E+00 -0.74505805969E-08  0.93827000000E+00  0.93827000000E+00 0.  1.
     999902    2    1    2    0    0  0.10420456804E-01 -0.35646007500E-02 -0.17429181900E-01  0.10233128062E+01  0.10231050927E+01 0.  0.
     999903    2    3    3    0    0 -0.55366896204E-01  0.97446266018E-01  0.65322712034E-01  0.13124832032E+00  0.19944847020E-01 0.  0.
         14    1    1    2    0    0 -0.10420456804E-01  0.35646007500E-02  0.17429181900E-01  0.20617193801E-01  0.00000000000E+00 0.  1.
     999901    1    3    3    0    0  0.65787353008E-01 -0.10101086677E+00 -0.82751893934E-01  0.89206448588E+00  0.88000000000E+00 0.  1.
        -11    1    4    4    0    0 -0.12770917398E-01  0.28185740499E-01  0.86485742647E-02  0.32133957996E-01  0.51100000000E-03 0. -1.
         11    1    4    4    0    0 -0.42595978806E-01  0.69260525519E-01  0.56674137769E-01  0.99114362322E-01  0.51100000000E-03 0.  1.
</event>
<event>
 8    1  0.1054086E+005  0.1043930E+01  0.7957747E-01            NaN
         13   -1    0    0    0    0  0.00000000000E+00  0.00000000000E+00  0.74505805969E-08  0.10566000000E+00  0.10566000000E+00 0.  1.
     999900   -1    0    0    0    0 -0.00000000000E+00 -0.00000000000E+00 -0.74505805969E-08  0.93827000000E+00  0.93827000000E+00 0. -1.
     999902    2    1    2    0    0 -0.91018865542E-02  0.18863475409E-01 -0.66541449560E-02  0.10219538154E+01  0.10217174992E+01 0.  0.
     999903    2    3    3    0    0 -0.12656425234E+00  0.38614997611E-01 -0.46197150532E-02  0.13392697523E+00  0.20136159374E-01 0.  0.
         14    1    1    2    0    0  0.91018865542E-02 -0.18863475409E-01  0.66541449560E-02  0.21976184574E-01  0.00000000000E+00 0. -1.
     999901    1    3    3    0    0  0.11746236579E+00 -0.19751522202E-01 -0.20344299028E-02  0.88802684020E+00  0.88000000000E+00 0.  1.
        -11    1    4    4    0    0 -0.42816864312E-01  0.23112780374E-01 -0.26811545223E-02  0.48733296592E-01  0.51100000000E-03 0. -1.
         11    1    4    4    0    0 -0.83747388033E-01  0.15502217237E-01 -0.19385605309E-02  0.85193678636E-01  0.51100000000E-03 0.  1.
</event>
<event>
 8    1  0.1054086E+005  0.1043930E+01  0.7957747E-01            NaN
         13   -1    0    0    0    0  0.00000000000E+00  0.00000000000E+00  0.74505805969E-08  0.10566000000E+00  0.10566000000E+00 0.  1.
     999900   -1    0    0    0    0 -0.00000000000E+00 -0.00000000000E+00 -0.74505805969E-08  0.93827000000E+00  0.93827000000E+00 0.  1.
     999902    2    1    2    0    0  0.11468111661E-01  0.59301144852E-03 -0.20220868554E-01  0.10206759085E+01  0.10204109747E+01 0.  0.
     999903    2    3    3    0    0 -0.12186861530E+00  0.32024007246E-01 -0.25566318661E-01  0.13006086027E+00  0.19613625044E-01 0.  0.
         14    1    1    2    0    0 -0.11468111661E-01 -0.59301144852E-03  0.20220868554E-01  0.23254091526E-01  0.00000000000E+00 0.  1.
     999901    1    3    3    0    0  0.13333672697E+00 -0.31430995798E-01  0.53454501073E-02  0.89061504821E+00  0.88000000000E+00 0.  1.
        -11    1    4    4    0    0 -0.10026126228E+00  0.26250818302E-01 -0.28522555924E-01  0.10749522544E+00  0.51100000000E-03 0. -1.
         11    1    4    4    0    0 -0.21607353025E-01  0.57731889442E-02  0.29562372627E-02  0.22565634826E-01  0.51100000000E-03 0.  1.
</event>
<event>
 8    1  0.1054086E+005  0.1043930E+01  0.7957747E-01            NaN
         13   -1    0    0    0    0  0.00000000000E+00  0.00000000000E+00  0.74505805969E-08  0.10566000000E+00  0.10566000000E+00 0. -1.
     999900   -1    0    0    0    0 -0.00000000000E+00 -0.00000000000E+00 -0.74505805969E-08  0.93827000000E+00  0.93827000000E+00 0.  1.
     999902    2    1    2    0    0 -0.14759642587E-02 -0.23543722267E-02  0.22361757113E-01  0.10213962537E+01  0.10211476570E+01 0.  0.
     999903    2    3    3    0    0 -0.36633007450E-01  0.80976660728E-02  0.12711295125E+00  0.13442496026E+00  0.22468158235E-01 0.  0.
         14    1    1    2    0    0  0.14759642587E-02  0.23543722267E-02 -0.22361757113E-01  0.22533746254E-01  0.00000000000E+00 0.  1.
     999901    1    3    3    0    0  0.35157043191E-01 -0.10452038299E-01 -0.10475119414E+00  0.88697129348E+00  0.88000000000E+00 0.  1.
        -11    1    4    4    0    0 -0.33200121895E-01  0.39563964643E-02  0.76049211796E-01  0.83076139189E-01  0.51100000000E-03 0.  1.
         11    1    4    4    0    0 -0.34328855551E-02  0.41412696084E-02  0.51063739457E-01  0.51348821073E-01  0.51100000000E-03 0. -1.
</event>
<event>
 8    1  0.1054086E+005  0.1043930E+01  0.7957747E-01            NaN
         13   -1    0    0    0    0  0.00000000000E+00  0.00000000000E+00  0.74505805969E-08  0.10566000000E+00  0.10566000000E+00 0. -1.
     999900   -1    0    0    0    0 -0.00000000000E+00 -0.00000000000E+00 -0.74505805969E-08  0.93827000000E+00  0.93827000000E+00 0. -1.
     999902    2    1    2    0    0  0.19659654093E-01 -0.52898679199E-02 -0.11804236001E-01  0.10203965198E+01  0.10201251065E+01 0.  0.
     999903    2    3    3    0    0  0.71841094324E-01  0.39294371906E-01  0.99986441355E-01  0.13067307252E+00  0.19312507051E-01 0.  0.
         14    1    1    2    0    0 -0.19659654093E-01  0.52898679199E-02  0.11804236001E-01  0.23533480177E-01  0.00000000000E+00 0.  1.
     999901    1    3    3    0    0 -0.52181440231E-01 -0.44584239826E-01 -0.11179067736E+00  0.88972344731E+00  0.88000000000E+00 0.  1.
        -11    1    4    4    0    0  0.27812871172E-01  0.10872970305E-01  0.23740429032E-01  0.38152934064E-01  0.51100000000E-03 0. -1.
         11    1    4    4    0    0  0.44028223153E-01  0.28421401601E-01  0.76246012323E-01  0.92520138452E-01  0.51100000000E-03 0.  1.
</event>
<event>
 8    1  0.1054086E+005  0.1043930E+01  0.7957747E-01            NaN
         13   -1    0    0    0    0  0.00000000000E+00  0.00000000000E+00  0.74505805969E-08  0.10566000000E+00  0.10566000000E+00 0.  1.
     999900   -1    0    0    0    0 -0.00000000000E+00 -0.00000000000E+00 -0.74505805969E-08  0.93827000000E+00  0.93827000000E+00 0. -1.
     999902    2    1    2    0    0  0.15258779323E-01  0.99872337626E-02 -0.14601546085E-01  0.10205680580E+01  0.10203006325E+01 0.  0.
     999903    2    3    3    0    0 -0.11504613489E+00 -0.42162795547E-01 -0.37726823592E-01  0.12914572564E+00  0.15556051888E-01 0.  0.
         14    1    1    2    0    0 -0.15258779323E-01 -0.99872337626E-02  0.14601546085E-01  0.23361941972E-01  0.00000000000E+00 0.  1.
     999901    1    3    3    0    0  0.13030491421E+00  0.52150029310E-01  0.23125277507E-01  0.89142233239E+00  0.88000000000E+00 0. -1.
        -11    1    4    4    0    0 -0.44933248891E-01 -0.11845950565E-01 -0.20750378965E-01  0.50893641537E-01  0.51100000000E-03 0.  1.
         11    1    4    4    0    0 -0.70112885999E-01 -0.30316844982E-01 -0.16976444628E-01  0.78252084100E-01  0.51100000000E-03 0. -1.
</event>
<event>
 8    1  0.1054086E+005  0.1043930E+01  0.7957747E-01            NaN
         13   -1    0    0    0    0  0.00000000000E+00  0.00000000000E+00  0.74505805969E-08  0.10566000000E+00  0.10566000000E+00 0.  1.
     999900   -1    0    0    0    0 -0.00000000000E+00 -0.00000000000E+00 -0.74505805969E-08  0.93827000000E+00  0.93827000000E+00 0. -1.
     999902    2    1    2    0    0 -0.64327419919E-02  0.16984726957E-01 -0.14918723501E-02  0.10257067510E+01  0.10255448563E+01 0.  0.
     999903    2    3    3    0    0  0.11027962441E+00 -0.60565298864E-01  0.40741776033E-01  0.13361961179E+00  0.19093385093E-01 0.  0.
         14    1    1    2    0    0  0.64327419919E-02 -0.16984726957E-01  0.14918723501E-02  0.18223248954E-01  0.00000000000E+00 0.  1.
     999901    1    3    3    0    0 -0.11671236640E+00  0.77550025821E-01 -0.42233648384E-01  0.89208713926E+00  0.88000000000E+00 0. -1.
        -11    1    4    4    0    0  0.48643252566E-01 -0.19215161512E-01  0.98437673818E-02  0.53221699797E-01  0.51100000000E-03 0.  1.
         11    1    4    4    0    0  0.61636371840E-01 -0.41350137353E-01  0.30898008652E-01  0.80397911990E-01  0.51100000000E-03 0. -1.
</event>
<event>
 8    1  0.1054086E+005  0.1043930E+01  0.7957747E-01            NaN
         13   -1    0    0    0    0  0.00000000000E+00  0.00000000000E+00  0.74505805969E-08  0.10566000000E+00  0.10566000000E+00 0. -1.
     999900   -1    0    0    0    0 -0.00000000000E+00 -0.00000000000E+00 -0.74505805969E-08  0.93827000000E+00  0.93827000000E+00 0. -1.
     999902    2    1    2    0    0 -0.67311406697E-02  0.39736918149E-03  0.21669145793E-01  0.10212359912E+01  0.10209838058E+01 0.  0.
     999903    2    3    3    0    0 -0.98508530463E-01 -0.46887782578E-02  0.87910557571E-01  0.13397228584E+00  0.22234928063E-01 0.  0.
         14    1    1    2    0    0  0.67311406697E-02 -0.39736918149E-03 -0.21669145793E-01  0.22694008821E-01  0.00000000000E+00 0.  1.
     999901    1    3    3    0    0  0.91777389793E-01  0.50861474393E-02 -0.66241411779E-01  0.88726370534E+00  0.88000000000E+00 0. -1.
        -11    1    4    4    0    0 -0.37386298138E-01  0.61757013104E-02  0.23914873103E-01  0.44811347354E-01  0.51100000000E-03 0. -1.
         11    1    4    4    0    0 -0.61122232325E-01 -0.10864479568E-01  0.63995684469E-01  0.89160938489E-01  0.51100000000E-03 0.  1.
</event>
<event>
 8    1  0.1054086E+005  0.1043930E+01  0.7957747E-01            NaN
         13   -1    0    0    0    0  0.00000000000E+00  0.00000000000E+00  0.74505805969E-08  0.10566000000E+00  0.10566000000E+00 0.  1.
     999900   -1    0    0    0    0 -0.00000000000E+00 -0.00000000000E+00 -0.74505805969E-08  0.93827000000E+00  0.93827000000E+00 0. -1.
     999902    2    1    2    0    0  0.10459044997E-01  0.13325801329E-01  0.17009206468E-01  0.10199241318E+01  0.10196415806E+01 0.  0.
     999903    2    3    3    0    0 -0.10287167389E+00 -0.73185312388E-01 -0.93029756766E-02  0.12806071425E+00  0.19347608103E-01 0.  0.
         14    1    1    2    0    0 -0.10459044997E-01 -0.13325801329E-01 -0.17009206468E-01  0.24005868199E-01  0.00000000000E+00 0. -1.
     999901    1    3    3    0    0  0.11333071889E+00  0.86511113716E-01  0.26312182144E-01  0.89186341755E+00  0.88000000000E+00 0. -1.
        -11    1    4    4    0    0 -0.23230910991E-01 -0.20039080738E-01  0.55106819603E-02  0.31174809044E-01  0.51100000000E-03 0.  1.
         11    1    4    4    0    0 -0.79640762898E-01 -0.53146231650E-01 -0.14813657637E-01  0.96885905204E-01  0.51100000000E-03 0. -1.
</event>
<event>
 8    1  0.1054086E+005  0.1043930E+01  0.7957747E-01            NaN
         13   -1    0    0    0    0  0.00000000000E+00  0.00000000000E+00  0.74505805969E-08  0.10566000000E+00  0.10566000000E+00 0. -1.
     999900   -1    0    0    0    0 -0.00000000000E+00 -0.00000000000E+00 -0.74505805969E-08  0.93827000000E+00  0.93827000000E+00 0. -1.
     999902    2    1    2    0    0  0.17136453398E-01 -0.66336606881E-02  0.81178251722E-02  0.10238411331E+01  0.10236440315E+01 0.  0.
     999903    2    3    3    0    0 -0.13096478143E-01  0.13023064535E+00  0.82808985749E-02  0.13274860420E+00  0.20544583413E-01 0.  0.
         14    1    1    2    0    0 -0.17136453398E-01  0.66336606881E-02 -0.81178251722E-02  0.20088866935E-01  0.00000000000E+00 0. -1.
     999901    1    3    3    0    0  0.30232931541E-01 -0.13686430603E+00 -0.16307340267E-03  0.89109252887E+00  0.88000000000E+00 0.  1.
        -11    1    4    4    0    0 -0.86292141923E-02  0.50975786351E-01  0.12710007300E-01  0.53242835558E-01  0.51100000000E-03 0.  1.
         11    1    4    4    0    0 -0.44672639506E-02  0.79254858995E-01 -0.44291087255E-02  0.79505768637E-01  0.51100000000E-03 0. -1.
</event>
<event>
 8    1  0.1054086E+005  0.1043930E+01  0.7957747E-01            NaN
         13   -1    0    0    0    0  0.00000000000E+00  0.00000000000E+00  0.74505805969E-08  0.10566000000E+00  0.10566000000E+00 0. -1.
     999900   -1    0    0    0    0 -0.00000000000E+00 -0.00000000000E+00 -0.74505805969E-08  0.93827000000E+00  0.93827000000E+00 0.  1.
     999902    2    1    2    0    0 -0.15372119147E-01 -0.18086258085E-01  0.45545428106E-02  0.10197606260E+01  0.10194741663E+01 0.  0.
     999903    2    3    3    0    0  0.49876569395E-01  0.28520171382E-01 -0.11297951939E+00  0.12833266684E+00  0.20095502646E-01 0.  0.
         14    1    1    2    0    0  0.15372119147E-01  0.18086258085E-01 -0.45545428106E-02  0.24169373985E-01  0.00000000000E+00 0.  1.
     999901    1    3    3    0    0 -0.65248688543E-01 -0.46606429468E-01  0.11753406220E+00  0.89142795918E+00  0.88000000000E+00 0. -1.
        -11    1    4    4    0    0  0.19314022817E-01  0.99423118614E-02 -0.23695150386E-01  0.32149686084E-01  0.51100000000E-03 0.  1.
         11    1    4    4    0    0  0.30562546578E-01  0.18577859521E-01 -0.89284369002E-01  0.96182980755E-01  0.51100000000E-03 0. -1.
</event>
<event>
 8    1  0.1054086E+005  0.1043930E+01  0.7957747E-01            NaN
         13   -1    0    0    0    0  0.00000000000E+00  0.00000000000E+00  0.74505805969E-08  0.10566000000E+00  0.10566000000E+00 0. -1.
     999900   -1    0    0    0    0 -0.00000000000E+00 -0.00000000000E+00 -0.74505805969E-08  0.93827000000E+00  0.93827000000E+00 0.  1.
     999902    2    1    2    0    0  0.67787768933E-02  0.20939243321E-01 -0.77626935387E-02  0.10205919808E+01  0.10203251091E+01 0.  0.
     999903    2    3    3    0    0  0.12157659385E+00 -0.40663549104E-01  0.15960804217E-01  0.13068398158E+00  0.19727224176E-01 0.  0.
         14    1    1    2    0    0 -0.67787768933E-02 -0.20939243321E-01  0.77626935387E-02  0.23338019153E-01  0.00000000000E+00 0. -1.
     999901    1    3    3    0    0 -0.11479781695E+00  0.61602792425E-01 -0.23723497755E-01  0.88990799927E+00  0.88000000000E+00 0.  1.
        -11    1    4    4    0    0  0.38283193194E-01 -0.21873711885E-01  0.90762009372E-02  0.45018892670E-01  0.51100000000E-03 0. -1.
         11    1    4    4    0    0  0.83293400652E-01 -0.18789837220E-01  0.68846032794E-02  0.85665088911E-01  0.51100000000E-03 0.  1.
</event>
<event>
 8    1  0.1054086E+005  0.1043930E+01  0.7957747E-01            NaN
         13   -1    0    0    0    0  0.00000000000E+00  0.00000000000E+00  0.74505805969E-08  0.10566000000E+00  0.10566000000E+00 0. -1.
     999900   -1    0    0    0    0 -0.00000000000E+00 -0.00000000000E+00 -0.74505805969E-08  0.93827000000E+00  0.93827000000E+00 0. -1.
     999902    2    1    2    0    0  0.94821097468E-02 -0.13538996465E-01 -0.16514107601E-01  0.10205648426E+01  0.10202973426E+01 0.  0.
     999903    2    3    3    0    0 -0.63934495721E-02 -0.12917868291E+00 -0.22463165016E-01  0.13283742850E+00  0.20326837250E-01 0.  0.
         14    1    1    2    0    0 -0.94821097468E-02  0.13538996465E-01  0.16514107601E-01  0.23365157401E-01  0.00000000000E+00 0. -1.
     999901    1    3    3    0    0  0.15875559319E-01  0.11563968644E+00  0.59490574153E-02  0.88772741410E+00  0.88000000000E+00 0.  1.
        -11    1    4    4    0    0 -0.12667646869E-01 -0.10969477198E+00 -0.18026213973E-01  0.11188662918E+00  0.51100000000E-03 0. -1.
         11    1    4    4    0    0  0.62741972973E-02 -0.19483910924E-01 -0.44369510435E-02  0.20950799321E-01  0.51100000000E-03 0.  1.
</event>
<event>
 8    1  0.1054086E+005  0.1043930E+01  0.7957747E-01            NaN
         13   -1    0    0    0    0  0.00000000000E+00  0.00000000000E+00  0.74505805969E-08  0.10566000000E+00  0.10566000000E+00 0.  1.
     999900   -1    0    0    0    0 -0.00000000000E+00 -0.00000000000E+00 -0.74505805969E-08  0.93827000000E+00  0.93827000000E+00 0. -1.
     999902    2    1    2    0    0 -0.17404440441E-01 -0.15468380193E-01  0.56738123475E-02  0.10199638264E+01  0.10196822199E+01 0.  0.
     999903    2    3    3    0    0 -0.34548736679E-01 -0.11385779475E+00  0.55648479705E-01  0.13290583999E+00  0.20248367275E-01 0.  0.
         14    1    1    2    0    0  0.17404440441E-01  0.15468380193E-01 -0.56738123475E-02  0.23966173650E-01  0.00000000000E+00 0. -1.
     999901    1    3    3    0    0  0.17144296238E-01  0.98389414561E-01 -0.49974667357E-01  0.88705798636E+00  0.88000000000E+00 0.  1.
        -11    1    4    4    0    0  0.28031265886E-03 -0.13918818917E-01  0.12132400802E-01  0.18473450286E-01  0.51100000000E-03 0. -1.
         11    1    4    4    0    0 -0.34829049337E-01 -0.99938975836E-01  0.43516078903E-01  0.11443238970E+00  0.51100000000E-03 0.  1.
</event>
<event>
 8    1  0.1054086E+005  0.1043930E+01  0.7957747E-01            NaN
         13   -1    0    0    0    0  0.00000000000E+00  0.00000000000E+00  0.74505805969E-08  0.10566000000E+00  0.10566000000E+00 0.  1.
     999900   -1    0    0    0    0 -0.00000000000E+00 -0.00000000000E+00 -0.74505805969E-08  0.93827000000E+00  0.93827000000E+00 0.  1.
     999902    2    1    2    0    0 -0.15652012866E-01  0.17554698459E-01  0.25322635782E-02  0.10202748673E+01  0.10200006076E+01 0.  0.
     999903    2    3    3    0    0 -0.47064809409E-01  0.44541528893E-01 -0.11298404125E+00  0.13175977485E+00  0.19904788662E-01 0.  0.
         14    1    1    2    0    0  0.15652012866E-01 -0.17554698459E-01 -0.25322635782E-02  0.23655132711E-01  0.00000000000E+00 0.  1.
     999901    1    3    3    0    0  0.31412796543E-01 -0.26986830434E-01  0.11551630483E+00  0.88851509243E+00  0.88000000000E+00 0. -1.
        -11    1    4    4    0    0 -0.32274022801E-01  0.29209520425E-01 -0.56057202124E-01  0.70975204559E-01  0.51100000000E-03 0. -1.
         11    1    4    4    0    0 -0.14790786608E-01  0.15332008468E-01 -0.56926839125E-01  0.60784570295E-01  0.51100000000E-03 0.  1.
</event>
<event>
 8    1  0.1054086E+005  0.1043930E+01  0.7957747E-01            NaN
         13   -1    0    0    0    0  0.00000000000E+00  0.00000000000E+00  0.74505805969E-08  0.10566000000E+00  0.10566000000E+00 0.  1.
     999900   -1    0    0    0    0 -0.00000000000E+00 -0.00000000000E+00 -0.74505805969E-08  0.93827000000E+00  0.93827000000E+00 0.  1.
     999902    2    1    2    0    0  0.11611279286E-01  0.15864321555E-01  0.11638184189E-01  0.10210838661E+01  0.10208282498E+01 0.  0.
     999903    2    3    3    0    0 -0.12821280765E+00  0.63420003068E-02 -0.68108126241E-03  0.12990867891E+00  0.19926263347E-01 0.  0.
         14    1    1    2    0    0 -0.11611279286E-01 -0.15864321555E-01 -0.11638184189E-01  0.22846133946E-01  0.00000000000E+00 0. -1.
     999901    1    3    3    0    0  0.13982408693E+00  0.95223212484E-02  0.12319265451E-01  0.89117518715E+00  0.88000000000E+00 0. -1.
        -11    1    4    4    0    0 -0.56226320401E-01 -0.55145935465E-02 -0.56576280739E-02  0.56780980303E-01  0.51100000000E-03 0. -1.
         11    1    4    4    0    0 -0.71986487245E-01  0.11856593853E-01  0.49765468115E-02  0.73127698602E-01  0.51100000000E-03 0.  1.
</event>
<event>
 8    1  0.1054086E+005  0.1043930E+01  0.7957747E-01            NaN
         13   -1    0    0    0    0  0.00000000000E+00  0.00000000000E+00  0.74505805969E-08  0.10566000000E+00  0.10566000000E+00 0. -1.
     999900   -1    0    0    0    0 -0.00000000000E+00 -0.00000000000E+00 -0.74505805969E-08  0.93827000000E+00  0.93827000000E+00 0. -1.
     999902    2    1    2    0    0 -0.52250460934E-02 -0.23378654780E-01  0.21747019012E-02  0.10198760620E+01  0.10195923646E+01 0.  0.
     999903    2    3    3    0    0  0.55797458605E-01  0.10131340437E+00 -0.49841875450E-01  0.12747616282E+00  0.19702721807E-01 0.  0.
         14    1    1    2    0    0  0.52250460934E-02  0.23378654780E-01 -0.21747019012E-02  0.24053938021E-01  0.00000000000E+00 0.  1.
     999901    1    3    3    0    0 -0.61022504699E-01 -0.12469205915E+00  0.52016577352E-01  0.89239989916E+00  0.88000000000E+00 0. -1.
        -11    1    4    4    0    0  0.50078967976E-01  0.85606848097E-01 -0.35176079698E-01  0.10523332732E+00  0.51100000000E-03 0.  1.
         11    1    4    4    0    0  0.57184906293E-02  0.15706556277E-01 -0.14665795752E-01  0.22242835503E-01  0.51100000000E-03 0. -1.
</event>
<event>
 8    1  0.1054086E+005  0.1043930E+01  0.7957747E-01            NaN
         13   -1    0    0    0    0  0.00000000000E+00  0.00000000000E+00  0.74505805969E-08  0.10566000000E+00  0.10566000000E+00 0.  1.
     999900   -1    0    0    0    0 -0.00000000000E+00 -0.00000000000E+00 -0.74505805969E-08  0.93827000000E+00  0.93827000000E+00 0. -1.
     999902    2    1    2    0    0  0.12011884467E-01  0.14702619226E-01  0.15341922692E-01  0.10195204328E+01  0.10192281814E+01 0.  0.
     999903    2    3    3    0    0  0.12179649734E+00  0.28530819513E-01 -0.36254035171E-01  0.13109146925E+00  0.14907173355E-01 0.  0.
         14    1    1    2    0    0 -0.12011884467E-01 -0.14702619226E-01 -0.15341922692E-01  0.24409567232E-01  0.00000000000E+00 0. -1.
     999901    1    3    3    0    0 -0.10978461288E+00 -0.13828200287E-01  0.51595957864E-01  0.88842896352E+00  0.88000000000E+00 0.  1.
        -11    1    4    4    0    0  0.43105241527E-01  0.34732652846E-02 -0.15456013494E-01  0.45926842837E-01  0.51100000000E-03 0. -1.
         11    1    4    4    0    0  0.78691255815E-01  0.25057554228E-01 -0.20798021678E-01  0.85164626415E-01  0.51100000000E-03 0.  1.
</event>
<event>
 8    1  0.1054086E+005  0.1043930E+01  0.7957747E-01            NaN
         13   -1    0    0    0    0  0.00000000000E+00  0.00000000000E+00  0.74505805969E-08  0.10566000000E+00  0.10566000000E+00 0. -1.
     999900   -1    0    0    0    0 -0.00000000000E+00 -0.00000000000E+00 -0.74505805969E-08  0.93827000000E+00  0.93827000000E+00 0. -1.
     999902    2    1    2    0    0 -0.45670920602E-02  0.18419419680E-01 -0.14825878809E-01  0.10198480559E+01  0.10195636895E+01 0.  0.
     999903    2    3    3    0    0 -0.31870659780E-01 -0.12257166660E+00 -0.14026469647E-02  0.12810585411E+00  0.19224724511E-01 0.  0.
         14    1    1    2    0    0  0.45670920602E-02 -0.18419419680E-01  0.14825878809E-01  0.24081944143E-01  0.00000000000E+00 0. -1.
     999901    1    3    3    0    0  0.27303567720E-01  0.14099108628E+00 -0.13423231845E-01  0.89174220174E+00  0.88000000000E+00 0.  1.
        -11    1    4    4    0    0 -0.17556995705E-01 -0.97493148775E-01 -0.37212188525E-02  0.99132591750E-01  0.51100000000E-03 0. -1.
         11    1    4    4    0    0 -0.14313664075E-01 -0.25078517820E-01  0.23185718878E-02  0.28973262362E-01  0.51100000000E-03 0.  1.
</event>
<event>
 8    1  0.1054086E+005  0.1043930E+01  0.7957747E-01            NaN
         13   -1    0    0    0    0  0.00000000000E+00  0.00000000000E+00  0.74505805969E-08  0.10566000000E+00  0.10566000000E+00 0. -1.
     999900   -1    0    0    0    0 -0.00000000000E+00 -0.00000000000E+00 -0.74505805969E-08  0.93827000000E+00  0.93827000000E+00 0. -1.
     999902    2    1    2    0    0 -0.23423686403E-01 -0.28754230758E-02 -0.32556477219E-02  0.10201069778E+01  0.10198287650E+01 0.  0.
     999903    2    3    3    0    0 -0.80576790270E-01  0.80890310346E-01  0.62732585048E-01  0.13182908088E+00  0.20190787495E-01 0.  0.
         14    1    1    2    0    0  0.23423686403E-01  0.28754230758E-02  0.32556477219E-02  0.23823022156E-01  0.00000000000E+00 0. -1.
     999901    1    3    3    0    0  0.57153103867E-01 -0.83765733422E-01 -0.65988232770E-01  0.88827789697E+00  0.88000000000E+00 0.  1.
        -11    1    4    4    0    0 -0.23140581670E-01  0.35991627863E-01  0.27413880958E-01  0.50819934932E-01  0.51100000000E-03 0.  1.
         11    1    4    4    0    0 -0.57436208600E-01  0.44898682483E-01  0.35318704089E-01  0.81009145944E-01  0.51100000000E-03 0. -1.
</event>
<event>
 8    1  0.1054086E+005  0.1043930E+01  0.7957747E-01            NaN
         13   -1    0    0    0    0  0.00000000000E+00  0.00000000000E+00  0.74505805969E-08  0.10566000000E+00  0.10566000000E+00 0.  1.
     999900   -1    0    0    0    0 -0.00000000000E+00 -0.00000000000E+00 -0.74505805969E-08  0.93827000000E+00  0.93827000000E+00 0. -1.
     999902    2    1    2    0    0 -0.32273880114E-02 -0.50214973955E-02  0.22925009018E-01  0.10202406035E+01  0.10199655393E+01 0.  0.
     999903    2    3    3    0    0 -0.80045254928E-01  0.54156436907E-01 -0.82592698198E-01  0.12864820830E+00  0.19714086558E-01 0.  0.
         14    1    1    2    0    0  0.32273880114E-02  0.50214973955E-02 -0.22925009018E-01  0.23689396530E-01  0.00000000000E+00 0. -1.
     999901    1    3    3    0    0  0.76817866917E-01 -0.59177934302E-01  0.10551770722E+00  0.89159239517E+00  0.88000000000E+00 0.  1.
        -11    1    4    4    0    0 -0.68341183222E-01  0.36793678704E-01 -0.63005789354E-01  0.99971409562E-01  0.51100000000E-03 0.  1.
         11    1    4    4    0    0 -0.11704071706E-01  0.17362758203E-01 -0.19586908844E-01  0.28676798740E-01  0.51100000000E-03 0. -1.
</event>
<event>
 8    1  0.1054086E+005  0.1043930E+01  0.7957747E-01            NaN
         13   -1    0    0    0    0  0.00000000000E+00  0.00000000000E+00  0.74505805969E-08  0.10566000000E+00  0.10566000000E+00 0.  1.
     999900   -1    0    0    0    0 -0.00000000000E+00 -0.00000000000E+00 -0.74505805969E-08  0.93827000000E+00  0.93827000000E+00 0. -1.
     999902    2    1    2    0    0  0.15333108177E-01 -0.13550356891E-01  0.12970117500E-01  0.10197031487E+01  0.10194153084E+01 0.  0.
     999903    2    3    3    0    0  0.11265294189E+00 -0.64831051802E-01 -0.14846005279E-01  0.13241819082E+00  0.20504214038E-01 0.  0.
         14    1    1    2    0    0 -0.15333108177E-01  0.13550356891E-01 -0.12970117500E-01  0.24226851347E-01  0.00000000000E+00 0. -1.
     999901    1    3    3    0    0 -0.97319833715E-01  0.51280694911E-01  0.27816122779E-01  0.88728495783E+00  0.88000000000E+00 0. -1.
        -11    1    4    4    0    0  0.76957472942E-01 -0.36397198887E-01 -0.16644120708E-01  0.86743856287E-01  0.51100000000E-03 0.  1.
         11    1    4    4    0    0  0.35695468950E-01 -0.28433852915E-01  0.17981154292E-02  0.45674334536E-01  0.51100000000E-03 0. -1.
</event>
<event>
 8    1  0.1054086E+005  0.1043930E+01  0.7957747E-01            NaN
         13   -1    0    0    0    0  0.00000000000E+00  0.00000000000E+00  0.74505805969E-08  0.10566000000E+00  0.10566000000E+00 0.  1.
     999900   -1    0    0    0    0 -0.00000000000E+00 -0.00000000000E+00 -0.74505805969E-08  0.93827000000E+00  0.93827000000E+00 0.  1.
     999902    2    1    2    0    0 -0.20329000924E-01  0.31379868711E-02 -0.11812930983E-01  0.10202095325E+01  0.10199337379E+01 0.  0.
     999903    2    3    3    0    0 -0.10810812516E+00  0.51153471388E-01 -0.56034083134E-01  0.13343663502E+00  0.19012436232E-01 0.  0.
         14    1    1    2    0    0  0.20329000924E-01 -0.31379868711E-02  0.11812930983E-01  0.23720467503E-01  0.00000000000E+00 0. -1.
     999901    1    3    3    0    0  0.87779124237E-01 -0.48015484517E-01  0.44221152150E-01  0.88677289748E+00  0.88000000000E+00 0.  1.
        -11    1    4    4    0    0 -0.36716486122E-01  0.95222177543E-02 -0.23467024939E-01  0.44606449809E-01  0.51100000000E-03 0. -1.
         11    1    4    4    0    0 -0.71391639038E-01  0.41631253634E-01 -0.32567058195E-01  0.88830185209E-01  0.51100000000E-03 0.  1.
</event>
<event>
 8    1  0.1054086E+005  0.1043930E+01  0.7957747E-01            NaN
         13   -1    0    0    0    0  0.00000000000E+00  0.00000000000E+00  0.74505805969E-08  0.10566000000E+00  0.10566000000E+00 0. -1.
     999900   -1    0    0    0    0 -0.00000000000E+00 -0.00000000000E+00 -0.74505805969E-08  0.93827000000E+00  0.93827000000E+00 0. -1.
     999902    2    1    2    0    0  0.14271264341E-01  0.19414809030E-02  0.17632494415E-01  0.10211628484E+01  0.10209090164E+01 0.  0.
     999903    2    3    3    0    0 -0.46704932043E-01 -0.11057955781E+00 -0.44888568942E-01  0.12971012161E+00  0.20013564044E-01 0.  0.
         14    1    1    2    0    0 -0.14271264341E-01 -0.19414809030E-02 -0.17632494415E-01  0.22767151629E-01  0.00000000000E+00 0.  1.
     999901    1    3    3    0    0  0.60976196384E-01  0.11252103871E+00  0.62521063357E-01  0.89145272676E+00  0.88000000000E+00 0.  1.
        -11    1    4    4    0    0 -0.45883780601E-01 -0.89487863808E-01 -0.36332755718E-01  0.10692861801E+00  0.51100000000E-03 0. -1.
         11    1    4    4    0    0 -0.82115144267E-03 -0.21091693999E-01 -0.85558132242E-02  0.22781503602E-01  0.51100000000E-03 0.  1.
</event>
<event>
 8    1  0.1054086E+005  0.1043930E+01  0.7957747E-01            NaN
         13   -1    0    0    0    0  0.00000000000E+00  0.00000000000E+00  0.74505805969E-08  0.10566000000E+00  0.10566000000E+00 0. -1.
     999900   -1    0    0    0    0 -0.00000000000E+00 -0.00000000000E+00 -0.74505805969E-08  0.93827000000E+00  0.93827000000E+00 0. -1.
     999902    2    1    2    0    0 -0.69513347517E-02  0.36261680068E-02 -0.21976966062E-01  0.10205963936E+01  0.10203296239E+01 0.  0.
     999903    2    3    3    0    0 -0.10092585953E+00  0.45091497641E-01 -0.68299753810E-01  0.13341186629E+00  0.30242311694E-01 0.  0.
         14    1    1    2    0    0  0.69513347517E-02 -0.36261680068E-02  0.21976966062E-01  0.23333606376E-01  0.00000000000E+00 0. -1.
     999901    1    3    3    0    0  0.93974524776E-01 -0.41465329634E-01  0.46322787748E-01  0.88718452733E+00  0.88000000000E+00 0.  1.
        -11    1    4    4    0    0 -0.23255294254E-01  0.18529140416E-01 -0.59475296533E-02  0.30327742833E-01  0.51100000000E-03 0. -1.
         11    1    4    4    0    0 -0.77670565274E-01  0.26562357225E-01 -0.62352224157E-01  0.10308412346E+00  0.51100000000E-03 0.  1.
</event>
<event>
 8    1  0.1054086E+005  0.1043930E+01  0.7957747E-01            NaN
         13   -1    0    0    0    0  0.00000000000E+00  0.00000000000E+00  0.74505805969E-08  0.10566000000E+00  0.10566000000E+00 0. -1.
     999900   -1    0    0    0    0 -0.00000000000E+00 -0.00000000000E+00 -0.74505805969E-08  0.93827000000E+00  0.93827000000E+00 0. -1.
     999902    2    1    2    0    0  0.17519233667E-01  0.11467699309E-01 -0.10820831270E-01  0.10203604844E+01  0.10200882296E+01 0.  0.
     999903    2    3    3    0    0  0.79514936085E-01  0.82691509576E-01 -0.65535846297E-01  0.13361924192E+00  0.19966067330E-01 0.  0.
         14    1    1    2    0    0 -0.17519233667E-01 -0.11467699309E-01  0.10820831270E-01  0.23569515589E-01  0.00000000000E+00 0. -1.
     999901    1    3    3    0    0 -0.61995702418E-01 -0.71223810267E-01  0.54715015027E-01  0.88674124249E+00  0.88000000000E+00 0.  1.
        -11    1    4    4    0    0  0.48475838383E-01  0.47804866218E-01 -0.27647851143E-01  0.73483854926E-01  0.51100000000E-03 0.  1.
         11    1    4    4    0    0  0.31039097702E-01  0.34886643358E-01 -0.37887995154E-01  0.60135386993E-01  0.51100000000E-03 0. -1.
</event>
<event>
 8    1  0.1054086E+005  0.1043930E+01  0.7957747E-01            NaN
         13   -1    0    0    0    0  0.00000000000E+00  0.00000000000E+00  0.74505805969E-08  0.10566000000E+00  0.10566000000E+00 0.  1.
     999900   -1    0    0    0    0 -0.00000000000E+00 -0.00000000000E+00 -0.74505805969E-08  0.93827000000E+00  0.93827000000E+00 0.  1.
     999902    2    1    2    0    0  0.21241349278E-01  0.93344290593E-02 -0.34463218775E-02  0.10204735804E+01  0.10202039623E+01 0.  0.
     999903    2    3    3    0    0  0.88866734593E-01  0.54110461490E-01 -0.80723504991E-01  0.13337164217E+00  0.21129886819E-01 0.  0.
         14    1    1    2    0    0 -0.21241349278E-01 -0.93344290593E-02  0.34463218775E-02  0.23456419580E-01  0.00000000000E+00 0.  1.
     999901    1    3    3    0    0 -0.67625385315E-01 -0.44776032431E-01  0.77277183113E-01  0.88710193825E+00  0.88000000000E+00 0. -1.
        -11    1    4    4    0    0  0.34865467150E-01  0.32982731152E-01 -0.40452301919E-01  0.62770305124E-01  0.51100000000E-03 0. -1.
         11    1    4    4    0    0  0.54001267443E-01  0.21127730338E-01 -0.40271203071E-01  0.70601337045E-01  0.51100000000E-03 0.  1.
</event>
<event>
 8    1  0.1054086E+005  0.1043930E+01  0.7957747E-01            NaN
         13   -1    0    0    0    0  0.00000000000E+00  0.00000000000E+00  0.74505805969E-08  0.10566000000E+00  0.10566000000E+00 0. -1.
     999900   -1    0    0    0    0 -0.00000000000E+00 -0.00000000000E+00 -0.74505805969E-08  0.93827000000E+00  0.93827000000E+00 0. -1.
     999902    2    1    2    0    0  0.39849865525E-02  0.48166954920E-02 -0.23473464050E-01  0.10196383515E+01  0.10193489509E+01 0.  0.
     999903    2    3    3    0    0  0.67807046780E-01  0.98388557639E-01 -0.50488631906E-01  0.13196793514E+00  0.24255516595E-01 0.  0.
         14    1    1    2    0    0 -0.39849865525E-02 -0.48166954920E-02  0.23473464050E-01  0.24291648520E-01  0.00000000000E+00 0. -1.
     999901    1    3    3    0    0 -0.63822060228E-01 -0.93571862147E-01  0.27015167856E-01  0.88767041634E+00  0.88000000000E+00 0.  1.
        -11    1    4    4    0    0  0.59251074095E-01  0.67921209155E-01 -0.34531976508E-01  0.96523048838E-01  0.51100000000E-03 0. -1.
         11    1    4    4    0    0  0.85559726848E-02  0.30467348484E-01 -0.15956655398E-01  0.35444886299E-01  0.51100000000E-03 0.  1.
</event>
<event>
 8    1  0.1054086E+005  0.1043930E+01  0.7957747E-01            NaN
         13   -1    0    0    0    0  0.00000000000E+00  0.00000000000E+00  0.74505805969E-08  0.10566000000E+00  0.10566000000E+00 0. -1.
     999900   -1    0    0    0    0 -0.00000000000E+00 -0.00000000000E+00 -0.74505805969E-08  0.93827000000E+00  0.93827000000E+00 0. -1.
     999902    2    1    2    0    0 -0.24899144533E-01 -0.15560240343E-02  0.53683659704E-03  0.10189765072E+01  0.10186709211E+01 0.  0.
     999903    2    3    3    0    0 -0.11055807594E+00  0.49977907295E-01 -0.48091137607E-01  0.13198277640E+00  0.19642209075E-01 0.  0.
         14    1    1    2    0    0  0.24899144533E-01  0.15560240343E-02 -0.53683659704E-03  0.24953492798E-01  0.00000000000E+00 0. -1.
     999901    1    3    3    0    0  0.85658931405E-01 -0.51533931329E-01  0.48627974204E-01  0.88699373080E+00  0.88000000000E+00 0.  1.
        -11    1    4    4    0    0 -0.59165670582E-01  0.23181117524E-01 -0.35051697429E-01  0.72572883357E-01  0.51100000000E-03 0.  1.
         11    1    4    4    0    0 -0.51392405355E-01  0.26796789770E-01 -0.13039440178E-01  0.59409893043E-01  0.51100000000E-03 0. -1.
</event>
<event>
 8    1  0.1054086E+005  0.1043930E+01  0.7957747E-01            NaN
         13   -1    0    0    0    0  0.00000000000E+00  0.00000000000E+00  0.74505805969E-08  0.10566000000E+00  0.10566000000E+00 0. -1.
     999900   -1    0    0    0    0 -0.00000000000E+00 -0.00000000000E+00 -0.74505805969E-08  0.93827000000E+00  0.93827000000E+00 0. -1.
     999902    2    1    2    0    0  0.18421420801E-01 -0.25497309657E-02  0.13469486594E-01  0.10209674883E+01  0.10207092315E+01 0.  0.
     999903    2    3    3    0    0  0.10566399715E+00  0.47846878916E-01  0.64181799316E-01  0.13376806089E+00  0.17899347348E-01 0.  0.
         14    1    1    2    0    0 -0.18421420801E-01  0.25497309657E-02 -0.13469486594E-01  0.22962511654E-01  0.00000000000E+00 0.  1.
     999901    1    3    3    0    0 -0.87242576348E-01 -0.50396609882E-01 -0.50712312722E-01  0.88719942746E+00  0.88000000000E+00 0. -1.
        -11    1    4    4    0    0  0.17251334121E-01  0.32308292437E-02  0.15476038336E-01  0.23405462400E-01  0.51100000000E-03 0. -1.
         11    1    4    4    0    0  0.88412663028E-01  0.44616049673E-01  0.48705760980E-01  0.11036259849E+00  0.51100000000E-03 0.  1.
</event>
<event>
 8    1  0.1054086E+005  0.1043930E+01  0.7957747E-01            NaN
         13   -1    0    0    0    0  0.00000000000E+00  0.00000000000E+00  0.74505805969E-08  0.10566000000E+00  0.10566000000E+00 0.  1.
     999900   -1    0    0    0    0 -0.00000000000E+00 -0.00000000000E+00 -0.74505805969E-08  0.93827000000E+00  0.93827000000E+00 0.  1.
     999902    2    1    2    0    0 -0.18142269682E-01 -0.13044274712E-01 -0.90089491518E-02  0.10198373410E+01  0.10195527186E+01 0.  0.
     999903    2    3    3    0    0 -0.42081050137E-01 -0.12259485007E+00 -0.19115201704E-01  0.13266400389E+00  0.20833505418E-01 0.  0.
         14    1    1    2    0    0  0.18142269682E-01  0.13044274712E-01  0.90089491518E-02  0.24092658982E-01  0.00000000000E+00 0. -1.
     999901    1    3    3    0    0  0.23938780454E-01  0.10955057536E+00  0.10106252552E-01  0.88717333713E+00  0.88000000000E+00 0. -1.
        -11    1    4    4    0    0 -0.18823414829E-01 -0.30123317577E-01 -0.59685587980E-03  0.35529601259E-01  0.51100000000E-03 0. -1.
         11    1    4    4    0    0 -0.23257635308E-01 -0.92471532491E-01 -0.18518345824E-01  0.97134402631E-01  0.51100000000E-03 0.  1.
</event>
<event>
 8    1  0.1054086E+005  0.1043930E+01  0.7957747E-01            NaN
         13   -1    0    0    0    0  0.00000000000E+00  0.00000000000E+00  0.74505805969E-08  0.10566000000E+00  0.10566000000E+00 0. -1.
     999900   -1    0    0    0    0 -0.00000000000E+00 -0.00000000000E+00 -0.74505805969E-08  0.93827000000E+00  0.93827000000E+00 0.  1.
     999902    2    1    2    0    0  0.95048812243E-02  0.17369157208E-01  0.11425649102E-01  0.10210700821E+01  0.10208141539E+01 0.  0.
     999903    2    3    3    0    0 -0.92102426583E-01 -0.43255535286E-01 -0.76314293121E-01  0.12882701219E+00  0.20460435448E-01 0.  0.
         14    1    1    2    0    0 -0.95048812243E-02 -0.17369157208E-01 -0.11425649102E-01  0.22859917905E-01  0.00000000000E+00 0.  1.
     999901    1    3    3    0    0  0.10160730781E+00  0.60624692495E-01  0.87739942223E-01  0.89224306991E+00  0.88000000000E+00 0. -1.
        -11    1    4    4    0    0 -0.76059314233E-01 -0.41565064467E-01 -0.70302707145E-01  0.11160378855E+00  0.51100000000E-03 0.  1.
         11    1    4    4    0    0 -0.16043112350E-01 -0.16904708189E-02 -0.60115859762E-02  0.17223223636E-01  0.51100000000E-03 0. -1.
</event>
<event>
 8    1  0.1054086E+005  0.1043930E+01  0.7957747E-01            NaN
         13   -1    0    0    0    0  0.00000000000E+00  0.00000000000E+00  0.74505805969E-08  0.10566000000E+00  0.10566000000E+00 0. -1.
     999900   -1    0    0    0    0 -0.00000000000E+00 -0.00000000000E+00 -0.74505805969E-08  0.93827000000E+00  0.93827000000E+00 0.  1.
     999902    2    1    2    0    0  0.13442984219E-01  0.19408656753E-01  0.31142670798E-02  0.10201159613E+01  0.10198379606E+01 0.  0.
     999903    2    3    3    0    0 -0.61097169528E-02  0.80114860028E-01 -0.10225461877E+00  0.13153836007E+00  0.19763948763E-01 0.  0.
         14    1    1    2    0    0 -0.13442984219E-01 -0.19408656753E-01 -0.31142670798E-02  0.23814038740E-01  0.00000000000E+00 0. -1.
     999901    1    3    3    0    0  0.19552701172E-01 -0.60706203275E-01  0.10536888585E+00  0.88857760119E+00  0.88000000000E+00 0. -1.
        -11    1    4    4    0    0  0.59898851507E-02  0.40726254847E-01 -0.44916992574E-01  0.60928678804E-01  0.51100000000E-03 0. -1.
         11    1    4    4    0    0 -0.12099602104E-01  0.39388605182E-01 -0.57337626195E-01  0.70609681262E-01  0.51100000000E-03 0.  1.
</event>
<event>
 8    1  0.1054086E+005  0.1043930E+01  0.7957747E-01            NaN
         13   -1    0    0    0    0  0.00000000000E+00  0.00000000000E+00  0.74505805969E-08  0.10566000000E+00  0.10566000000E+00 0. -1.
     999900   -1    0    0    0    0 -0.00000000000E+00 -0.00000000000E+00 -0.74505805969E-08  0.93827000000E+00  0.93827000000E+00 0.  1.
     999902    2    1    2    0    0 -0.12299795272E-01 -0.19632570483E-01 -0.68798101843E-02  0.10197627789E+01  0.10194763708E+01 0.  0.
     999903    2    3    3    0    0 -0.20399871219E-01 -0.12899906419E+00  0.12961327122E-01  0.13273385496E+00  0.19833480363E-01 0.  0.
         14    1    1    2    0    0  0.12299795272E-01  0.19632570483E-01  0.68798101843E-02  0.24167221099E-01  0.00000000000E+00 0.  1.
     999901    1    3    3    0    0  0.81000759472E-02  0.10936649371E+00 -0.19841137306E-01  0.88702892394E+00  0.88000000000E+00 0.  1.
        -11    1    4    4    0    0 -0.17393773463E-01 -0.53417524368E-01  0.12860206486E-02  0.56195108639E-01  0.51100000000E-03 0. -1.
         11    1    4    4    0    0 -0.30060977561E-02 -0.75581539826E-01  0.11675306473E-01  0.76538746321E-01  0.51100000000E-03 0.  1.
</event>
<event>
 8    1  0.1054086E+005  0.1043930E+01  0.7957747E-01            NaN
         13   -1    0    0    0    0  0.00000000000E+00  0.00000000000E+00  0.74505805969E-08  0.10566000000E+00  0.10566000000E+00 0.  1.
     999900   -1    0    0    0    0 -0.00000000000E+00 -0.00000000000E+00 -0.74505805969E-08  0.93827000000E+00  0.93827000000E+00 0. -1.
     999902    2    1    2    0    0  0.15733919619E-01  0.65349397047E-02  0.15553867060E-01  0.10208608768E+01  0.10206001888E+01 0.  0.
     999903    2    3    3    0    0  0.10297057177E+00 -0.52468082755E-01  0.62974927691E-01  0.13331349942E+00  0.21232269117E-01 0.  0.
         14    1    1    2    0    0 -0.15733919619E-01 -0.65349397047E-02 -0.15553867060E-01  0.23069123175E-01  0.00000000000E+00 0. -1.
     999901    1    3    3    0    0 -0.87236652154E-01  0.59003022460E-01 -0.47421060631E-01  0.88754737740E+00  0.88000000000E+00 0. -1.
        -11    1    4    4    0    0  0.78826424672E-02 -0.59369761258E-04  0.21076793305E-03  0.79022225453E-02  0.51100000000E-03 0. -1.
         11    1    4    4    0    0  0.95087929307E-01 -0.52408712994E-01  0.62764159758E-01  0.12541127688E+00  0.51100000000E-03 0.  1.
</event>
<event>
 8    1  0.1054086E+005  0.1043930E+01  0.7957747E-01            NaN
         13   -1    0    0    0    0  0.00000000000E+00  0.00000000000E+00  0.74505805969E-08  0.10566000000E+00  0.10566000000E+00 0.  1.
     999900   -1    0    0    0    0 -0.00000000000E+00 -0.00000000000E+00 -0.74505805969E-08  0.93827000000E+00  0.93827000000E+00 0. -1.
     999902    2    1    2    0    0  0.14209060361E-01 -0.85788575728E-02  0.16344768435E-01  0.10206352442E+01  0.10203693723E+01 0.  0.
     999903    2    3    3    0    0  0.12361464549E+00 -0.13622947769E-01 -0.42091129819E-01  0.13192281650E+00  0.12876374418E-01 0.  0.
         14    1    1    2    0    0 -0.14209060361E-01  0.85788575728E-02 -0.16344768435E-01  0.23294755822E-01  0.00000000000E+00 0.  1.
     999901    1    3    3    0    0 -0.10940558513E+00  0.50440901966E-02  0.58435898254E-01  0.88871242768E+00  0.88000000000E+00 0.  1.
        -11    1    4    4    0    0  0.64214792594E-01 -0.13503119899E-01 -0.22653967658E-01  0.69421446301E-01  0.51100000000E-03 0.  1.
         11    1    4    4    0    0  0.59399852897E-01 -0.11982787077E-03 -0.19437162161E-01  0.62501370200E-01  0.51100000000E-03 0. -1.
</event>
<event>
 8    1  0.1054086E+005  0.1043930E+01  0.7957747E-01            NaN
         13   -1    0    0    0    0  0.00000000000E+00  0.00000000000E+00  0.74505805969E-08  0.10566000000E+00  0.10566000000E+00 0. -1.
     999900   -1    0    0    0    0 -0.00000000000E+00 -0.00000000000E+00 -0.74505805969E-08  0.93827000000E+00  0.93827000000E+00 0.  1.
     999902    2    1    2    0    0 -0.78059900132E-02  0.16682104205E-01 -0.13470748541E-01  0.10211114298E+01  0.10208564370E+01 0.  0.
     999903    2    3    3    0    0  0.42181647558E-01 -0.44477975425E-01  0.11134336736E+00  0.12880101138E+00  0.20851220326E-01 0.  0.
         14    1    1    2    0    0  0.78059900132E-02 -0.16682104205E-01  0.13470748541E-01  0.22818570223E-01  0.00000000000E+00 0.  1.
     999901    1    3    3    0    0 -0.49987637572E-01  0.61160079630E-01 -0.12481411590E+00  0.89231041840E+00  0.88000000000E+00 0.  1.
        -11    1    4    4    0    0  0.20916292045E-01 -0.27356616794E-01  0.80785823780E-01  0.87820761783E-01  0.51100000000E-03 0. -1.
         11    1    4    4    0    0  0.21265355513E-01 -0.17121358631E-01  0.30557543579E-01  0.40980249597E-01  0.51100000000E-03 0.  1.
</event>
<event>
 8    1  0.1054086E+005  0.1043930E+01  0.7957747E-01            NaN
         13   -1    0    0    0    0  0.00000000000E+00  0.00000000000E+00  0.74505805969E-08  0.10566000000E+00  0.10566000000E+00 0. -1.
     999900   -1    0    0    0    0 -0.00000000000E+00 -0.00000000000E+00 -0.74505805969E-08  0.93827000000E+00  0.93827000000E+00 0.  1.
     999902    2    1    2    0    0 -0.16531487439E-01  0.35971904529E-02 -0.16765156401E-01  0.10201119328E+01  0.10198338370E+01 0.  0.
     999903    2    3    3    0    0  0.12213163587E-01  0.11158132215E+00 -0.65818159620E-01  0.13169028471E+00  0.20266922145E-01 0.  0.
         14    1    1    2    0    0  0.16531487439E-01 -0.35971904529E-02  0.16765156401E-01  0.23818067202E-01  0.00000000000E+00 0. -1.
     999901    1    3    3    0    0 -0.28744651026E-01 -0.10798413170E+00  0.49053003219E-01  0.88842164809E+00  0.88000000000E+00 0. -1.
        -11    1    4    4    0    0  0.38243811569E-02  0.97844746760E-01 -0.55317968792E-01  0.11246581326E+00  0.51100000000E-03 0. -1.
         11    1    4    4    0    0  0.83887824297E-02  0.13736575394E-01 -0.10500190828E-01  0.19224471453E-01  0.51100000000E-03 0.  1.
</event>
<event>
 8    1  0.1054086E+005  0.1043930E+01  0.7957747E-01            NaN
         13   -1    0    0    0    0  0.00000000000E+00  0.00000000000E+00  0.74505805969E-08  0.10566000000E+00  0.10566000000E+00 0. -1.
     999900   -1    0    0    0    0 -0.00000000000E+00 -0.00000000000E+00 -0.74505805969E-08  0.93827000000E+00  0.93827000000E+00 0. -1.
     999902    2    1    2    0    0 -0.52097532635E-02  0.23509804042E-01 -0.64168297023E-02  0.10190095642E+01  0.10187047972E+01 0.  0.
     999903    2    3    3    0    0  0.47919325716E-01  0.10148581455E+00  0.64672563028E-01  0.13111505530E+00  0.20322032027E-01 0.  0.
         14    1    1    2    0    0  0.52097532635E-02 -0.23509804042E-01  0.64168297023E-02  0.24920435762E-01  0.00000000000E+00 0.  1.
     999901    1    3    3    0    0 -0.53129078980E-01 -0.77976010505E-01 -0.71089392730E-01  0.88789450894E+00  0.88000000000E+00 0. -1.
        -11    1    4    4    0    0  0.40029871169E-02  0.19499863893E-02  0.60567970787E-02  0.75347371971E-02  0.51100000000E-03 0. -1.
         11    1    4    4    0    0  0.43916338599E-01  0.99535828158E-01  0.58615765949E-01  0.12358031810E+00  0.51100000000E-03 0.  1.
</event>
<event>
 8    1  0.1054086E+005  0.1043930E+01  0.7957747E-01            NaN
         13   -1    0    0    0    0  0.00000000000E+00  0.00000000000E+00  0.74505805969E-08  0.10566000000E+00  0.10566000000E+00 0.  1.
     999900   -1    0    0    0    0 -0.00000000000E+00 -0.00000000000E+00 -0.74505805969E-08  0.93827000000E+00  0.93827000000E+00 0.  1.
     999902    2    1    2    0    0  0.20680870548E-01 -0.10909708837E-01  0.35358436993E-02  0.10202821176E+01  0.10200080279E+01 0.  0.
     999903    2    3    3    0    0  0.81808476806E-01  0.34822575910E-01  0.95915361765E-01  0.13215937746E+00  0.19002782885E-01 0.  0.
         14    1    1    2    0    0 -0.20680870548E-01  0.10909708837E-01 -0.35358436993E-02  0.23647882447E-01  0.00000000000E+00 0.  1.
     999901    1    3    3    0    0 -0.61127606258E-01 -0.45732284746E-01 -0.92379518066E-01  0.88812274009E+00  0.88000000000E+00 0.  1.
        -11    1    4    4    0    0  0.12611388474E-01  0.12665641608E-01  0.14374053632E-01  0.22942103988E-01  0.51100000000E-03 0.  1.
         11    1    4    4    0    0  0.69197088333E-01  0.22156934302E-01  0.81541308133E-01  0.10921727347E+00  0.51100000000E-03 0. -1.
</event>
<event>
 8    1  0.1054086E+005  0.1043930E+01  0.7957747E-01            NaN
         13   -1    0    0    0    0  0.00000000000E+00  0.00000000000E+00  0.74505805969E-08  0.10566000000E+00  0.10566000000E+00 0. -1.
     999900   -1    0    0    0    0 -0.00000000000E+00 -0.00000000000E+00 -0.74505805969E-08  0.93827000000E+00  0.93827000000E+00 0.  1.
     999902    2    1    2    0    0 -0.18382220245E-02 -0.30001577005E-02 -0.16366520084E-01  0.10271895404E+01  0.10270531189E+01 0.  0.
     999903    2    3    3    0    0  0.13434400949E+00 -0.11551007553E-01 -0.91802581326E-02  0.13664456147E+00  0.20142501850E-01 0.  0.
         14    1    1    2    0    0  0.18382220245E-02  0.30001577005E-02  0.16366520084E-01  0.16740459554E-01  0.00000000000E+00 0. -1.
     999901    1    3    3    0    0 -0.13618223151E+00  0.85508498521E-02 -0.71862619511E-02  0.89054497897E+00  0.88000000000E+00 0. -1.
        -11    1    4    4    0    0  0.86697617971E-01 -0.96658327104E-02 -0.15297554898E-01  0.88567384464E-01  0.51100000000E-03 0. -1.
         11    1    4    4    0    0  0.47646391514E-01 -0.18851748421E-02  0.61172967653E-02  0.48077177010E-01  0.51100000000E-03 0.  1.
</event>
<event>
 8    1  0.1054086E+005  0.1043930E+01  0.7957747E-01            NaN
         13   -1    0    0    0    0  0.00000000000E+00  0.00000000000E+00  0.74505805969E-08  0.10566000000E+00  0.10566000000E+00 0.  1.
     999900   -1    0    0    0    0 -0.00000000000E+00 -0.00000000000E+00 -0.74505805969E-08  0.93827000000E+00  0.93827000000E+00 0.  1.
     999902    2    1    2    0    0  0.64428785397E-02 -0.53763039695E-02 -0.23936668705E-01  0.10185650747E+01  0.10182491993E+01 0.  0.
     999903    2    3    3    0    0  0.78781388005E-02 -0.12802503437E+00 -0.17892575761E-02  0.12978204217E+00  0.19690163319E-01 0.  0.
         14    1    1    2    0    0 -0.64428785397E-02  0.53763039695E-02  0.23936668705E-01  0.25364925329E-01  0.00000000000E+00 0.  1.
     999901    1    3    3    0    0 -0.14352602608E-02  0.12264873040E+00 -0.22147411128E-01  0.88878303250E+00  0.88000000000E+00 0.  1.
        -11    1    4    4    0    0  0.81716396003E-02 -0.21847322487E-01  0.28306731796E-02  0.23502234473E-01  0.51100000000E-03 0.  1.
         11    1    4    4    0    0 -0.29350079978E-03 -0.10617771188E+00 -0.46199307556E-02  0.10627980770E+00  0.51100000000E-03 0. -1.
</event>
<event>
 8    1  0.1054086E+005  0.1043930E+01  0.7957747E-01            NaN
         13   -1    0    0    0    0  0.00000000000E+00  0.00000000000E+00  0.74505805969E-08  0.10566000000E+00  0.10566000000E+00 0.  1.
     999900   -1    0    0    0    0 -0.00000000000E+00 -0.00000000000E+00 -0.74505805969E-08  0.93827000000E+00  0.93827000000E+00 0.  1.
     999902    2    1    2    0    0 -0.95250535128E-02 -0.20403525612E-01  0.11034386339E-01  0.10188543508E+01  0.10185457279E+01 0.  0.
     999903    2    3    3    0    0  0.92960261594E-01 -0.32935139301E-01 -0.79460916609E-01  0.12820869677E+00  0.19927343599E-01 0.  0.
         14    1    1    2    0    0  0.95250535128E-02  0.20403525612E-01 -0.11034386339E-01  0.25075649218E-01  0.00000000000E+00 0. -1.
     999901    1    3    3    0    0 -0.10248531511E+00  0.12531613688E-01  0.90495302948E-01  0.89064565401E+00  0.88000000000E+00 0. -1.
        -11    1    4    4    0    0  0.57704165109E-01 -0.30499488750E-01 -0.51295849978E-01  0.83015148202E-01  0.51100000000E-03 0.  1.
         11    1    4    4    0    0  0.35256096484E-01 -0.24356505510E-02 -0.28165066630E-01  0.45193548568E-01  0.51100000000E-03 0. -1.
</event>
<event>
 8    1  0.1054086E+005  0.1043930E+01  0.7957747E-01            NaN
         13   -1    0    0    0    0  0.00000000000E+00  0.00000000000E+00  0.74505805969E-08  0.10566000000E+00  0.10566000000E+00 0.  1.
     999900   -1    0    0    0    0 -0.00000000000E+00 -0.00000000000E+00 -0.74505805969E-08  0.93827000000E+00  0.93827000000E+00 0.  1.
     999902    2    1    2    0    0  0.13031113948E-01 -0.12174174693E-01 -0.15535409151E-01  0.10202790085E+01  0.10200048460E+01 0.  0.
     999903    2    3    3    0    0  0.10173244872E-01 -0.60141156269E-01  0.11310968494E+00  0.12962837053E+00  0.17007646238E-01 0.  0.
         14    1    1    2    0    0 -0.13031113948E-01  0.12174174693E-01  0.15535409151E-01  0.23650991473E-01  0.00000000000E+00 0.  1.
     999901    1    3    3    0    0  0.28578690759E-02  0.47966981576E-01 -0.12864509409E+00  0.89065063800E+00  0.88000000000E+00 0.  1.
        -11    1    4    4    0    0  0.85620835342E-02 -0.57274644523E-01  0.95351124558E-01  0.11156071107E+00  0.51100000000E-03 0. -1.
         11    1    4    4    0    0  0.16111613380E-02 -0.28665117464E-02  0.17758560377E-01  0.18067659454E-01  0.51100000000E-03 0.  1.
</event>
<event>
 8    1  0.1167743E+005  0.1043930E+01  0.7957747E-01            NaN
         13   -1    0    0    0    0  0.00000000000E+00  0.00000000000E+00  0.74505805969E-08  0.10566000000E+00  0.10566000000E+00 0.  1.
     999900   -1    0    0    0    0 -0.00000000000E+00 -0.00000000000E+00 -0.74505805969E-08  0.93827000000E+00  0.93827000000E+00 0. -1.
     999902    2    1    2    0    0 -0.23225998779E-01 -0.57757520063E-02  0.11021337804E-02  0.10199712640E+01  0.10196898344E+01 0.  0.
     999903    2    3    3    0    0  0.10813868933E+00  0.12666508317E-01  0.63611441004E-01  0.12783662635E+00  0.21008832628E-01 0.  0.
         14    1    1    2    0    0  0.23225998779E-01  0.57757520063E-02 -0.11021337804E-02  0.23958735973E-01  0.00000000000E+00 0.  1.
     999901    1    3    3    0    0 -0.13136468811E+00 -0.18442260323E-01 -0.62509307224E-01  0.89213463767E+00  0.88000000000E+00 0.  1.
        -11    1    4    4    0    0  0.56514306392E-01 -0.60224593137E-04  0.42117863748E-01  0.70484367215E-01  0.51100000000E-03 0. -1.
         11    1    4    4    0    0  0.51624382936E-01  0.12726732910E-01  0.21493577256E-01  0.57352259139E-01  0.51100000000E-03 0.  1.
</event>
<event>
 8    1  0.1054086E+005  0.1043930E+01  0.7957747E-01            NaN
         13   -1    0    0    0    0  0.00000000000E+00  0.00000000000E+00  0.74505805969E-08  0.10566000000E+00  0.10566000000E+00 0. -1.
     999900   -1    0    0    0    0 -0.00000000000E+00 -0.00000000000E+00 -0.74505805969E-08  0.93827000000E+00  0.93827000000E+00 0.  1.
     999902    2    1    2    0    0  0.22424014989E-01  0.64757675897E-02  0.20582055043E-02  0.10204990755E+01  0.10202300500E+01 0.  0.
     999903    2    3    3    0    0  0.50430965467E-01  0.10294935857E+00 -0.63205686845E-01  0.13238257486E+00  0.19706206332E-01 0.  0.
         14    1    1    2    0    0 -0.22424014989E-01 -0.64757675897E-02 -0.20582055043E-02  0.23430924523E-01  0.00000000000E+00 0. -1.
     999901    1    3    3    0    0 -0.28006950478E-01 -0.96473590980E-01  0.65263892349E-01  0.88811650062E+00  0.88000000000E+00 0. -1.
        -11    1    4    4    0    0  0.47913945152E-01  0.10052046054E+00 -0.56658923280E-01  0.12494240207E+00  0.51100000000E-03 0.  1.
         11    1    4    4    0    0  0.25170203147E-02  0.24288980328E-02 -0.65467635642E-02  0.74401727859E-02  0.51100000000E-03 0. -1.
</event>
<event>
 8    1  0.1054086E+005  0.1043930E+01  0.7957747E-01            NaN
         13   -1    0    0    0    0  0.00000000000E+00  0.00000000000E+00  0.74505805969E-08  0.10566000000E+00  0.10566000000E+00 0. -1.
     999900   -1    0    0    0    0 -0.00000000000E+00 -0.00000000000E+00 -0.74505805969E-08  0.93827000000E+00  0.93827000000E+00 0. -1.
     999902    2    1    2    0    0  0.14123060462E-01  0.16607535932E-01 -0.86175815660E-02  0.10204878628E+01  0.10202185767E+01 0.  0.
     999903    2    3    3    0    0 -0.76402624370E-01 -0.32311830630E-01 -0.98008016055E-01  0.12999437383E+00  0.20286710116E-01 0.  0.
         14    1    1    2    0    0 -0.14123060462E-01 -0.16607535932E-01  0.86175815660E-02  0.23442137245E-01  0.00000000000E+00 0. -1.
     999901    1    3    3    0    0  0.90525684832E-01  0.48919366562E-01  0.89390434489E-01  0.89049348892E+00  0.88000000000E+00 0.  1.
        -11    1    4    4    0    0 -0.44771887292E-01 -0.29046172140E-01 -0.56786530289E-01  0.77930566217E-01  0.51100000000E-03 0.  1.
         11    1    4    4    0    0 -0.31630737078E-01 -0.32656584902E-02 -0.41221485766E-01  0.52063807614E-01  0.51100000000E-03 0. -1.
</event>
<event>
 8    1  0.1054086E+005  0.1043930E+01  0.7957747E-01            NaN
         13   -1    0    0    0    0  0.00000000000E+00  0.00000000000E+00  0.74505805969E-08  0.10566000000E+00  0.10566000000E+00 0.  1.
     999900   -1    0    0    0    0 -0.00000000000E+00 -0.00000000000E+00 -0.74505805969E-08  0.93827000000E+00  0.93827000000E+00 0. -1.
     999902    2    1    2    0    0 -0.19832256417E-01  0.73901482330E-02  0.10178109858E-01  0.10204453964E+01  0.10201751224E+01 0.  0.
     999903    2    3    3    0    0 -0.10026898403E+00 -0.42191878877E-02 -0.83262320484E-01  0.13177450240E+00  0.18979851560E-01 0.  0.
         14    1    1    2    0    0  0.19832256417E-01 -0.73901482330E-02 -0.10178109858E-01  0.23484603590E-01  0.00000000000E+00 0.  1.
     999901    1    3    3    0    0  0.80436727616E-01  0.11609336121E-01  0.93440430343E-01  0.88867089401E+00  0.88000000000E+00 0.  1.
        -11    1    4    4    0    0 -0.65990705369E-01  0.31328922993E-02 -0.62942863738E-01  0.91250498222E-01  0.51100000000E-03 0. -1.
         11    1    4    4    0    0 -0.34278278665E-01 -0.73520801870E-02 -0.20319456747E-01  0.40524004180E-01  0.51100000000E-03 0.  1.
</event>
<event>
 8    1  0.1054086E+005  0.1043930E+01  0.7957747E-01            NaN
         13   -1    0    0    0    0  0.00000000000E+00  0.00000000000E+00  0.74505805969E-08  0.10566000000E+00  0.10566000000E+00 0.  1.
     999900   -1    0    0    0    0 -0.00000000000E+00 -0.00000000000E+00 -0.74505805969E-08  0.93827000000E+00  0.93827000000E+00 0. -1.
     999902    2    1    2    0    0  0.12737925584E-01 -0.21810625290E-01  0.30249175289E-02  0.10184916775E+01  0.10181739483E+01 0.  0.
     999903    2    3    3    0    0 -0.44961330570E-01  0.11569111156E+00 -0.70193811514E-02  0.12589052375E+00  0.19829213743E-01 0.  0.
         14    1    1    2    0    0 -0.12737925584E-01  0.21810625290E-01 -0.30249175289E-02  0.25438322464E-01  0.00000000000E+00 0. -1.
     999901    1    3    3    0    0  0.57699256154E-01 -0.13750173685E+00  0.10044298680E-01  0.89260115378E+00  0.88000000000E+00 0.  1.
        -11    1    4    4    0    0 -0.18287464074E-01  0.30442272269E-01  0.45955913260E-02  0.35812621571E-01  0.51100000000E-03 0. -1.
         11    1    4    4    0    0 -0.26673866497E-01  0.85248839294E-01 -0.11614972477E-01  0.90077902182E-01  0.51100000000E-03 0.  1.
</event>
<event>
 8    1  0.1054086E+005  0.1043930E+01  0.7957747E-01            NaN
         13   -1    0    0    0    0  0.00000000000E+00  0.00000000000E+00  0.74505805969E-08  0.10566000000E+00  0.10566000000E+00 0.  1.
     999900   -1    0    0    0    0 -0.00000000000E+00 -0.00000000000E+00 -0.74505805969E-08  0.93827000000E+00  0.93827000000E+00 0.  1.
     999902    2    1    2    0    0 -0.47643464729E-02 -0.22525531389E-01  0.65632881219E-02  0.10199889200E+01  0.10197079099E+01 0.  0.
     999903    2    3    3    0    0 -0.42447806563E-01  0.11898571959E+00  0.23377448038E-02  0.12787719349E+00  0.19689941973E-01 0.  0.
         14    1    1    2    0    0  0.47643464729E-02  0.22525531389E-01 -0.65632881219E-02  0.23941080023E-01  0.00000000000E+00 0. -1.
     999901    1    3    3    0    0  0.37683460090E-01 -0.14151125098E+00  0.42255433181E-02  0.89211172649E+00  0.88000000000E+00 0. -1.
        -11    1    4    4    0    0 -0.23744829016E-01  0.91957682390E-01  0.23796256873E-02  0.95005031419E-01  0.51100000000E-03 0. -1.
         11    1    4    4    0    0 -0.18702977547E-01  0.27028037204E-01 -0.41880883491E-04  0.32872162071E-01  0.51100000000E-03 0.  1.
</event>
<event>
 8    1  0.1054086E+005  0.1043930E+01  0.7957747E-01            NaN
         13   -1    0    0    0    0  0.00000000000E+00  0.00000000000E+00  0.74505805969E-08  0.10566000000E+00  0.10566000000E+00 0. -1.
     999900   -1    0    0    0    0 -0.00000000000E+00 -0.00000000000E+00 -0.74505805969E-08  0.93827000000E+00  0.93827000000E+00 0.  1.
     999902    2    1    2    0    0 -0.20665048814E-01 -0.93646655260E-02  0.50578595336E-02  0.10206851480E+01  0.10204204271E+01 0.  0.
     999903    2    3    3    0    0  0.33005816661E-01 -0.89323313469E-01 -0.87471076631E-01  0.13060899886E+00  0.18425066462E-01 0.  0.
         14    1    1    2    0    0  0.20665048814E-01  0.93646655260E-02 -0.50578595336E-02  0.23244852031E-01  0.00000000000E+00 0.  1.
     999901    1    3    3    0    0 -0.53670865475E-01  0.79958647943E-01  0.92528936165E-01  0.89007614911E+00  0.88000000000E+00 0. -1.
        -11    1    4    4    0    0  0.24900516739E-01 -0.69410296212E-01 -0.56480998112E-01  0.92888046717E-01  0.51100000000E-03 0.  1.
         11    1    4    4    0    0  0.81052999219E-02 -0.19913017257E-01 -0.30990078519E-01  0.37720952145E-01  0.51100000000E-03 0. -1.
</event>
<event>
 8    1  0.1351035E+005  0.1043930E+01  0.7957747E-01            NaN
         13   -1    0    0    0    0  0.00000000000E+00  0.00000000000E+00  0.74505805969E-08  0.10566000000E+00  0.10566000000E+00 0.  1.
     999900   -1    0    0    0    0 -0.00000000000E+00 -0.00000000000E+00 -0.74505805969E-08  0.93827000000E+00  0.93827000000E+00 0.  1.
     999902    2    1    2    0    0  0.52678206463E-02 -0.13144833171E-02  0.20865249419E-01  0.10223699343E+01  0.10221425762E+01 0.  0.
     999903    2    3    3    0    0  0.28106009648E-01 -0.43168374664E-01 -0.11778813794E+00  0.13023872592E+00  0.20847636306E-01 0.  0.
         14    1    1    2    0    0 -0.52678206463E-02  0.13144833171E-02 -0.20865249419E-01  0.21560065725E-01  0.00000000000E+00 0. -1.
     999901    1    3    3    0    0 -0.22838189002E-01  0.41853891347E-01  0.13865338736E+00  0.89213120836E+00  0.88000000000E+00 0. -1.
        -11    1    4    4    0    0  0.34462648237E-02 -0.24173686701E-01 -0.50251682920E-01  0.55872503320E-01  0.51100000000E-03 0.  1.
         11    1    4    4    0    0  0.24659744825E-01 -0.18994687962E-01 -0.67536455022E-01  0.74366222598E-01  0.51100000000E-03 0. -1.
</event>
<event>
 8    1  0.1054086E+005  0.1043930E+01  0.7957747E-01            NaN
         13   -1    0    0    0    0  0.00000000000E+00  0.00000000000E+00  0.74505805969E-08  0.10566000000E+00  0.10566000000E+00 0. -1.
     999900   -1    0    0    0    0 -0.00000000000E+00 -0.00000000000E+00 -0.74505805969E-08  0.93827000000E+00  0.93827000000E+00 0.  1.
     999902    2    1    2    0    0 -0.12147664901E-01  0.30932595391E-01 -0.60688027904E-02  0.10101480287E+01  0.10095829922E+01 0.  0.
     999903    2    3    3    0    0 -0.17245098856E-01 -0.35675770712E-02  0.11765535530E+00  0.12080899712E+00  0.21021658159E-01 0.  0.
         14    1    1    2    0    0  0.12147664901E-01 -0.30932595391E-01  0.60688027904E-02  0.33781971338E-01  0.00000000000E+00 0.  1.
     999901    1    3    3    0    0  0.50974339549E-02  0.34500172463E-01 -0.12372415810E+00  0.88933903154E+00  0.88000000000E+00 0.  1.
        -11    1    4    4    0    0 -0.19215178862E-01 -0.90146441120E-02  0.99702715747E-01  0.10193811630E+00  0.51100000000E-03 0.  1.
         11    1    4    4    0    0  0.19700800064E-02  0.54470670408E-02  0.17952639558E-01  0.18870880813E-01  0.51100000000E-03 0. -1.
</event>
<event>
 8    1  0.1054086E+005  0.1043930E+01  0.7957747E-01            NaN
         13   -1    0    0    0    0  0.00000000000E+00  0.00000000000E+00  0.74505805969E-08  0.10566000000E+00  0.10566000000E+00 0.  1.
     999900   -1    0    0    0    0 -0.00000000000E+00 -0.00000000000E+00 -0.74505805969E-08  0.93827000000E+00  0.93827000000E+00 0. -1.
     999902    2    1    2    0    0  0.17624180847E-01 -0.14491097446E-01  0.80221196523E-02  0.10197440938E+01  0.10194572373E+01 0.  0.
     999903    2    3    3    0    0  0.18356806286E-01 -0.12883742779E+00 -0.10993456213E-01  0.13214214915E+00  0.20115575194E-01 0.  0.
         14    1    1    2    0    0 -0.17624180847E-01  0.14491097446E-01 -0.80221196523E-02  0.24185906215E-01  0.00000000000E+00 0. -1.
     999901    1    3    3    0    0 -0.73262543860E-03  0.11434633034E+00  0.19015575865E-01  0.88760194464E+00  0.88000000000E+00 0. -1.
        -11    1    4    4    0    0  0.16145913908E-01 -0.47873266914E-01 -0.74221403215E-02  0.51067499537E-01  0.51100000000E-03 0.  1.
         11    1    4    4    0    0  0.22108923775E-02 -0.80964160873E-01 -0.35713158912E-02  0.81074649609E-01  0.51100000000E-03 0. -1.
</event>
<event>
 8    1  0.1054086E+005  0.1043930E+01  0.7957747E-01            NaN
         13   -1    0    0    0    0  0.00000000000E+00  0.00000000000E+00  0.74505805969E-08  0.10566000000E+00  0.10566000000E+00 0. -1.
     999900   -1    0    0    0    0 -0.00000000000E+00 -0.00000000000E+00 -0.74505805969E-08  0.93827000000E+00  0.93827000000E+00 0.  1.
     999902    2    1    2    0    0 -0.11292399983E-01  0.15684654799E-01 -0.95841034845E-02  0.10223572919E+01  0.10221296643E+01 0.  0.
     999903    2    3    3    0    0  0.12220997144E+00  0.22899975350E-01 -0.38885045194E-01  0.13177686929E+00  0.19834579619E-01 0.  0.
         14    1    1    2    0    0  0.11292399983E-01 -0.15684654799E-01  0.95841034845E-02  0.21572708062E-01  0.00000000000E+00 0. -1.
     999901    1    3    3    0    0 -0.13350237142E+00 -0.72153205508E-02  0.29300941710E-01  0.89058042265E+00  0.88000000000E+00 0. -1.
        -11    1    4    4    0    0  0.48627460948E-01  0.13572883053E-01 -0.24907553899E-01  0.56298316803E-01  0.51100000000E-03 0.  1.
         11    1    4    4    0    0  0.73582510492E-01  0.93270922963E-02 -0.13977491296E-01  0.75478552483E-01  0.51100000000E-03 0. -1.
</event>
<event>
 8    1  0.1054086E+005  0.1043930E+01  0.7957747E-01            NaN
         13   -1    0    0    0    0  0.00000000000E+00  0.00000000000E+00  0.74505805969E-08  0.10566000000E+00  0.10566000000E+00 0. -1.
     999900   -1    0    0    0    0 -0.00000000000E+00 -0.00000000000E+00 -0.74505805969E-08  0.93827000000E+00  0.93827000000E+00 0. -1.
     999902    2    1    2    0    0 -0.10827412381E-01  0.28074001318E-02 -0.20985131974E-01  0.10201499639E+01  0.10198727659E+01 0.  0.
     999903    2    3    3    0    0 -0.90661614144E-02  0.35589830398E-01  0.12112041450E+00  0.12814560509E+00  0.20057666519E-01 0.  0.
         14    1    1    2    0    0  0.10827412381E-01 -0.28074001318E-02  0.20985131974E-01  0.23780036130E-01  0.00000000000E+00 0.  1.
     999901    1    3    3    0    0 -0.17612509670E-02 -0.32782430266E-01 -0.14210554647E+00  0.89200435878E+00  0.88000000000E+00 0. -1.
        -11    1    4    4    0    0 -0.30855813548E-02  0.65438519483E-03  0.33125916220E-01  0.33279670652E-01  0.51100000000E-03 0.  1.
         11    1    4    4    0    0 -0.59805800595E-02  0.34935445203E-01  0.87994498277E-01  0.94865934441E-01  0.51100000000E-03 0. -1.
</event>
<event>
 8    1  0.1054086E+005  0.1043930E+01  0.7957747E-01            NaN
         13   -1    0    0    0    0  0.00000000000E+00  0.00000000000E+00  0.74505805969E-08  0.10566000000E+00  0.10566000000E+00 0.  1.
     999900   -1    0    0    0    0 -0.00000000000E+00 -0.00000000000E+00 -0.74505805969E-08  0.93827000000E+00  0.93827000000E+00 0. -1.
     999902    2    1    2    0    0 -0.22109638624E-02  0.57197147443E-02 -0.22438161334E-01  0.10206689901E+01  0.10204038969E+01 0.  0.
     999903    2    3    3    0    0  0.12958112167E-01 -0.83334409091E-01  0.94602286455E-01  0.12833541779E+00  0.20195307545E-01 0.  0.
         14    1    1    2    0    0  0.22109638624E-02 -0.57197147443E-02  0.22438161334E-01  0.23261009909E-01  0.00000000000E+00 0.  1.
     999901    1    3    3    0    0 -0.15169076029E-01  0.89054123836E-01 -0.11704044779E+00  0.89233357230E+00  0.88000000000E+00 0. -1.
        -11    1    4    4    0    0  0.95818752782E-02 -0.58019836716E-01  0.51194674636E-01  0.77969671145E-01  0.51100000000E-03 0.  1.
         11    1    4    4    0    0  0.33762368888E-02 -0.25314572375E-01  0.43407611819E-01  0.50365746643E-01  0.51100000000E-03 0. -1.
</event>
<event>
 8    1  0.1054086E+005  0.1043930E+01  0.7957747E-01            NaN
         13   -1    0    0    0    0  0.00000000000E+00  0.00000000000E+00  0.74505805969E-08  0.10566000000E+00  0.10566000000E+00 0. -1.
     999900   -1    0    0    0    0 -0.00000000000E+00 -0.00000000000E+00 -0.74505805969E-08  0.93827000000E+00  0.93827000000E+00 0. -1.
     999902    2    1    2    0    0  0.30085955494E-02 -0.88639065968E-03  0.24958070127E-01  0.10187756246E+01  0.10184650366E+01 0.  0.
     999903    2    3    3    0    0  0.17704938550E-01  0.30298610808E-01  0.12597017534E+00  0.13232656675E+00  0.20257456091E-01 0.  0.
         14    1    1    2    0    0 -0.30085955494E-02  0.88639065968E-03 -0.24958070127E-01  0.25154375366E-01  0.00000000000E+00 0.  1.
     999901    1    3    3    0    0 -0.14696343000E-01 -0.31185001467E-01 -0.10101210522E+00  0.88644905788E+00  0.88000000000E+00 0. -1.
        -11    1    4    4    0    0 -0.28423027993E-02  0.95962439827E-02  0.48981922064E-01  0.49996563821E-01  0.51100000000E-03 0. -1.
         11    1    4    4    0    0  0.20547241349E-01  0.20702366825E-01  0.76988253279E-01  0.82330002934E-01  0.51100000000E-03 0.  1.
</event>
<event>
 8    1  0.1054086E+005  0.1043930E+01  0.7957747E-01            NaN
         13   -1    0    0    0    0  0.00000000000E+00  0.00000000000E+00  0.74505805969E-08  0.10566000000E+00  0.10566000000E+00 0. -1.
     999900   -1    0    0    0    0 -0.00000000000E+00 -0.00000000000E+00 -0.74505805969E-08  0.93827000000E+00  0.93827000000E+00 0.  1.
     999902    2    1    2    0    0 -0.81223046845E-02  0.90197296972E-02 -0.18636343385E-01  0.10216894818E+01  0.10214473831E+01 0.  0.
     999903    2    3    3    0    0 -0.43506775349E-01 -0.38858924986E-01 -0.11886771904E+00  0.13400104823E+00  0.20588607177E-01 0.  0.
         14    1    1    2    0    0  0.81223046845E-02 -0.90197296972E-02  0.18636343385E-01  0.22240518249E-01  0.00000000000E+00 0. -1.
     999901    1    3    3    0    0  0.35384470665E-01  0.47878654683E-01  0.10023137565E+00  0.88768843352E+00  0.88000000000E+00 0. -1.
        -11    1    4    4    0    0 -0.20146517304E-01 -0.28354192882E-01 -0.53745635553E-01  0.64021065873E-01  0.51100000000E-03 0.  1.
         11    1    4    4    0    0 -0.23360258045E-01 -0.10504732104E-01 -0.65122083486E-01  0.69979982359E-01  0.51100000000E-03 0. -1.
</event>
<event>
 8    1  0.1054086E+005  0.1043930E+01  0.7957747E-01            NaN
         13   -1    0    0    0    0  0.00000000000E+00  0.00000000000E+00  0.74505805969E-08  0.10566000000E+00  0.10566000000E+00 0.  1.
     999900   -1    0    0    0    0 -0.00000000000E+00 -0.00000000000E+00 -0.74505805969E-08  0.93827000000E+00  0.93827000000E+00 0.  1.
     999902    2    1    2    0    0 -0.21305602093E-01 -0.81543722789E-04 -0.12627200005E-01  0.10191634599E+01  0.10188624914E+01 0.  0.
     999903    2    3    3    0    0 -0.79108994955E-01  0.45596928920E-01 -0.93856385933E-01  0.13235686555E+00  0.19287448450E-01 0.  0.
         14    1    1    2    0    0  0.21305602093E-01  0.81543722789E-04  0.12627200005E-01  0.24766540128E-01  0.00000000000E+00 0.  1.
     999901    1    3    3    0    0  0.57803392862E-01 -0.45678472642E-01  0.81229185928E-01  0.88680659432E+00  0.88000000000E+00 0. -1.
        -11    1    4    4    0    0 -0.72106939387E-01  0.46314928569E-01 -0.82320877161E-01  0.11883379677E+00  0.51100000000E-03 0.  1.
         11    1    4    4    0    0 -0.70020555682E-02 -0.71799964980E-03 -0.11535508773E-01  0.13523068784E-01  0.51100000000E-03 0. -1.
</event>
<event>
 8    1  0.1054086E+005  0.1043930E+01  0.7957747E-01            NaN
         13   -1    0    0    0    0  0.00000000000E+00  0.00000000000E+00  0.74505805969E-08  0.10566000000E+00  0.10566000000E+00 0. -1.
     999900   -1    0    0    0    0 -0.00000000000E+00 -0.00000000000E+00 -0.74505805969E-08  0.93827000000E+00  0.93827000000E+00 0. -1.
     999902    2    1    2    0    0 -0.16421433594E-01 -0.13926471820E-02  0.94141733023E-02  0.10249502843E+01  0.10247745390E+01 0.  0.
     999903    2    3    3    0    0  0.23137023038E-01 -0.12449383614E+00 -0.39769570577E-01  0.13414288940E+00  0.19459161390E-01 0.  0.
         14    1    1    2    0    0  0.16421433594E-01  0.13926471820E-02 -0.94141733023E-02  0.18979715657E-01  0.00000000000E+00 0.  1.
     999901    1    3    3    0    0 -0.39558456632E-01  0.12310118896E+00  0.49183743880E-01  0.89080739494E+00  0.88000000000E+00 0.  1.
        -11    1    4    4    0    0  0.11838072472E-01 -0.85426896170E-01 -0.18347011400E-01  0.88174647702E-01  0.51100000000E-03 0. -1.
         11    1    4    4    0    0  0.11298950566E-01 -0.39066939970E-01 -0.21422559178E-01  0.45968241703E-01  0.51100000000E-03 0.  1.
</event>
<event>
 8    1  0.1054086E+005  0.1043930E+01  0.7957747E-01            NaN
         13   -1    0    0    0    0  0.00000000000E+00  0.00000000000E+00  0.74505805969E-08  0.10566000000E+00  0.10566000000E+00 0.  1.
     999900   -1    0    0    0    0 -0.00000000000E+00 -0.00000000000E+00 -0.74505805969E-08  0.93827000000E+00  0.93827000000E+00 0.  1.
     999902    2    1    2    0    0 -0.20256724439E-01 -0.13347761169E-01  0.90371899125E-02  0.10180423888E+01  0.10177131899E+01 0.  0.
     999903    2    3    3    0    0  0.46591036655E-01  0.80847934724E-01 -0.81991109409E-01  0.12583859840E+00  0.20141935844E-01 0.  0.
         14    1    1    2    0    0  0.20256724439E-01  0.13347761169E-01 -0.90371899125E-02  0.25887611221E-01  0.00000000000E+00 0. -1.
     999901    1    3    3    0    0 -0.66847761094E-01 -0.94195695893E-01  0.91028299322E-01  0.89220379038E+00  0.88000000000E+00 0. -1.
        -11    1    4    4    0    0  0.27389484989E-01  0.29128619362E-01 -0.29546321819E-01  0.49718272375E-01  0.51100000000E-03 0. -1.
         11    1    4    4    0    0  0.19201551666E-01  0.51719315361E-01 -0.52444787590E-01  0.76120326025E-01  0.51100000000E-03 0.  1.
</event>
<event>
 8    1  0.1054086E+005  0.1043930E+01  0.7957747E-01            NaN
         13   -1    0    0    0    0  0.00000000000E+00  0.00000000000E+00  0.74505805969E-08  0.10566000000E+00  0.10566000000E+00 0.  1.
     999900   -1    0    0    0    0 -0.00000000000E+00 -0.00000000000E+00 -0.74505805969E-08  0.93827000000E+00  0.93827000000E+00 0.  1.
     999902    2    1    2    0    0 -0.58469384668E-02 -0.18490161526E-01  0.14314958050E-01  0.10198262495E+01  0.10195413618E+01 0.  0.
     999903    2    3    3    0    0 -0.49937547169E-01 -0.13356451300E-01 -0.11692989712E+00  0.12898644981E+00  0.17109938196E-01 0.  0.
         14    1    1    2    0    0  0.58469384668E-02  0.18490161526E-01 -0.14314958050E-01  0.24103750469E-01  0.00000000000E+00 0. -1.
     999901    1    3    3    0    0  0.44090608702E-01 -0.51337102261E-02  0.13124485517E+00  0.89083979972E+00  0.88000000000E+00 0. -1.
        -11    1    4    4    0    0 -0.76072233607E-02 -0.91475085317E-02 -0.25798733827E-01  0.28414477783E-01  0.51100000000E-03 0.  1.
         11    1    4    4    0    0 -0.42330323808E-01 -0.42089427680E-02 -0.91131163296E-01  0.10057197203E+00  0.51100000000E-03 0. -1.
</event>
<event>
 8    1  0.1054086E+005  0.1043930E+01  0.7957747E-01            NaN
         13   -1    0    0    0    0  0.00000000000E+00  0.00000000000E+00  0.74505805969E-08  0.10566000000E+00  0.10566000000E+00 0. -1.
     999900   -1    0    0    0    0 -0.00000000000E+00 -0.00000000000E+00 -0.74505805969E-08  0.93827000000E+00  0.93827000000E+00 0.  1.
     999902    2    1    2    0    0 -0.20076638123E-01 -0.13902219713E-01 -0.26463122246E-03  0.10195084288E+01  0.10192158865E+01 0.  0.
     999903    2    3    3    0    0 -0.89564545867E-01  0.46063420608E-01 -0.81418650209E-01  0.13102071241E+00  0.19843988602E-01 0.  0.
         14    1    1    2    0    0  0.20076638123E-01  0.13902219713E-01  0.26463122246E-03  0.24421571222E-01  0.00000000000E+00 0. -1.
     999901    1    3    3    0    0  0.69487907744E-01 -0.59965640321E-01  0.81154018987E-01  0.88848771637E+00  0.88000000000E+00 0. -1.
        -11    1    4    4    0    0 -0.40174270377E-01  0.15215111485E-01 -0.23868808568E-01  0.49147255888E-01  0.51100000000E-03 0.  1.
         11    1    4    4    0    0 -0.49390275490E-01  0.30848309123E-01 -0.57549841641E-01  0.81873456520E-01  0.51100000000E-03 0. -1.
</event>
<event>
 8    1  0.1054086E+005  0.1043930E+01  0.7957747E-01            NaN
         13   -1    0    0    0    0  0.00000000000E+00  0.00000000000E+00  0.74505805969E-08  0.10566000000E+00  0.10566000000E+00 0.  1.
     999900   -1    0    0    0    0 -0.00000000000E+00 -0.00000000000E+00 -0.74505805969E-08  0.93827000000E+00  0.93827000000E+00 0.  1.
     999902    2    1    2    0    0 -0.23120697012E-01  0.48205193060E-02 -0.14261922660E-02  0.10202691027E+01  0.10199947078E+01 0.  0.
     999903    2    3    3    0    0  0.95419624390E-01  0.61839110606E-01 -0.57035117642E-01  0.12875618629E+00  0.19904033339E-01 0.  0.
         14    1    1    2    0    0  0.23120697012E-01 -0.48205193060E-02  0.14261922660E-02  0.23660897300E-01  0.00000000000E+00 0.  1.
     999901    1    3    3    0    0 -0.11854032140E+00 -0.57018591300E-01  0.55608925376E-01  0.89151291641E+00  0.88000000000E+00 0.  1.
        -11    1    4    4    0    0  0.58228825120E-01  0.47588257455E-01 -0.42326871345E-01  0.86296370036E-01  0.51100000000E-03 0.  1.
         11    1    4    4    0    0  0.37190799269E-01  0.14250853151E-01 -0.14708246297E-01  0.42459816250E-01  0.51100000000E-03 0. -1.
</event>
<event>
 8    1  0.1054086E+005  0.1043930E+01  0.7957747E-01            NaN
         13   -1    0    0    0    0  0.00000000000E+00  0.00000000000E+00  0.74505805969E-08  0.10566000000E+00  0.10566000000E+00 0. -1.
     999900   -1    0    0    0    0 -0.00000000000E+00 -0.00000000000E+00 -0.74505805969E-08  0.93827000000E+00  0.93827000000E+00 0.  1.
     999902    2    1    2    0    0  0.37182096043E-04  0.40836359724E-02  0.25304664855E-01  0.10182979199E+01  0.10179752699E+01 0.  0.
     999903    2    3    3    0    0  0.95224829851E-01  0.81267413461E-01  0.28047149514E-01  0.12980169314E+00  0.19740218749E-01 0.  0.
         14    1    1    2    0    0 -0.37182096043E-04 -0.40836359724E-02 -0.25304664855E-01  0.25632080069E-01  0.00000000000E+00 0.  1.
     999901    1    3    3    0    0 -0.95187647755E-01 -0.77183777489E-01 -0.27424846593E-02  0.88849622679E+00  0.88000000000E+00 0.  1.
        -11    1    4    4    0    0  0.40559543413E-01  0.45133242690E-01  0.19372593808E-01  0.63699644186E-01  0.51100000000E-03 0.  1.
         11    1    4    4    0    0  0.54665286438E-01  0.36134170771E-01  0.86745557058E-02  0.66102048957E-01  0.51100000000E-03 0. -1.
</event>
<event>
 8    1  0.1054086E+005  0.1043930E+01  0.7957747E-01            NaN
         13   -1    0    0    0    0  0.00000000000E+00  0.00000000000E+00  0.74505805969E-08  0.10566000000E+00  0.10566000000E+00 0.  1.
     999900   -1    0    0    0    0 -0.00000000000E+00 -0.00000000000E+00 -0.74505805969E-08  0.93827000000E+00  0.93827000000E+00 0.  1.
     999902    2    1    2    0    0 -0.99979208237E-02  0.21694036797E-01 -0.36900586732E-03  0.10200401315E+01  0.10197603365E+01 0.  0.
     999903    2    3    3    0    0 -0.43765739767E-01  0.48352430719E-01 -0.11349049000E+00  0.13175672751E+00  0.15044812786E-01 0.  0.
         14    1    1    2    0    0  0.99979208237E-02 -0.21694036797E-01  0.36900586732E-03  0.23889868536E-01  0.00000000000E+00 0. -1.
     999901    1    3    3    0    0  0.33767818943E-01 -0.26658393923E-01  0.11312148413E+00  0.88828340395E+00  0.88000000000E+00 0. -1.
        -11    1    4    4    0    0 -0.23399498124E-01  0.22313835725E-01 -0.42131129097E-01  0.53110610402E-01  0.51100000000E-03 0.  1.
         11    1    4    4    0    0 -0.20366241643E-01  0.26038594994E-01 -0.71359360899E-01  0.78646117112E-01  0.51100000000E-03 0. -1.
</event>
<event>
 8    1  0.1054086E+005  0.1043930E+01  0.7957747E-01            NaN
         13   -1    0    0    0    0  0.00000000000E+00  0.00000000000E+00  0.74505805969E-08  0.10566000000E+00  0.10566000000E+00 0. -1.
     999900   -1    0    0    0    0 -0.00000000000E+00 -0.00000000000E+00 -0.74505805969E-08  0.93827000000E+00  0.93827000000E+00 0.  1.
     999902    2    1    2    0    0  0.20156028331E-01 -0.72644770814E-03 -0.13565037004E-01  0.10196235516E+01  0.10193337940E+01 0.  0.
     999903    2    3    3    0    0  0.43030009783E-01  0.12684940702E-02 -0.12368708662E+00  0.13246287584E+00  0.19867744256E-01 0.  0.
         14    1    1    2    0    0 -0.20156028331E-01  0.72644770814E-03  0.13565037004E-01  0.24306448388E-01  0.00000000000E+00 0. -1.
     999901    1    3    3    0    0 -0.22873981452E-01 -0.19949417783E-02  0.11012204961E+00  0.88716067577E+00  0.88000000000E+00 0. -1.
        -11    1    4    4    0    0  0.14142388873E-01  0.32072632905E-02 -0.19376188163E-01  0.24207261092E-01  0.51100000000E-03 0. -1.
         11    1    4    4    0    0  0.28887620909E-01 -0.19387692203E-02 -0.10431089845E+00  0.10825561475E+00  0.51100000000E-03 0.  1.
</event>
<event>
 8    1  0.1054086E+005  0.1043930E+01  0.7957747E-01            NaN
         13   -1    0    0    0    0  0.00000000000E+00  0.00000000000E+00  0.74505805969E-08  0.10566000000E+00  0.10566000000E+00 0. -1.
     999900   -1    0    0    0    0 -0.00000000000E+00 -0.00000000000E+00 -0.74505805969E-08  0.93827000000E+00  0.93827000000E+00 0.  1.
     999902    2    1    2    0    0 -0.10833756029E-01 -0.22761599680E-01 -0.22302196320E-02  0.10186231912E+01  0.10183087799E+01 0.  0.
     999903    2    3    3    0    0  0.69503729514E-01 -0.20957733554E-01  0.10426713316E+00  0.12856754598E+00  0.19697304625E-01 0.  0.
         14    1    1    2    0    0  0.10833756029E-01  0.22761599680E-01  0.22302196320E-02  0.25306808754E-01  0.00000000000E+00 0.  1.
     999901    1    3    3    0    0 -0.80337485544E-01 -0.18038661265E-02 -0.10649735279E+00  0.89005564527E+00  0.88000000000E+00 0.  1.
        -11    1    4    4    0    0  0.56415413206E-01 -0.13057761609E-01  0.93053777592E-01  0.10960141710E+00  0.51100000000E-03 0.  1.
         11    1    4    4    0    0  0.13088316309E-01 -0.78999719451E-02  0.11213355570E-01  0.18966128879E-01  0.51100000000E-03 0. -1.
</event>
<event>
 8    1  0.1054086E+005  0.1043930E+01  0.7957747E-01            NaN
         13   -1    0    0    0    0  0.00000000000E+00  0.00000000000E+00  0.74505805969E-08  0.10566000000E+00  0.10566000000E+00 0. -1.
     999900   -1    0    0    0    0 -0.00000000000E+00 -0.00000000000E+00 -0.74505805969E-08  0.93827000000E+00  0.93827000000E+00 0.  1.
     999902    2    1    2    0    0 -0.17723581237E-01  0.60427573991E-02  0.14765405560E-01  0.10200834604E+01  0.10198046915E+01 0.  0.
     999903    2    3    3    0    0 -0.11033974131E+00 -0.11310257630E-01  0.71207938813E-01  0.13325504420E+00  0.19584581049E-01 0.  0.
         14    1    1    2    0    0  0.17723581237E-01 -0.60427573991E-02 -0.14765405560E-01  0.23846539586E-01  0.00000000000E+00 0. -1.
     999901    1    3    3    0    0  0.92616160077E-01  0.17353015029E-01 -0.56442533253E-01  0.88682841621E+00  0.88000000000E+00 0.  1.
        -11    1    4    4    0    0 -0.24757231919E-01 -0.92304202465E-02  0.11164476312E-01  0.28688461836E-01  0.51100000000E-03 0. -1.
         11    1    4    4    0    0 -0.85582509395E-01 -0.20798373833E-02  0.60043462501E-01  0.10456658237E+00  0.51100000000E-03 0.  1.
</event>
<event>
 8    1  0.1054086E+005  0.1043930E+01  0.7957747E-01            NaN
         13   -1    0    0    0    0  0.00000000000E+00  0.00000000000E+00  0.74505805969E-08  0.10566000000E+00  0.10566000000E+00 0. -1.
     999900   -1    0    0    0    0 -0.00000000000E+00 -0.00000000000E+00 -0.74505805969E-08  0.93827000000E+00  0.93827000000E+00 0. -1.
     999902    2    1    2    0    0 -0.21094085672E-01  0.95805949622E-02  0.52949124291E-02  0.10201648081E+01  0.10198879602E+01 0.  0.
     999903    2    3    3    0    0  0.12457411795E+00 -0.20520329098E-01  0.52397886871E-02  0.12768215041E+00  0.18316150777E-01 0.  0.
         14    1    1    2    0    0  0.21094085672E-01 -0.95805949622E-02 -0.52949124291E-02  0.23765191937E-01  0.00000000000E+00 0.  1.
     999901    1    3    3    0    0 -0.14566820362E+00  0.30100924060E-01  0.55123742026E-04  0.89248265765E+00  0.88000000000E+00 0. -1.
        -11    1    4    4    0    0  0.39407510540E-01 -0.71855479938E-02 -0.68201664275E-02  0.40636926286E-01  0.51100000000E-03 0.  1.
         11    1    4    4    0    0  0.85166607406E-01 -0.13334781104E-01  0.12059955115E-01  0.87045224123E-01  0.51100000000E-03 0. -1.
</event>
<event>
 8    1  0.1054086E+005  0.1043930E+01  0.7957747E-01            NaN
         13   -1    0    0    0    0  0.00000000000E+00  0.00000000000E+00  0.74505805969E-08  0.10566000000E+00  0.10566000000E+00 0. -1.
     999900   -1    0    0    0    0 -0.00000000000E+00 -0.00000000000E+00 -0.74505805969E-08  0.93827000000E+00  0.93827000000E+00 0.  1.
     999902    2    1    2    0    0 -0.57973912022E-02 -0.37645570747E-02 -0.22399269294E-01  0.10204883938E+01  0.10202191201E+01 0.  0.
     999903    2    3    3    0    0 -0.24038998153E-01 -0.11821472775E+00  0.43123707444E-01  0.13047442862E+00  0.24725029659E-01 0.  0.
         14    1    1    2    0    0  0.57973912022E-02  0.37645570747E-02  0.22399269294E-01  0.23441606166E-01  0.00000000000E+00 0. -1.
     999901    1    3    3    0    0  0.18241606950E-01  0.11445017067E+00 -0.65522976739E-01  0.89001396521E+00  0.88000000000E+00 0. -1.
        -11    1    4    4    0    0 -0.62037662896E-02 -0.37648818370E-02  0.18268861777E-02  0.75006456741E-02  0.51100000000E-03 0.  1.
         11    1    4    4    0    0 -0.17835231863E-01 -0.11444984591E+00  0.41296821266E-01  0.12297378295E+00  0.51100000000E-03 0. -1.
</event>
<event>
 7    1  0.1054086E+005  0.1043930E+01  0.7957747E-01            NaN
         13   -1    0    0    0    0  0.00000000000E+00  0.00000000000E+00  0.74505805969E-08  0.10566000000E+00  0.10566000000E+00 0. -1.
     999900   -1    0    0    0    0 -0.00000000000E+00 -0.00000000000E+00 -0.74505805969E-08  0.93827000000E+00  0.93827000000E+00 0. -1.
     999903    2    1    2    0    0 -0.37931800564E-01 -0.70303274081E-01 -0.82019475512E-01  0.11623201555E+00  0.20032853900E-01 0.  0.
         14    1    1    2    0    0 -0.26627388074E-01 -0.13106136339E-01  0.26292093903E-01  0.39649247247E-01  0.00000000000E+00 0. -1.
     999901    1    1    2    0    0  0.64559188638E-01  0.83409410420E-01  0.55727381609E-01  0.88804873720E+00  0.88000000000E+00 0.  1.
        -11    1    3    3    0    0 -0.75538876871E-02 -0.19571037992E-01 -0.10602694613E-01  0.23510954922E-01  0.51100000000E-03 0.  1.
         11    1    3    3    0    0 -0.30377912877E-01 -0.50732236089E-01 -0.71416780899E-01  0.92721060630E-01  0.51100000000E-03 0. -1.
</event>
<event>
 8    1  0.1054086E+005  0.1043930E+01  0.7957747E-01            NaN
         13   -1    0    0    0    0  0.00000000000E+00  0.00000000000E+00  0.74505805969E-08  0.10566000000E+00  0.10566000000E+00 0. -1.
     999900   -1    0    0    0    0 -0.00000000000E+00 -0.00000000000E+00 -0.74505805969E-08  0.93827000000E+00  0.93827000000E+00 0.  1.
     999902    2    1    2    0    0  0.19701575048E-01  0.96174748512E-02 -0.88508004158E-02  0.10202871459E+01  0.10200131742E+01 0.  0.
     999903    2    3    3    0    0  0.11137330997E+00 -0.31205605122E-01 -0.62513550085E-01  0.13295974210E+00  0.19812751164E-01 0.  0.
         14    1    1    2    0    0 -0.19701575048E-01 -0.96174748512E-02  0.88508004158E-02  0.23642854098E-01  0.00000000000E+00 0.  1.
     999901    1    3    3    0    0 -0.91671734925E-01  0.40823079973E-01  0.53662749669E-01  0.88732740381E+00  0.88000000000E+00 0. -1.
        -11    1    4    4    0    0  0.32087278227E-01 -0.17397318832E-01 -0.14739308049E-01  0.39367098564E-01  0.51100000000E-03 0.  1.
         11    1    4    4    0    0  0.79286031746E-01 -0.13808286290E-01 -0.47774242036E-01  0.93592643533E-01  0.51100000000E-03 0. -1.
</event>
<event>
 8    1  0.1054086E+005  0.1043930E+01  0.7957747E-01            NaN
         13   -1    0    0    0    0  0.00000000000E+00  0.00000000000E+00  0.74505805969E-08  0.10566000000E+00  0.10566000000E+00 0. -1.
     999900   -1    0    0    0    0 -0.00000000000E+00 -0.00000000000E+00 -0.74505805969E-08  0.93827000000E+00  0.93827000000E+00 0. -1.
     999902    2    1    2    0    0  0.45205208988E-02 -0.20424817532E-01 -0.12613592741E-01  0.10195023312E+01  0.10192096410E+01 0.  0.
     999903    2    3    3    0    0 -0.85203944836E-01  0.92456472343E-01 -0.78333039622E-02  0.12775375874E+00  0.21254428406E-01 0.  0.
         14    1    1    2    0    0 -0.45205208988E-02  0.20424817532E-01  0.12613592741E-01  0.24427668784E-01  0.00000000000E+00 0. -1.
     999901    1    3    3    0    0  0.89724465735E-01 -0.11288128988E+00 -0.47802887784E-02  0.89174857248E+00  0.88000000000E+00 0.  1.
        -11    1    4    4    0    0 -0.68444448373E-01  0.65853604471E-01 -0.13061724079E-01  0.95876011034E-01  0.51100000000E-03 0. -1.
         11    1    4    4    0    0 -0.16759496463E-01  0.26602867873E-01  0.52284201170E-02  0.31877747704E-01  0.51100000000E-03 0.  1.
</event>
<event>
 8    1  0.1054086E+005  0.1043930E+01  0.7957747E-01            NaN
         13   -1    0    0    0    0  0.00000000000E+00  0.00000000000E+00  0.74505805969E-08  0.10566000000E+00  0.10566000000E+00 0. -1.
     999900   -1    0    0    0    0 -0.00000000000E+00 -0.00000000000E+00 -0.74505805969E-08  0.93827000000E+00  0.93827000000E+00 0. -1.
     999902    2    1    2    0    0 -0.16839342869E-01  0.49860998046E-02  0.15188966946E-01  0.10207108403E+01  0.10204467111E+01 0.  0.
     999903    2    3    3    0    0  0.16973886062E-01  0.20293467700E-01 -0.12459285411E+00  0.12890558834E+00  0.19832644061E-01 0.  0.
         14    1    1    2    0    0  0.16839342869E-01 -0.49860998046E-02 -0.15188966946E-01  0.23219159684E-01  0.00000000000E+00 0.  1.
     999901    1    3    3    0    0 -0.33813228931E-01 -0.15307367896E-01  0.13978182105E+00  0.89180525198E+00  0.88000000000E+00 0.  1.
        -11    1    4    4    0    0  0.20795957585E-01  0.16653750613E-01 -0.88481867254E-01  0.92407365589E-01  0.51100000000E-03 0.  1.
         11    1    4    4    0    0 -0.38220715232E-02  0.36397170871E-02 -0.36110986853E-01  0.36498222747E-01  0.51100000000E-03 0. -1.
</event>
<event>
 8    1  0.1054086E+005  0.1043930E+01  0.7957747E-01            NaN
         13   -1    0    0    0    0  0.00000000000E+00  0.00000000000E+00  0.74505805969E-08  0.10566000000E+00  0.10566000000E+00 0.  1.
     999900   -1    0    0    0    0 -0.00000000000E+00 -0.00000000000E+00 -0.74505805969E-08  0.93827000000E+00  0.93827000000E+00 0. -1.
     999902    2    1    2    0    0 -0.11464607091E-01  0.67659226754E-02  0.19897376135E-01  0.10199900647E+01  0.10197090818E+01 0.  0.
     999903    2    3    3    0    0  0.12001722969E+00  0.43480926659E-01  0.64632780960E-02  0.12936335282E+00  0.19959375802E-01 0.  0.
         14    1    1    2    0    0  0.11464607091E-01 -0.67659226754E-02 -0.19897376135E-01  0.23939935306E-01  0.00000000000E+00 0. -1.
     999901    1    3    3    0    0 -0.13148183678E+00 -0.36715003983E-01  0.13434098039E-01  0.89062671188E+00  0.88000000000E+00 0.  1.
        -11    1    4    4    0    0  0.16028912965E-01  0.10197660290E-01  0.67766855022E-02  0.20176791460E-01  0.51100000000E-03 0.  1.
         11    1    4    4    0    0  0.10398831672E+00  0.33283266369E-01 -0.31340740618E-03  0.10918656136E+00  0.51100000000E-03 0. -1.
</event>
<event>
 8    1  0.1054086E+005  0.1043930E+01  0.7957747E-01            NaN
         13   -1    0    0    0    0  0.00000000000E+00  0.00000000000E+00  0.74505805969E-08  0.10566000000E+00  0.10566000000E+00 0. -1.
     999900   -1    0    0    0    0 -0.00000000000E+00 -0.00000000000E+00 -0.74505805969E-08  0.93827000000E+00  0.93827000000E+00 0. -1.
     999902    2    1    2    0    0 -0.14353123378E-01  0.85060147223E-02 -0.17071957127E-01  0.10200591777E+01  0.10197798340E+01 0.  0.
     999903    2    3    3    0    0 -0.80390785128E-01 -0.50303345582E-01 -0.90761368609E-01  0.13256289996E+00  0.18498418981E-01 0.  0.
         14    1    1    2    0    0  0.14353123378E-01 -0.85060147223E-02  0.17071957127E-01  0.23870822301E-01  0.00000000000E+00 0. -1.
     999901    1    3    3    0    0  0.66037661749E-01  0.58809360304E-01  0.73689411482E-01  0.88749627773E+00  0.88000000000E+00 0.  1.
        -11    1    4    4    0    0 -0.30049550485E-01 -0.16608229383E-01 -0.45194216259E-01  0.56759026346E-01  0.51100000000E-03 0. -1.
         11    1    4    4    0    0 -0.50341234643E-01 -0.33695116199E-01 -0.45567152351E-01  0.75803873618E-01  0.51100000000E-03 0.  1.
</event>
<event>
 8    1  0.1054086E+005  0.1043930E+01  0.7957747E-01            NaN
         13   -1    0    0    0    0  0.00000000000E+00  0.00000000000E+00  0.74505805969E-08  0.10566000000E+00  0.10566000000E+00 0.  1.
     999900   -1    0    0    0    0 -0.00000000000E+00 -0.00000000000E+00 -0.74505805969E-08  0.93827000000E+00  0.93827000000E+00 0.  1.
     999902    2    1    2    0    0 -0.21649735082E-01 -0.10218960744E-01  0.45499051824E-02  0.10195611710E+01  0.10192699062E+01 0.  0.
     999903    2    3    3    0    0  0.21438845085E-01  0.86750792967E-01  0.91086423729E-01  0.12897241751E+00  0.18756964860E-01 0.  0.
         14    1    1    2    0    0  0.21649735082E-01  0.10218960744E-01 -0.45499051824E-02  0.24368828962E-01  0.00000000000E+00 0. -1.
     999901    1    3    3    0    0 -0.43088580167E-01 -0.96969753711E-01 -0.86536518547E-01  0.89058875353E+00  0.88000000000E+00 0.  1.
        -11    1    4    4    0    0  0.15612035442E-01  0.70893615822E-01  0.82901492605E-01  0.11019328025E+00  0.51100000000E-03 0.  1.
         11    1    4    4    0    0  0.58268096427E-02  0.15857177145E-01  0.81849311237E-02  0.18779137257E-01  0.51100000000E-03 0. -1.
</event>
<event>
 8    1  0.1054086E+005  0.1043930E+01  0.7957747E-01            NaN
         13   -1    0    0    0    0  0.00000000000E+00  0.00000000000E+00  0.74505805969E-08  0.10566000000E+00  0.10566000000E+00 0. -1.
     999900   -1    0    0    0    0 -0.00000000000E+00 -0.00000000000E+00 -0.74505805969E-08  0.93827000000E+00  0.93827000000E+00 0. -1.
     999902    2    1    2    0    0 -0.58911675156E-02  0.22019785410E-01 -0.61228543694E-02  0.10203277512E+01  0.10200547307E+01 0.  0.
     999903    2    3    3    0    0  0.50110985174E-01  0.66152244148E-01 -0.10123151359E+00  0.13233587504E+00  0.19435386202E-01 0.  0.
         14    1    1    2    0    0  0.58911675156E-02 -0.22019785410E-01  0.61228543694E-02  0.23602248830E-01  0.00000000000E+00 0.  1.
     999901    1    3    3    0    0 -0.56002152690E-01 -0.44132458738E-01  0.95108659222E-01  0.88799187613E+00  0.88000000000E+00 0.  1.
        -11    1    4    4    0    0  0.15554535250E-01  0.36126101871E-01 -0.50251380318E-01  0.63816151155E-01  0.51100000000E-03 0.  1.
         11    1    4    4    0    0  0.34556449924E-01  0.30026142276E-01 -0.50980133273E-01  0.68519723882E-01  0.51100000000E-03 0. -1.
</event>
<event>
 8    1  0.1054086E+005  0.1043930E+01  0.7957747E-01            NaN
         13   -1    0    0    0    0  0.00000000000E+00  0.00000000000E+00  0.74505805969E-08  0.10566000000E+00  0.10566000000E+00 0. -1.
     999900   -1    0    0    0    0 -0.00000000000E+00 -0.00000000000E+00 -0.74505805969E-08  0.93827000000E+00  0.93827000000E+00 0.  1.
     999902    2    1    2    0    0 -0.13092899757E-01 -0.14814581907E-01 -0.11327864325E-01  0.10211436802E+01  0.10208894157E+01 0.  0.
     999903    2    3    3    0    0 -0.13152131535E+00 -0.12488465418E-02  0.35164179139E-02  0.13298284366E+00  0.19304287237E-01 0.  0.
         14    1    1    2    0    0  0.13092899757E-01  0.14814581907E-01  0.11327864325E-01  0.22786319828E-01  0.00000000000E+00 0. -1.
     999901    1    3    3    0    0  0.11842841559E+00 -0.13565735365E-01 -0.14844282239E-01  0.88816083651E+00  0.88000000000E+00 0.  1.
        -11    1    4    4    0    0 -0.99406868492E-01  0.46804985262E-02  0.87610870310E-02  0.99903204838E-01  0.51100000000E-03 0.  1.
         11    1    4    4    0    0 -0.32114446853E-01 -0.59293450680E-02 -0.52446691170E-02  0.33079638825E-01  0.51100000000E-03 0. -1.
</event>
<event>
 8    1  0.1054086E+005  0.1043930E+01  0.7957747E-01            NaN
         13   -1    0    0    0    0  0.00000000000E+00  0.00000000000E+00  0.74505805969E-08  0.10566000000E+00  0.10566000000E+00 0.  1.
     999900   -1    0    0    0    0 -0.00000000000E+00 -0.00000000000E+00 -0.74505805969E-08  0.93827000000E+00  0.93827000000E+00 0.  1.
     999902    2    1    2    0    0  0.13590091034E-01 -0.18285260811E-01 -0.43753633327E-02  0.10207311823E+01  0.10204675210E+01 0.  0.
     999903    2    3    3    0    0  0.30873260107E-01 -0.11728287405E+00 -0.53080484762E-01  0.13367344789E+00  0.18510053348E-01 0.  0.
         14    1    1    2    0    0 -0.13590091034E-01  0.18285260811E-01  0.43753633327E-02  0.23198817676E-01  0.00000000000E+00 0. -1.
     999901    1    3    3    0    0 -0.17283169072E-01  0.98997613236E-01  0.48705121429E-01  0.88705773443E+00  0.88000000000E+00 0.  1.
        -11    1    4    4    0    0  0.29446300762E-01 -0.11038710624E+00 -0.54321421027E-01  0.12650484480E+00  0.51100000000E-03 0. -1.
         11    1    4    4    0    0  0.14269593451E-02 -0.68957678028E-02  0.12409362647E-02  0.71686030979E-02  0.51100000000E-03 0.  1.
</event>
<event>
 8    1  0.1054086E+005  0.1043930E+01  0.7957747E-01            NaN
         13   -1    0    0    0    0  0.00000000000E+00  0.00000000000E+00  0.74505805969E-08  0.10566000000E+00  0.10566000000E+00 0.  1.
     999900   -1    0    0    0    0 -0.00000000000E+00 -0.00000000000E+00 -0.74505805969E-08  0.93827000000E+00  0.93827000000E+00 0.  1.
     999902    2    1    2    0    0 -0.15914514455E-01  0.16452648792E-01 -0.57312449273E-02  0.10203332080E+01  0.10200603153E+01 0.  0.
     999903    2    3    3    0    0 -0.35230029602E-01 -0.97448658064E-01 -0.75749038891E-01  0.13002478490E+00  0.20763714790E-01 0.  0.
         14    1    1    2    0    0  0.15914514455E-01 -0.16452648792E-01  0.57312449273E-02  0.23596791965E-01  0.00000000000E+00 0.  1.
     999901    1    3    3    0    0  0.19315515147E-01  0.11390130686E+00  0.70017793964E-01  0.89030842313E+00  0.88000000000E+00 0. -1.
        -11    1    4    4    0    0 -0.22322582660E-01 -0.33322990619E-01 -0.25398694771E-01  0.47477091502E-01  0.51100000000E-03 0.  1.
         11    1    4    4    0    0 -0.12907446942E-01 -0.64125667445E-01 -0.50350344120E-01  0.82547693401E-01  0.51100000000E-03 0. -1.
</event>
<event>
 8    1  0.1054086E+005  0.1043930E+01  0.7957747E-01            NaN
         13   -1    0    0    0    0  0.00000000000E+00  0.00000000000E+00  0.74505805969E-08  0.10566000000E+00  0.10566000000E+00 0.  1.
     999900   -1    0    0    0    0 -0.00000000000E+00 -0.00000000000E+00 -0.74505805969E-08  0.93827000000E+00  0.93827000000E+00 0. -1.
     999902    2    1    2    0    0  0.14287988087E-01 -0.74688741193E-02 -0.55883745168E-02  0.10268665709E+01  0.10267247897E+01 0.  0.
     999903    2    3    3    0    0  0.66790133827E-01 -0.87434145656E-01 -0.81632115838E-01  0.13842210408E+00  0.19779402388E-01 0.  0.
         14    1    1    2    0    0 -0.14287988087E-01  0.74688741193E-02  0.55883745168E-02  0.17063429137E-01  0.00000000000E+00 0. -1.
     999901    1    3    3    0    0 -0.52502145740E-01  0.79965271537E-01  0.76043741322E-01  0.88844446678E+00  0.88000000000E+00 0. -1.
        -11    1    4    4    0    0  0.82250656475E-02 -0.23836341322E-01 -0.21068460874E-01  0.32862806288E-01  0.51100000000E-03 0. -1.
         11    1    4    4    0    0  0.58565068180E-01 -0.63597804334E-01 -0.60563654965E-01  0.10555929779E+00  0.51100000000E-03 0.  1.
</event>
<event>
 8    1  0.1054086E+005  0.1043930E+01  0.7957747E-01            NaN
         13   -1    0    0    0    0  0.00000000000E+00  0.00000000000E+00  0.74505805969E-08  0.10566000000E+00  0.10566000000E+00 0. -1.
     999900   -1    0    0    0    0 -0.00000000000E+00 -0.00000000000E+00 -0.74505805969E-08  0.93827000000E+00  0.93827000000E+00 0.  1.
     999902    2    1    2    0    0  0.25067718125E-01 -0.92617314709E-02  0.37150233844E-02  0.10169490519E+01  0.10165910695E+01 0.  0.
     999903    2    3    3    0    0 -0.51795373245E-01  0.19213431400E-01 -0.11104174873E+00  0.12572074980E+00  0.20579609622E-01 0.  0.
         14    1    1    2    0    0 -0.25067718125E-01  0.92617314709E-02 -0.37150233844E-02  0.26980948104E-01  0.00000000000E+00 0. -1.
     999901    1    3    3    0    0  0.76863091370E-01 -0.28475162871E-01  0.11475677212E+00  0.89122830210E+00  0.88000000000E+00 0. -1.
        -11    1    4    4    0    0 -0.34788434581E-01  0.92403988793E-02 -0.50278015133E-01  0.61836559403E-01  0.51100000000E-03 0.  1.
         11    1    4    4    0    0 -0.17006938664E-01  0.99730325210E-02 -0.60763733599E-01  0.63884190394E-01  0.51100000000E-03 0. -1.
</event>
<event>
 8    1  0.1054086E+005  0.1043930E+01  0.7957747E-01            NaN
         13   -1    0    0    0    0  0.00000000000E+00  0.00000000000E+00  0.74505805969E-08  0.10566000000E+00  0.10566000000E+00 0. -1.
     999900   -1    0    0    0    0 -0.00000000000E+00 -0.00000000000E+00 -0.74505805969E-08  0.93827000000E+00  0.93827000000E+00 0.  1.
     999902    2    1    2    0    0  0.58709399722E-02  0.11306098068E-01  0.19990843810E-01  0.10202249451E+01  0.10199495130E+01 0.  0.
     999903    2    3    3    0    0  0.87319707037E-01 -0.64466390410E-01 -0.66776482925E-01  0.12898763631E+00  0.19951564325E-01 0.  0.
         14    1    1    2    0    0 -0.58709399722E-02 -0.11306098068E-01 -0.19990843810E-01  0.23705054860E-01  0.00000000000E+00 0.  1.
     999901    1    3    3    0    0 -0.81448767065E-01  0.75772488477E-01  0.86767326734E-01  0.89123730883E+00  0.88000000000E+00 0. -1.
        -11    1    4    4    0    0  0.43146035024E-01 -0.19783109844E-01 -0.30752340219E-01  0.56558989766E-01  0.51100000000E-03 0. -1.
         11    1    4    4    0    0  0.44173672013E-01 -0.44683280565E-01 -0.36024142705E-01  0.72428646542E-01  0.51100000000E-03 0.  1.
</event>
<event>
 8    1  0.1054086E+005  0.1043930E+01  0.7957747E-01            NaN
         13   -1    0    0    0    0  0.00000000000E+00  0.00000000000E+00  0.74505805969E-08  0.10566000000E+00  0.10566000000E+00 0. -1.
     999900   -1    0    0    0    0 -0.00000000000E+00 -0.00000000000E+00 -0.74505805969E-08  0.93827000000E+00  0.93827000000E+00 0. -1.
     999902    2    1    2    0    0 -0.69385646568E-03 -0.26041384502E-01 -0.11203445882E-01  0.10155724200E+01  0.10151764319E+01 0.  0.
     999903    2    3    3    0    0  0.42596698428E-01 -0.12071900093E+00  0.78595839266E-02  0.12923088183E+00  0.15852187700E-01 0.  0.
         14    1    1    2    0    0  0.69385646568E-03  0.26041384502E-01  0.11203445882E-01  0.28357579996E-01  0.00000000000E+00 0. -1.
     999901    1    3    3    0    0 -0.43290554894E-01  0.94677616430E-01 -0.19063029809E-01  0.88634153818E+00  0.88000000000E+00 0. -1.
        -11    1    4    4    0    0  0.38019173606E-01 -0.90727440785E-01  0.95858665494E-02  0.98838636330E-01  0.51100000000E-03 0.  1.
         11    1    4    4    0    0  0.45775248218E-02 -0.29991560147E-01 -0.17262826228E-02  0.30392245496E-01  0.51100000000E-03 0. -1.
</event>
<event>
 8    1  0.1054086E+005  0.1043930E+01  0.7957747E-01            NaN
         13   -1    0    0    0    0  0.00000000000E+00  0.00000000000E+00  0.74505805969E-08  0.10566000000E+00  0.10566000000E+00 0.  1.
     999900   -1    0    0    0    0 -0.00000000000E+00 -0.00000000000E+00 -0.74505805969E-08  0.93827000000E+00  0.93827000000E+00 0. -1.
     999902    2    1    2    0    0  0.37928497179E-02  0.36737938630E-02  0.13829764299E-01  0.10291264582E+01  0.10290199814E+01 0.  0.
     999903    2    3    3    0    0  0.97161375076E-01  0.89691557154E-01  0.40922102680E-01  0.13960370301E+00  0.18156739140E-01 0.  0.
         14    1    1    2    0    0 -0.37928497179E-02 -0.36737938630E-02 -0.13829764299E-01  0.14803541836E-01  0.00000000000E+00 0. -1.
     999901    1    3    3    0    0 -0.93368525359E-01 -0.86017763291E-01 -0.27092338381E-01  0.88952275515E+00  0.88000000000E+00 0. -1.
        -11    1    4    4    0    0  0.20216772007E-01  0.13853051373E-01  0.14127408102E-01  0.28292572938E-01  0.51100000000E-03 0.  1.
         11    1    4    4    0    0  0.76944603069E-01  0.75838505781E-01  0.26794694578E-01  0.11131113008E+00  0.51100000000E-03 0. -1.
</event>
<event>
 8    1  0.1054086E+005  0.1043930E+01  0.7957747E-01            NaN
         13   -1    0    0    0    0  0.00000000000E+00  0.00000000000E+00  0.74505805969E-08  0.10566000000E+00  0.10566000000E+00 0.  1.
     999900   -1    0    0    0    0 -0.00000000000E+00 -0.00000000000E+00 -0.74505805969E-08  0.93827000000E+00  0.93827000000E+00 0. -1.
     999902    2    1    2    0    0 -0.17127527708E-01 -0.13788634070E-01  0.13751063956E-01  0.10179960378E+01  0.10176656438E+01 0.  0.
     999903    2    3    3    0    0 -0.12554155303E+00 -0.23370646778E-01  0.22919654041E-01  0.13124382953E+00  0.19818263800E-01 0.  0.
         14    1    1    2    0    0  0.17127527708E-01  0.13788634070E-01 -0.13751063956E-01  0.25933962189E-01  0.00000000000E+00 0. -1.
     999901    1    3    3    0    0  0.10841402532E+00  0.95820127075E-02 -0.91685900855E-02  0.88675220828E+00  0.88000000000E+00 0. -1.
        -11    1    4    4    0    0 -0.79822143945E-01 -0.11614698484E-01  0.52463819642E-02  0.80834779208E-01  0.51100000000E-03 0.  1.
         11    1    4    4    0    0 -0.45719409083E-01 -0.11755948293E-01  0.17673272077E-01  0.50409050319E-01  0.51100000000E-03 0. -1.
</event>
<event>
 8    1  0.1054086E+005  0.1043930E+01  0.7957747E-01            NaN
         13   -1    0    0    0    0  0.00000000000E+00  0.00000000000E+00  0.74505805969E-08  0.10566000000E+00  0.10566000000E+00 0.  1.
     999900   -1    0    0    0    0 -0.00000000000E+00 -0.00000000000E+00 -0.74505805969E-08  0.93827000000E+00  0.93827000000E+00 0.  1.
     999902    2    1    2    0    0 -0.22878637008E-01 -0.56353669865E-02 -0.54598662754E-02  0.10197432364E+01  0.10194563594E+01 0.  0.
     999903    2    3    3    0    0 -0.29545880898E-01 -0.25233704337E-01  0.12247485615E+00  0.13025133642E+00  0.21345288429E-01 0.  0.
         14    1    1    2    0    0  0.22878637008E-01  0.56353669865E-02  0.54598662754E-02  0.24186763573E-01  0.00000000000E+00 0.  1.
     999901    1    3    3    0    0  0.66672438903E-02  0.19598337350E-01 -0.12793472243E+00  0.88949190000E+00  0.88000000000E+00 0.  1.
        -11    1    4    4    0    0 -0.17315310426E-01 -0.15454564556E-01  0.39554474212E-01  0.45863723049E-01  0.51100000000E-03 0.  1.
         11    1    4    4    0    0 -0.12230570472E-01 -0.97791397811E-02  0.82920381941E-01  0.84387613375E-01  0.51100000000E-03 0. -1.
</event>
<event>
 8    1  0.1054086E+005  0.1043930E+01  0.7957747E-01            NaN
         13   -1    0    0    0    0  0.00000000000E+00  0.00000000000E+00  0.74505805969E-08  0.10566000000E+00  0.10566000000E+00 0.  1.
     999900   -1    0    0    0    0 -0.00000000000E+00 -0.00000000000E+00 -0.74505805969E-08  0.93827000000E+00  0.93827000000E+00 0. -1.
     999902    2    1    2    0    0  0.20769724817E-01  0.17081477954E-01  0.33170941462E-02  0.10168345858E+01  0.10164735183E+01 0.  0.
     999903    2    3    3    0    0 -0.61764069686E-01  0.83112909041E-01  0.72321761029E-01  0.12782748729E+00  0.19669098452E-01 0.  0.
         14    1    1    2    0    0 -0.20769724817E-01 -0.17081477954E-01 -0.33170941462E-02  0.27095414218E-01  0.00000000000E+00 0. -1.
     999901    1    3    3    0    0  0.82533794503E-01 -0.66031431087E-01 -0.69004666883E-01  0.88900709850E+00  0.88000000000E+00 0. -1.
        -11    1    4    4    0    0 -0.25794923801E-01  0.36516105418E-01  0.43118531481E-01  0.62114997601E-01  0.51100000000E-03 0. -1.
         11    1    4    4    0    0 -0.35969145885E-01  0.46596803622E-01  0.29203229548E-01  0.65712489685E-01  0.51100000000E-03 0.  1.
</event>
<event>
 8    1  0.1054086E+005  0.1043930E+01  0.7957747E-01            NaN
         13   -1    0    0    0    0  0.00000000000E+00  0.00000000000E+00  0.74505805969E-08  0.10566000000E+00  0.10566000000E+00 0.  1.
     999900   -1    0    0    0    0 -0.00000000000E+00 -0.00000000000E+00 -0.74505805969E-08  0.93827000000E+00  0.93827000000E+00 0.  1.
     999902    2    1    2    0    0  0.59110572603E-02  0.22035597116E-01 -0.65669254785E-02  0.10201890512E+01  0.10199127745E+01 0.  0.
     999903    2    3    3    0    0 -0.16060368320E-01  0.11803283789E+00 -0.55893535726E-01  0.13332303640E+00  0.21476928270E-01 0.  0.
         14    1    1    2    0    0 -0.59110572603E-02 -0.22035597116E-01  0.65669254785E-02  0.23740948769E-01  0.00000000000E+00 0. -1.
     999901    1    3    3    0    0  0.21971425580E-01 -0.95997240778E-01  0.49326610248E-01  0.88686601483E+00  0.88000000000E+00 0. -1.
        -11    1    4    4    0    0  0.41627077283E-02  0.41495036832E-01 -0.15965717768E-01  0.44657938624E-01  0.51100000000E-03 0. -1.
         11    1    4    4    0    0 -0.20223076048E-01  0.76537801062E-01 -0.39927817958E-01  0.88665097779E-01  0.51100000000E-03 0.  1.
</event>
<event>
 7    1  0.1196945E+005  0.1043930E+01  0.7957747E-01            NaN
         13   -1    0    0    0    0  0.00000000000E+00  0.00000000000E+00  0.74505805969E-08  0.10566000000E+00  0.10566000000E+00 0.  1.
     999900   -1    0    0    0    0 -0.00000000000E+00 -0.00000000000E+00 -0.74505805969E-08  0.93827000000E+00  0.93827000000E+00 0. -1.
     999903    2    1    2    0    0  0.81250576977E-01 -0.21809728118E-01 -0.22298008890E-01  0.91062886667E-01  0.26794171531E-01 0.  0.
         14    1    1    2    0    0  0.50924688062E-01 -0.30814487293E-01 -0.12262055538E-01  0.60771823137E-01  0.00000000000E+00 0. -1.
     999901    1    1    2    0    0 -0.13217526504E+00  0.52624215411E-01  0.34560064429E-01  0.89209529020E+00  0.88000000000E+00 0. -1.
        -11    1    3    3    0    0  0.34443108886E-01 -0.19290592625E-01 -0.79540065453E-03  0.39488586918E-01  0.51100000000E-03 0. -1.
         11    1    3    3    0    0  0.46807468091E-01 -0.25191354930E-02 -0.21502608236E-01  0.51574299749E-01  0.51100000000E-03 0.  1.
</event>
<event>
 8    1  0.1054086E+005  0.1043930E+01  0.7957747E-01            NaN
         13   -1    0    0    0    0  0.00000000000E+00  0.00000000000E+00  0.74505805969E-08  0.10566000000E+00  0.10566000000E+00 0.  1.
     999900   -1    0    0    0    0 -0.00000000000E+00 -0.00000000000E+00 -0.74505805969E-08  0.93827000000E+00  0.93827000000E+00 0.  1.
     999902    2    1    2    0    0 -0.49541140791E-02 -0.23151800855E-01  0.32437126467E-02  0.10200329123E+01  0.10197529462E+01 0.  0.
     999903    2    3    3    0    0  0.11039234564E+00 -0.75807939702E-02  0.65596003136E-01  0.13018176173E+00  0.20012921981E-01 0.  0.
         14    1    1    2    0    0  0.49541140791E-02  0.23151800855E-01 -0.32437126467E-02  0.23897087707E-01  0.00000000000E+00 0. -1.
     999901    1    3    3    0    0 -0.11534645972E+00 -0.15571006884E-01 -0.62352290489E-01  0.88985115056E+00  0.88000000000E+00 0.  1.
        -11    1    4    4    0    0  0.46295445800E-01  0.38842364744E-02  0.19427588391E-01  0.50359188898E-01  0.51100000000E-03 0. -1.
         11    1    4    4    0    0  0.64096899845E-01 -0.11465030445E-01  0.46168414745E-01  0.79822572834E-01  0.51100000000E-03 0.  1.
</event>
<event>
 8    1  0.1054086E+005  0.1043930E+01  0.7957747E-01            NaN
         13   -1    0    0    0    0  0.00000000000E+00  0.00000000000E+00  0.74505805969E-08  0.10566000000E+00  0.10566000000E+00 0. -1.
     999900   -1    0    0    0    0 -0.00000000000E+00 -0.00000000000E+00 -0.74505805969E-08  0.93827000000E+00  0.93827000000E+00 0. -1.
     999902    2    1    2    0    0 -0.19675269089E-01  0.13778494312E-01  0.28683873139E-02  0.10197392835E+01  0.10194523116E+01 0.  0.
     999903    2    3    3    0    0  0.28944582844E-01 -0.50516324048E-01  0.11323959842E+00  0.12918916255E+00  0.21839075031E-01 0.  0.
         14    1    1    2    0    0  0.19675269089E-01 -0.13778494312E-01 -0.28683873139E-02  0.24190716505E-01  0.00000000000E+00 0. -1.
     999901    1    3    3    0    0 -0.48619851933E-01  0.64294818360E-01 -0.11037121111E+00  0.89055012094E+00  0.88000000000E+00 0. -1.
        -11    1    4    4    0    0  0.13134935286E-01 -0.60637894374E-02  0.19977748885E-01  0.24671190463E-01  0.51100000000E-03 0.  1.
         11    1    4    4    0    0  0.15809647557E-01 -0.44452534610E-01  0.93261849539E-01  0.10451797209E+00  0.51100000000E-03 0. -1.
</event>
<event>
 8    1  0.1054086E+005  0.1043930E+01  0.7957747E-01            NaN
         13   -1    0    0    0    0  0.00000000000E+00  0.00000000000E+00  0.74505805969E-08  0.10566000000E+00  0.10566000000E+00 0. -1.
     999900   -1    0    0    0    0 -0.00000000000E+00 -0.00000000000E+00 -0.74505805969E-08  0.93827000000E+00  0.93827000000E+00 0. -1.
     999902    2    1    2    0    0  0.20054186860E-01  0.14929411829E-02 -0.30169499628E-02  0.10235952693E+01  0.10233932647E+01 0.  0.
     999903    2    3    3    0    0  0.19389134270E-01  0.16057319863E-01 -0.13031023168E+00  0.13431682982E+00  0.20651349653E-01 0.  0.
         14    1    1    2    0    0 -0.20054186860E-01 -0.14929411829E-02  0.30169499628E-02  0.20334730661E-01  0.00000000000E+00 0. -1.
     999901    1    3    3    0    0  0.66505258961E-03 -0.14564378680E-01  0.12729328172E+00  0.88927843952E+00  0.88000000000E+00 0.  1.
        -11    1    4    4    0    0  0.20103373524E-01  0.20094544587E-01 -0.11340541003E+00  0.11691443236E+00  0.51100000000E-03 0.  1.
         11    1    4    4    0    0 -0.71423925407E-03 -0.40372247234E-02 -0.16904821652E-01  0.17402397458E-01  0.51100000000E-03 0. -1.
</event>
<event>
 8    1  0.1054086E+005  0.1043930E+01  0.7957747E-01            NaN
         13   -1    0    0    0    0  0.00000000000E+00  0.00000000000E+00  0.74505805969E-08  0.10566000000E+00  0.10566000000E+00 0. -1.
     999900   -1    0    0    0    0 -0.00000000000E+00 -0.00000000000E+00 -0.74505805969E-08  0.93827000000E+00  0.93827000000E+00 0. -1.
     999902    2    1    2    0    0 -0.72368065341E-02 -0.17183596489E-01  0.15210950338E-01  0.10198671580E+01  0.10195832480E+01 0.  0.
     999903    2    3    3    0    0 -0.36530863685E-02  0.11471427541E+00  0.55148361824E-01  0.12913437620E+00  0.21485699452E-01 0.  0.
         14    1    1    2    0    0  0.72368065341E-02  0.17183596489E-01 -0.15210950338E-01  0.24062842045E-01  0.00000000000E+00 0.  1.
     999901    1    3    3    0    0 -0.35837201656E-02 -0.13189787190E+00 -0.39937411486E-01  0.89073278176E+00  0.88000000000E+00 0. -1.
        -11    1    4    4    0    0  0.44109890975E-02  0.97961404098E-01  0.48323384071E-01  0.10932202014E+00  0.51100000000E-03 0.  1.
         11    1    4    4    0    0 -0.80640754660E-02  0.16752871313E-01  0.68249777520E-02  0.19812356061E-01  0.51100000000E-03 0. -1.
</event>
<event>
 8    1  0.1054086E+005  0.1043930E+01  0.7957747E-01            NaN
         13   -1    0    0    0    0  0.00000000000E+00  0.00000000000E+00  0.74505805969E-08  0.10566000000E+00  0.10566000000E+00 0. -1.
     999900   -1    0    0    0    0 -0.00000000000E+00 -0.00000000000E+00 -0.74505805969E-08  0.93827000000E+00  0.93827000000E+00 0.  1.
     999902    2    1    2    0    0 -0.94652743834E-02  0.96173734619E-02 -0.20314464943E-01  0.10195422412E+01  0.10192505182E+01 0.  0.
     999903    2    3    3    0    0 -0.39485263154E-01  0.24477273855E-01 -0.12293117792E+00  0.13294638847E+00  0.20110812056E-01 0.  0.
         14    1    1    2    0    0  0.94652743834E-02 -0.96173734619E-02  0.20314464943E-01  0.24387758761E-01  0.00000000000E+00 0. -1.
     999901    1    3    3    0    0  0.30019988771E-01 -0.14859900393E-01  0.10261671297E+00  0.88659585277E+00  0.88000000000E+00 0. -1.
        -11    1    4    4    0    0 -0.77570951681E-02  0.10539491759E-01 -0.16812417603E-01  0.21311309642E-01  0.51100000000E-03 0. -1.
         11    1    4    4    0    0 -0.31728167986E-01  0.13937782096E-01 -0.10611876031E+00  0.11163507883E+00  0.51100000000E-03 0.  1.
</event>
<event>
 8    1  0.1054086E+005  0.1043930E+01  0.7957747E-01            NaN
         13   -1    0    0    0    0  0.00000000000E+00  0.00000000000E+00  0.74505805969E-08  0.10566000000E+00  0.10566000000E+00 0.  1.
     999900   -1    0    0    0    0 -0.00000000000E+00 -0.00000000000E+00 -0.74505805969E-08  0.93827000000E+00  0.93827000000E+00 0.  1.
     999902    2    1    2    0    0 -0.93736096944E-02 -0.28816442562E-02  0.21423060046E-01  0.10203691016E+01  0.10200970481E+01 0.  0.
     999903    2    3    3    0    0  0.10307037503E+00  0.19630602281E-01  0.76581793647E-01  0.13121616939E+00  0.18548564233E-01 0.  0.
         14    1    1    2    0    0  0.93736096944E-02  0.28816442562E-02 -0.21423060046E-01  0.23560898414E-01  0.00000000000E+00 0. -1.
     999901    1    3    3    0    0 -0.11244398473E+00 -0.22512246537E-01 -0.55158733600E-01  0.88915293220E+00  0.88000000000E+00 0.  1.
        -11    1    4    4    0    0  0.36126986308E-01  0.15074772086E-02  0.35137790692E-01  0.50421791747E-01  0.51100000000E-03 0. -1.
         11    1    4    4    0    0  0.66943388725E-01  0.18123125073E-01  0.41444002954E-01  0.80794377640E-01  0.51100000000E-03 0.  1.
</event>
<event>
 8    1  0.1054086E+005  0.1043930E+01  0.7957747E-01            NaN
         13   -1    0    0    0    0  0.00000000000E+00  0.00000000000E+00  0.74505805969E-08  0.10566000000E+00  0.10566000000E+00 0.  1.
     999900   -1    0    0    0    0 -0.00000000000E+00 -0.00000000000E+00 -0.74505805969E-08  0.93827000000E+00  0.93827000000E+00 0.  1.
     999902    2    1    2    0    0  0.16773648837E-01 -0.64184630278E-02 -0.51575427366E-03  0.10259628643E+01  0.10258055278E+01 0.  0.
     999903    2    3    3    0    0  0.10855186843E+00  0.72384701046E-01  0.34049441629E-01  0.13701520947E+00  0.24305350538E-01 0.  0.
         14    1    1    2    0    0 -0.16773648837E-01  0.64184630278E-02  0.51575427366E-03  0.17967135705E-01  0.00000000000E+00 0.  1.
     999901    1    3    3    0    0 -0.91778219592E-01 -0.78803164074E-01 -0.34565195902E-01  0.88894765483E+00  0.88000000000E+00 0. -1.
        -11    1    4    4    0    0  0.21968831939E-01  0.27171081808E-01  0.11243779377E-01  0.36709412404E-01  0.51100000000E-03 0.  1.
         11    1    4    4    0    0  0.86583036490E-01  0.45213619238E-01  0.22805662251E-01  0.10030579706E+00  0.51100000000E-03 0. -1.
</event>
<event>
 8    1  0.1054086E+005  0.1043930E+01  0.7957747E-01            NaN
         13   -1    0    0    0    0  0.00000000000E+00  0.00000000000E+00  0.74505805969E-08  0.10566000000E+00  0.10566000000E+00 0.  1.
     999900   -1    0    0    0    0 -0.00000000000E+00 -0.00000000000E+00 -0.74505805969E-08  0.93827000000E+00  0.93827000000E+00 0.  1.
     999902    2    1    2    0    0  0.18416209964E-01  0.27559007025E-02 -0.17745267445E-01  0.10182075138E+01  0.10178825546E+01 0.  0.
     999903    2    3    3    0    0  0.71605512845E-01  0.39645925301E-01  0.98387522924E-01  0.12822054715E+00  0.78265689780E-02 0.  0.
         14    1    1    2    0    0 -0.18416209964E-01 -0.27559007025E-02  0.17745267445E-01  0.25722486171E-01  0.00000000000E+00 0. -1.
     999901    1    3    3    0    0 -0.53189302880E-01 -0.36890024598E-01 -0.11613279037E+00  0.88998696668E+00  0.88000000000E+00 0.  1.
        -11    1    4    4    0    0  0.38036798404E-01  0.18468566529E-01  0.45834224407E-01  0.62361231791E-01  0.51100000000E-03 0.  1.
         11    1    4    4    0    0  0.33568714440E-01  0.21177358772E-01  0.52553298518E-01  0.65859315361E-01  0.51100000000E-03 0. -1.
</event>
<event>
 8    1  0.1054086E+005  0.1043930E+01  0.7957747E-01            NaN
         13   -1    0    0    0    0  0.00000000000E+00  0.00000000000E+00  0.74505805969E-08  0.10566000000E+00  0.10566000000E+00 0. -1.
     999900   -1    0    0    0    0 -0.00000000000E+00 -0.00000000000E+00 -0.74505805969E-08  0.93827000000E+00  0.93827000000E+00 0.  1.
     999902    2    1    2    0    0 -0.19359365024E-01 -0.11364689458E-01  0.81940198465E-02  0.10200326541E+01  0.10197526819E+01 0.  0.
     999903    2    3    3    0    0  0.73455395901E-01  0.70182954412E-01  0.76006667620E-01  0.12881822800E+00  0.22266119207E-01 0.  0.
         14    1    1    2    0    0  0.19359365024E-01  0.11364689458E-01 -0.81940198465E-02  0.23897345917E-01  0.00000000000E+00 0.  1.
     999901    1    3    3    0    0 -0.92814760925E-01 -0.81547643870E-01 -0.67812647774E-01  0.89121442609E+00  0.88000000000E+00 0. -1.
        -11    1    4    4    0    0  0.22389982869E-01  0.15479928804E-01  0.31954210302E-01  0.41979425981E-01  0.51100000000E-03 0.  1.
         11    1    4    4    0    0  0.51065413032E-01  0.54703025608E-01  0.44052457318E-01  0.86838802016E-01  0.51100000000E-03 0. -1.
</event>
<event>
 8    1  0.1054086E+005  0.1043930E+01  0.7957747E-01            NaN
         13   -1    0    0    0    0  0.00000000000E+00  0.00000000000E+00  0.74505805969E-08  0.10566000000E+00  0.10566000000E+00 0.  1.
     999900   -1    0    0    0    0 -0.00000000000E+00 -0.00000000000E+00 -0.74505805969E-08  0.93827000000E+00  0.93827000000E+00 0.  1.
     999902    2    1    2    0    0 -0.20572548389E-01 -0.50332643156E-02 -0.10671857871E-01  0.10202139285E+01  0.10199382373E+01 0.  0.
     999903    2    3    3    0    0 -0.51894604813E-01 -0.11958514111E+00  0.93359708909E-02  0.13201152088E+00  0.18607130620E-01 0.  0.
         14    1    1    2    0    0  0.20572548389E-01  0.50332643156E-02  0.10671857871E-01  0.23716071498E-01  0.00000000000E+00 0.  1.
     999901    1    3    3    0    0  0.31322056424E-01  0.11455187679E+00 -0.20007828762E-01  0.88820240762E+00  0.88000000000E+00 0.  1.
        -11    1    4    4    0    0 -0.31999202796E-01 -0.68396599657E-01  0.14338363149E-01  0.76862823283E-01  0.51100000000E-03 0. -1.
         11    1    4    4    0    0 -0.19895402017E-01 -0.51188541450E-01 -0.50023922581E-02  0.55148697596E-01  0.51100000000E-03 0.  1.
</event>
<event>
 8    1  0.1054086E+005  0.1043930E+01  0.7957747E-01            NaN
         13   -1    0    0    0    0  0.00000000000E+00  0.00000000000E+00  0.74505805969E-08  0.10566000000E+00  0.10566000000E+00 0. -1.
     999900   -1    0    0    0    0 -0.00000000000E+00 -0.00000000000E+00 -0.74505805969E-08  0.93827000000E+00  0.93827000000E+00 0.  1.
     999902    2    1    2    0    0  0.13053327557E-01  0.16100579819E-01 -0.12086474000E-01  0.10199362324E+01  0.10196539694E+01 0.  0.
     999903    2    3    3    0    0 -0.10791584155E+00 -0.39626853333E-02  0.64849217459E-01  0.12810935731E+00  0.23346406383E-01 0.  0.
         14    1    1    2    0    0 -0.13053327557E-01 -0.16100579819E-01  0.12086474000E-01  0.23993767620E-01  0.00000000000E+00 0.  1.
     999901    1    3    3    0    0  0.12096916911E+00  0.20063265152E-01 -0.76935691459E-01  0.89182687507E+00  0.88000000000E+00 0.  1.
        -11    1    4    4    0    0 -0.12876810049E-01  0.43573693289E-02  0.15752717536E-01  0.20813652618E-01  0.51100000000E-03 0. -1.
         11    1    4    4    0    0 -0.95039031505E-01 -0.83200546622E-02  0.49096499922E-01  0.10729570469E+00  0.51100000000E-03 0.  1.
</event>
<event>
 8    1  0.1054086E+005  0.1043930E+01  0.7957747E-01            NaN
         13   -1    0    0    0    0  0.00000000000E+00  0.00000000000E+00  0.74505805969E-08  0.10566000000E+00  0.10566000000E+00 0.  1.
     999900   -1    0    0    0    0 -0.00000000000E+00 -0.00000000000E+00 -0.74505805969E-08  0.93827000000E+00  0.93827000000E+00 0. -1.
     999902    2    1    2    0    0  0.12715162266E-01 -0.18911132553E-01 -0.75691496289E-02  0.10199175384E+01  0.10196348301E+01 0.  0.
     999903    2    3    3    0    0 -0.78740691211E-01 -0.47716909103E-01 -0.87027251779E-01  0.13115011332E+00  0.33905896300E-01 0.  0.
         14    1    1    2    0    0 -0.12715162266E-01  0.18911132553E-01  0.75691496289E-02  0.24012461598E-01  0.00000000000E+00 0. -1.
     999901    1    3    3    0    0  0.91455853476E-01  0.28805776550E-01  0.79458102150E-01  0.88876742509E+00  0.88000000000E+00 0.  1.
        -11    1    4    4    0    0 -0.34572461663E-01 -0.35952833399E-01 -0.30552790059E-01  0.58494405170E-01  0.51100000000E-03 0.  1.
         11    1    4    4    0    0 -0.44168229548E-01 -0.11764075703E-01 -0.56474461720E-01  0.72655708145E-01  0.51100000000E-03 0. -1.
</event>
<event>
 8    1  0.1054086E+005  0.1043930E+01  0.7957747E-01            NaN
         13   -1    0    0    0    0  0.00000000000E+00  0.00000000000E+00  0.74505805969E-08  0.10566000000E+00  0.10566000000E+00 0. -1.
     999900   -1    0    0    0    0 -0.00000000000E+00 -0.00000000000E+00 -0.74505805969E-08  0.93827000000E+00  0.93827000000E+00 0.  1.
     999902    2    1    2    0    0  0.58286490141E-03 -0.19288916420E-01 -0.12222376758E-01  0.10210873092E+01  0.10208317709E+01 0.  0.
     999903    2    3    3    0    0  0.18844935624E-01  0.11337533019E+00  0.53697291836E-01  0.12851870779E+00  0.20604902549E-01 0.  0.
         14    1    1    2    0    0 -0.58286490141E-03  0.19288916420E-01  0.12222376758E-01  0.22842690773E-01  0.00000000000E+00 0. -1.
     999901    1    3    3    0    0 -0.18262070722E-01 -0.13266424661E+00 -0.65919668594E-01  0.89256860143E+00  0.88000000000E+00 0.  1.
        -11    1    4    4    0    0  0.55394088419E-02  0.45632240482E-01  0.32500953611E-01  0.56298841270E-01  0.51100000000E-03 0. -1.
         11    1    4    4    0    0  0.13305526782E-01  0.67743089704E-01  0.21196338225E-01  0.72219866524E-01  0.51100000000E-03 0.  1.
</event>
<event>
 8    1  0.1054086E+005  0.1043930E+01  0.7957747E-01            NaN
         13   -1    0    0    0    0  0.00000000000E+00  0.00000000000E+00  0.74505805969E-08  0.10566000000E+00  0.10566000000E+00 0. -1.
     999900   -1    0    0    0    0 -0.00000000000E+00 -0.00000000000E+00 -0.74505805969E-08  0.93827000000E+00  0.93827000000E+00 0.  1.
     999902    2    1    2    0    0  0.26421753434E-02 -0.23440990829E-01 -0.25068793271E-02  0.10202077407E+01  0.10199319039E+01 0.  0.
     999903    2    3    3    0    0  0.13706077473E-01 -0.83663764115E-01  0.99521380636E-01  0.13219931835E+00  0.19613071766E-01 0.  0.
         14    1    1    2    0    0 -0.26421753434E-02  0.23440990829E-01  0.25068793271E-02  0.23722259285E-01  0.00000000000E+00 0. -1.
     999901    1    3    3    0    0 -0.11063902129E-01  0.60222773286E-01 -0.10202825996E+00  0.88800842236E+00  0.88000000000E+00 0.  1.
        -11    1    4    4    0    0  0.68359498180E-02 -0.34145617204E-01  0.55836337879E-01  0.65807379015E-01  0.51100000000E-03 0. -1.
         11    1    4    4    0    0  0.68701276546E-02 -0.49518146911E-01  0.43685042757E-01  0.66391939339E-01  0.51100000000E-03 0.  1.
</event>
<event>
 8    1  0.1054086E+005  0.1043930E+01  0.7957747E-01            NaN
         13   -1    0    0    0    0  0.00000000000E+00  0.00000000000E+00  0.74505805969E-08  0.10566000000E+00  0.10566000000E+00 0.  1.
     999900   -1    0    0    0    0 -0.00000000000E+00 -0.00000000000E+00 -0.74505805969E-08  0.93827000000E+00  0.93827000000E+00 0.  1.
     999902    2    1    2    0    0  0.40049127330E-04  0.14854416105E-01 -0.17582533248E-01  0.10209125988E+01  0.10206530917E+01 0.  0.
     999903    2    3    3    0    0  0.73000254089E-01  0.19818771420E-01  0.10327517406E+00  0.12964696964E+00  0.20512297840E-01 0.  0.
         14    1    1    2    0    0 -0.40049127330E-04 -0.14854416105E-01  0.17582533248E-01  0.23017401182E-01  0.00000000000E+00 0.  1.
     999901    1    3    3    0    0 -0.72960204962E-01 -0.49643553147E-02 -0.12085770731E+00  0.89126562917E+00  0.88000000000E+00 0.  1.
        -11    1    4    4    0    0  0.10350062196E-01  0.10430598784E-01  0.15130121223E-01  0.21097461166E-01  0.51100000000E-03 0.  1.
         11    1    4    4    0    0  0.62650191893E-01  0.93881726358E-02  0.88145052839E-01  0.10854950848E+00  0.51100000000E-03 0. -1.
</event>
<event>
 8    1  0.1054086E+005  0.1043930E+01  0.7957747E-01            NaN
         13   -1    0    0    0    0  0.00000000000E+00  0.00000000000E+00  0.74505805969E-08  0.10566000000E+00  0.10566000000E+00 0. -1.
     999900   -1    0    0    0    0 -0.00000000000E+00 -0.00000000000E+00 -0.74505805969E-08  0.93827000000E+00  0.93827000000E+00 0.  1.
     999902    2    1    2    0    0 -0.19467363517E-01 -0.11599023403E-01  0.65493854061E-02  0.10203416547E+01  0.10200689595E+01 0.  0.
     999903    2    3    3    0    0  0.93096946976E-02  0.13968541832E-01  0.12842296050E+00  0.13110884613E+00  0.20378473295E-01 0.  0.
         14    1    1    2    0    0  0.19467363517E-01  0.11599023403E-01 -0.65493854061E-02  0.23588345330E-01  0.00000000000E+00 0.  1.
     999901    1    3    3    0    0 -0.28777058215E-01 -0.25567565235E-01 -0.12187357510E+00  0.88923280854E+00  0.88000000000E+00 0.  1.
        -11    1    4    4    0    0  0.11434619906E-01 -0.55497954767E-03  0.65469577589E-01  0.66464917403E-01  0.51100000000E-03 0.  1.
         11    1    4    4    0    0 -0.21249252085E-02  0.14523521379E-01  0.62953382913E-01  0.64643928730E-01  0.51100000000E-03 0. -1.
</event>
<event>
 8    1  0.1054086E+005  0.1043930E+01  0.7957747E-01            NaN
         13   -1    0    0    0    0  0.00000000000E+00  0.00000000000E+00  0.74505805969E-08  0.10566000000E+00  0.10566000000E+00 0.  1.
     999900   -1    0    0    0    0 -0.00000000000E+00 -0.00000000000E+00 -0.74505805969E-08  0.93827000000E+00  0.93827000000E+00 0.  1.
     999902    2    1    2    0    0  0.77260025347E-02  0.28036979008E-02 -0.22106056506E-01  0.10203454803E+01  0.10200728746E+01 0.  0.
     999903    2    3    3    0    0  0.12810559041E+00  0.22491676965E-01  0.41422331575E-03  0.13164641719E+00  0.20339364562E-01 0.  0.
         14    1    1    2    0    0 -0.77260025347E-02 -0.28036979008E-02  0.22106056506E-01  0.23584519739E-01  0.00000000000E+00 0.  1.
     999901    1    3    3    0    0 -0.12037958788E+00 -0.19687979064E-01 -0.22520279822E-01  0.88869906307E+00  0.88000000000E+00 0.  1.
        -11    1    4    4    0    0  0.29948351575E-01 -0.30844980328E-02 -0.20473758265E-02  0.30180635496E-01  0.51100000000E-03 0.  1.
         11    1    4    4    0    0  0.98157238838E-01  0.25576174998E-01  0.24615991423E-02  0.10146578170E+00  0.51100000000E-03 0. -1.
</event>
<event>
 8    1  0.1054086E+005  0.1043930E+01  0.7957747E-01            NaN
         13   -1    0    0    0    0  0.00000000000E+00  0.00000000000E+00  0.74505805969E-08  0.10566000000E+00  0.10566000000E+00 0.  1.
     999900   -1    0    0    0    0 -0.00000000000E+00 -0.00000000000E+00 -0.74505805969E-08  0.93827000000E+00  0.93827000000E+00 0. -1.
     999902    2    1    2    0    0  0.47799477188E-02  0.23282451327E-01 -0.43044797897E-02  0.10197753113E+01  0.10194892037E+01 0.  0.
     999903    2    3    3    0    0 -0.10547740370E+00 -0.43422899059E-01  0.55422737577E-01  0.12838671601E+00  0.20010950868E-01 0.  0.
         14    1    1    2    0    0 -0.47799477188E-02 -0.23282451327E-01  0.43044797897E-02  0.24154688701E-01  0.00000000000E+00 0. -1.
     999901    1    3    3    0    0  0.11025735142E+00  0.66705350386E-01 -0.59727217367E-01  0.89138859529E+00  0.88000000000E+00 0. -1.
        -11    1    4    4    0    0 -0.21462789079E-01 -0.76215531576E-02  0.20383967391E-01  0.30569701261E-01  0.51100000000E-03 0.  1.
         11    1    4    4    0    0 -0.84014614619E-01 -0.35801345902E-01  0.35038770186E-01  0.97817014752E-01  0.51100000000E-03 0. -1.
</event>
<event>
 8    1  0.1054086E+005  0.1043930E+01  0.7957747E-01            NaN
         13   -1    0    0    0    0  0.00000000000E+00  0.00000000000E+00  0.74505805969E-08  0.10566000000E+00  0.10566000000E+00 0. -1.
     999900   -1    0    0    0    0 -0.00000000000E+00 -0.00000000000E+00 -0.74505805969E-08  0.93827000000E+00  0.93827000000E+00 0. -1.
     999902    2    1    2    0    0 -0.10621146425E-01  0.13877038852E-01  0.15075171401E-01  0.10208509673E+01  0.10205900527E+01 0.  0.
     999903    2    3    3    0    0 -0.31209896111E-01 -0.11419026846E+00  0.51249633798E-01  0.13060733571E+00  0.20451800664E-01 0.  0.
         14    1    1    2    0    0  0.10621146425E-01 -0.13877038852E-01 -0.15075171401E-01  0.23079032723E-01  0.00000000000E+00 0.  1.
     999901    1    3    3    0    0  0.20588749686E-01  0.12806730731E+00 -0.36174462397E-01  0.89024363157E+00  0.88000000000E+00 0. -1.
        -11    1    4    4    0    0 -0.31880994883E-01 -0.88687657415E-01  0.36036726728E-01  0.10089997625E+00  0.51100000000E-03 0.  1.
         11    1    4    4    0    0  0.67109877203E-03 -0.25502611045E-01  0.15212907069E-01  0.29707359461E-01  0.51100000000E-03 0. -1.
</event>
<event>
 8    1  0.1054086E+005  0.1043930E+01  0.7957747E-01            NaN
         13   -1    0    0    0    0  0.00000000000E+00  0.00000000000E+00  0.74505805969E-08  0.10566000000E+00  0.10566000000E+00 0.  1.
     999900   -1    0    0    0    0 -0.00000000000E+00 -0.00000000000E+00 -0.74505805969E-08  0.93827000000E+00  0.93827000000E+00 0. -1.
     999902    2    1    2    0    0  0.12868548102E-01  0.18498561757E-01 -0.20642939488E-02  0.10213013097E+01  0.10210505901E+01 0.  0.
     999903    2    3    3    0    0 -0.31852886036E-01  0.33895308982E-01 -0.12190306134E+00  0.13192040325E+00  0.19471469160E-01 0.  0.
         14    1    1    2    0    0 -0.12868548102E-01 -0.18498561757E-01  0.20642939488E-02  0.22628690348E-01  0.00000000000E+00 0.  1.
     999901    1    3    3    0    0  0.44721434137E-01 -0.15396747225E-01  0.11983876739E+00  0.88938090640E+00  0.88000000000E+00 0.  1.
        -11    1    4    4    0    0 -0.13765147694E-01  0.28646920423E-02 -0.26982015897E-01  0.30429854657E-01  0.51100000000E-03 0.  1.
         11    1    4    4    0    0 -0.18087738342E-01  0.31030616940E-01 -0.94921045441E-01  0.10149054860E+00  0.51100000000E-03 0. -1.
</event>
<event>
 8    1  0.1054086E+005  0.1043930E+01  0.7957747E-01            NaN
         13   -1    0    0    0    0  0.00000000000E+00  0.00000000000E+00  0.74505805969E-08  0.10566000000E+00  0.10566000000E+00 0.  1.
     999900   -1    0    0    0    0 -0.00000000000E+00 -0.00000000000E+00 -0.74505805969E-08  0.93827000000E+00  0.93827000000E+00 0. -1.
     999902    2    1    2    0    0  0.22242260791E-01 -0.56060197948E-02 -0.49154294683E-02  0.10204713754E+01  0.10202017060E+01 0.  0.
     999903    2    3    3    0    0 -0.10920807352E+00 -0.58491827120E-01  0.28031435860E-01  0.12852877915E+00  0.19651679581E-01 0.  0.
         14    1    1    2    0    0 -0.22242260791E-01  0.56060197948E-02  0.49154294683E-02  0.23458624637E-01  0.00000000000E+00 0.  1.
     999901    1    3    3    0    0  0.13145033431E+00  0.52885807326E-01 -0.32946865328E-01  0.89194259621E+00  0.88000000000E+00 0. -1.
        -11    1    4    4    0    0 -0.54702564966E-01 -0.27239172684E-01  0.23705790315E-01  0.65548217046E-01  0.51100000000E-03 0.  1.
         11    1    4    4    0    0 -0.54505508557E-01 -0.31252654436E-01  0.43256455454E-02  0.62980562102E-01  0.51100000000E-03 0. -1.
</event>
<event>
 8    1  0.1054086E+005  0.1043930E+01  0.7957747E-01            NaN
         13   -1    0    0    0    0  0.00000000000E+00  0.00000000000E+00  0.74505805969E-08  0.10566000000E+00  0.10566000000E+00 0. -1.
     999900   -1    0    0    0    0 -0.00000000000E+00 -0.00000000000E+00 -0.74505805969E-08  0.93827000000E+00  0.93827000000E+00 0.  1.
     999902    2    1    2    0    0 -0.10768177211E-01 -0.22727191808E-02  0.22501456143E-01  0.10188813589E+01  0.10185734088E+01 0.  0.
     999903    2    3    3    0    0  0.72633926256E-01 -0.94937014761E-01  0.46304762651E-01  0.12977552720E+00  0.20219604385E-01 0.  0.
         14    1    1    2    0    0  0.10768177211E-01  0.22727191808E-02 -0.22501456143E-01  0.25048641111E-01  0.00000000000E+00 0.  1.
     999901    1    3    3    0    0 -0.83402103468E-01  0.92664295580E-01 -0.23803306507E-01  0.88910583169E+00  0.88000000000E+00 0. -1.
        -11    1    4    4    0    0  0.61600668020E-01 -0.66496253640E-01  0.32614591307E-01  0.96334660096E-01  0.51100000000E-03 0.  1.
         11    1    4    4    0    0  0.11033258236E-01 -0.28440761121E-01  0.13690171344E-01  0.33440867107E-01  0.51100000000E-03 0. -1.
</event>
<event>
 8    1  0.1054086E+005  0.1043930E+01  0.7957747E-01            NaN
         13   -1    0    0    0    0  0.00000000000E+00  0.00000000000E+00  0.74505805969E-08  0.10566000000E+00  0.10566000000E+00 0. -1.
     999900   -1    0    0    0    0 -0.00000000000E+00 -0.00000000000E+00 -0.74505805969E-08  0.93827000000E+00  0.93827000000E+00 0. -1.
     999902    2    1    2    0    0  0.22934079388E-03 -0.10439458350E-01  0.22797943732E-01  0.10188544915E+01  0.10185458722E+01 0.  0.
     999903    2    3    3    0    0 -0.55368222133E-01 -0.58143662775E-01 -0.97283211104E-01  0.12768320389E+00  0.19815444738E-01 0.  0.
         14    1    1    2    0    0 -0.22934079388E-03  0.10439458350E-01 -0.22797943732E-01  0.25075508494E-01  0.00000000000E+00 0.  1.
     999901    1    3    3    0    0  0.55597562927E-01  0.47704204425E-01  0.12008115484E+00  0.89117128762E+00  0.88000000000E+00 0. -1.
        -11    1    4    4    0    0 -0.28602341467E-02 -0.13363793465E-01 -0.16858409181E-01  0.21708039899E-01  0.51100000000E-03 0. -1.
         11    1    4    4    0    0 -0.52507987987E-01 -0.44779869310E-01 -0.80424801922E-01  0.10597516399E+00  0.51100000000E-03 0.  1.
</event>
<event>
 8    1  0.1054086E+005  0.1043930E+01  0.7957747E-01            NaN
         13   -1    0    0    0    0  0.00000000000E+00  0.00000000000E+00  0.74505805969E-08  0.10566000000E+00  0.10566000000E+00 0.  1.
     999900   -1    0    0    0    0 -0.00000000000E+00 -0.00000000000E+00 -0.74505805969E-08  0.93827000000E+00  0.93827000000E+00 0. -1.
     999902    2    1    2    0    0 -0.29989305201E-02 -0.93351484077E-02  0.21512147548E-01  0.10202886999E+01  0.10200147646E+01 0.  0.
     999903    2    3    3    0    0  0.10104635565E+00  0.11733024075E-01 -0.75980320317E-01  0.12856336617E+00  0.20186634220E-01 0.  0.
         14    1    1    2    0    0  0.29989305201E-02  0.93351484077E-02 -0.21512147548E-01  0.23641300137E-01  0.00000000000E+00 0. -1.
     999901    1    3    3    0    0 -0.10404528617E+00 -0.21068172483E-01  0.97492467865E-01  0.89172533370E+00  0.88000000000E+00 0.  1.
        -11    1    4    4    0    0  0.21542728392E-01  0.72229985533E-03 -0.26931568815E-01  0.34499005544E-01  0.51100000000E-03 0.  1.
         11    1    4    4    0    0  0.79503627254E-01  0.11010724220E-01 -0.49048751502E-01  0.94064360623E-01  0.51100000000E-03 0. -1.
</event>
<event>
 8    1  0.1054086E+005  0.1043930E+01  0.7957747E-01            NaN
         13   -1    0    0    0    0  0.00000000000E+00  0.00000000000E+00  0.74505805969E-08  0.10566000000E+00  0.10566000000E+00 0. -1.
     999900   -1    0    0    0    0 -0.00000000000E+00 -0.00000000000E+00 -0.74505805969E-08  0.93827000000E+00  0.93827000000E+00 0.  1.
     999902    2    1    2    0    0 -0.36838338677E-02  0.44236454792E-02 -0.23213773838E-01  0.10200130904E+01  0.10197326541E+01 0.  0.
     999903    2    3    3    0    0 -0.44065766180E-02  0.91092916785E-01 -0.94513015537E-01  0.13288532796E+00  0.20210464481E-01 0.  0.
         14    1    1    2    0    0  0.36838338677E-02 -0.44236454792E-02  0.23213773838E-01  0.23916909648E-01  0.00000000000E+00 0. -1.
     999901    1    3    3    0    0  0.72274275028E-03 -0.86669271305E-01  0.71299241699E-01  0.88712776240E+00  0.88000000000E+00 0. -1.
        -11    1    4    4    0    0 -0.76267676748E-02  0.15394890552E-01 -0.22871412404E-01  0.28610013398E-01  0.51100000000E-03 0.  1.
         11    1    4    4    0    0  0.32201910568E-02  0.75698026232E-01 -0.71641603133E-01  0.10427531456E+00  0.51100000000E-03 0. -1.
</event>
<event>
 8    1  0.1179313E+005  0.1043930E+01  0.7957747E-01            NaN
         13   -1    0    0    0    0  0.00000000000E+00  0.00000000000E+00  0.74505805969E-08  0.10566000000E+00  0.10566000000E+00 0. -1.
     999900   -1    0    0    0    0 -0.00000000000E+00 -0.00000000000E+00 -0.74505805969E-08  0.93827000000E+00  0.93827000000E+00 0.  1.
     999902    2    1    2    0    0 -0.64898320337E-02 -0.11794960611E-01  0.19374784944E-01  0.10203371768E+01  0.10200643769E+01 0.  0.
     999903    2    3    3    0    0  0.37569508784E-01 -0.65573676112E-01  0.10758552537E+00  0.13319879385E+00  0.21351778006E-01 0.  0.
         14    1    1    2    0    0  0.64898320337E-02  0.11794960611E-01 -0.19374784944E-01  0.23592823215E-01  0.00000000000E+00 0.  1.
     999901    1    3    3    0    0 -0.44059340818E-01  0.53778715501E-01 -0.88210740427E-01  0.88713838294E+00  0.88000000000E+00 0. -1.
        -11    1    4    4    0    0  0.27162437788E-01 -0.26956084188E-01  0.47177737143E-01  0.60748897145E-01  0.51100000000E-03 0. -1.
         11    1    4    4    0    0  0.10407070996E-01 -0.38617591923E-01  0.60407788227E-01  0.72449896703E-01  0.51100000000E-03 0.  1.
</event>
<event>
 8    1  0.1054086E+005  0.1043930E+01  0.7957747E-01            NaN
         13   -1    0    0    0    0  0.00000000000E+00  0.00000000000E+00  0.74505805969E-08  0.10566000000E+00  0.10566000000E+00 0.  1.
     999900   -1    0    0    0    0 -0.00000000000E+00 -0.00000000000E+00 -0.74505805969E-08  0.93827000000E+00  0.93827000000E+00 0. -1.
     999902    2    1    2    0    0 -0.13588220010E-01 -0.11910345203E-01  0.11294146696E-01  0.10226214619E+01  0.10223994330E+01 0.  0.
     999903    2    3    3    0    0  0.78770720407E-01 -0.61780848816E-01  0.85762153496E-01  0.13326060993E+00  0.19533138817E-01 0.  0.
         14    1    1    2    0    0  0.13588220010E-01  0.11910345203E-01 -0.11294146696E-01  0.21308538089E-01  0.00000000000E+00 0. -1.
     999901    1    3    3    0    0 -0.92358940417E-01  0.49870503613E-01 -0.74468006800E-01  0.88936085198E+00  0.88000000000E+00 0. -1.
        -11    1    4    4    0    0  0.35490465560E-01 -0.15814669416E-01  0.32955779655E-01  0.50951167288E-01  0.51100000000E-03 0. -1.
         11    1    4    4    0    0  0.43280254848E-01 -0.45966179400E-01  0.52806373840E-01  0.82309442639E-01  0.51100000000E-03 0.  1.
</event>
<event>
 8    1  0.1054086E+005  0.1043930E+01  0.7957747E-01            NaN
         13   -1    0    0    0    0  0.00000000000E+00  0.00000000000E+00  0.74505805969E-08  0.10566000000E+00  0.10566000000E+00 0.  1.
     999900   -1    0    0    0    0 -0.00000000000E+00 -0.00000000000E+00 -0.74505805969E-08  0.93827000000E+00  0.93827000000E+00 0.  1.
     999902    2    1    2    0    0 -0.24714894224E-01 -0.49453168719E-02  0.75662878984E-03  0.10187138416E+01  0.10184017068E+01 0.  0.
     999903    2    3    3    0    0  0.10821472207E+00  0.61097074763E-01 -0.73595632708E-02  0.12624661369E+00  0.20994420231E-01 0.  0.
         14    1    1    2    0    0  0.24714894224E-01  0.49453168719E-02 -0.75662878984E-03  0.25216158364E-01  0.00000000000E+00 0. -1.
     999901    1    3    3    0    0 -0.13292961629E+00 -0.66042391635E-01  0.81161920607E-02  0.89246722794E+00  0.88000000000E+00 0. -1.
        -11    1    4    4    0    0  0.85246675996E-01  0.45159823403E-01 -0.14071238197E-01  0.97491878039E-01  0.51100000000E-03 0.  1.
         11    1    4    4    0    0  0.22968046070E-01  0.15937251360E-01  0.67116749262E-02  0.28754735653E-01  0.51100000000E-03 0. -1.
</event>
<event>
 8    1  0.1054086E+005  0.1043930E+01  0.7957747E-01            NaN
         13   -1    0    0    0    0  0.00000000000E+00  0.00000000000E+00  0.74505805969E-08  0.10566000000E+00  0.10566000000E+00 0. -1.
     999900   -1    0    0    0    0 -0.00000000000E+00 -0.00000000000E+00 -0.74505805969E-08  0.93827000000E+00  0.93827000000E+00 0. -1.
     999902    2    1    2    0    0  0.25640557330E-02 -0.20037140599E-01  0.12493385486E-01  0.10201782408E+01  0.10199017094E+01 0.  0.
     999903    2    3    3    0    0  0.35087253467E-01  0.31887330615E-01 -0.11781637193E+00  0.12847507157E+00  0.19422391960E-01 0.  0.
         14    1    1    2    0    0 -0.25640557330E-02  0.20037140599E-01 -0.12493385486E-01  0.23751759221E-01  0.00000000000E+00 0.  1.
     999901    1    3    3    0    0 -0.32523197733E-01 -0.51924471214E-01  0.13030975742E+00  0.89170316921E+00  0.88000000000E+00 0.  1.
        -11    1    4    4    0    0  0.32891083849E-01  0.25878012144E-01 -0.81741879081E-01  0.91834039583E-01  0.51100000000E-03 0.  1.
         11    1    4    4    0    0  0.21961696173E-02  0.60093184703E-02 -0.36074492852E-01  0.36641031986E-01  0.51100000000E-03 0. -1.
</event>
<event>
 8    1  0.1054086E+005  0.1043930E+01  0.7957747E-01            NaN
         13   -1    0    0    0    0  0.00000000000E+00  0.00000000000E+00  0.74505805969E-08  0.10566000000E+00  0.10566000000E+00 0.  1.
     999900   -1    0    0    0    0 -0.00000000000E+00 -0.00000000000E+00 -0.74505805969E-08  0.93827000000E+00  0.93827000000E+00 0.  1.
     999902    2    1    2    0    0 -0.18565968795E-01 -0.11883306582E-01  0.46752123837E-02  0.10213963411E+01  0.10211477463E+01 0.  0.
     999903    2    3    3    0    0 -0.17440634631E-01 -0.63612631680E-01  0.11398960479E+00  0.13312452131E+00  0.19436191186E-01 0.  0.
         14    1    1    2    0    0  0.18565968795E-01  0.11883306582E-01 -0.46752123837E-02  0.22533658900E-01  0.00000000000E+00 0.  1.
     999901    1    3    3    0    0 -0.11253341640E-02  0.51729325098E-01 -0.10931439240E+00  0.88827181979E+00  0.88000000000E+00 0.  1.
        -11    1    4    4    0    0 -0.73027894596E-02 -0.13754977740E-01  0.14060715676E-01  0.20987972575E-01  0.51100000000E-03 0. -1.
         11    1    4    4    0    0 -0.10137845171E-01 -0.49857653940E-01  0.99928889113E-01  0.11213654873E+00  0.51100000000E-03 0.  1.
</event>
<event>
 8    1  0.1054086E+005  0.1043930E+01  0.7957747E-01            NaN
         13   -1    0    0    0    0  0.00000000000E+00  0.00000000000E+00  0.74505805969E-08  0.10566000000E+00  0.10566000000E+00 0.  1.
     999900   -1    0    0    0    0 -0.00000000000E+00 -0.00000000000E+00 -0.74505805969E-08  0.93827000000E+00  0.93827000000E+00 0.  1.
     999902    2    1    2    0    0  0.23010848898E-01  0.31429943486E-02  0.36270169566E-02  0.10204239831E+01  0.10201532102E+01 0.  0.
     999903    2    3    3    0    0  0.48113952467E-01  0.97154303508E-01  0.73284623955E-01  0.13232462247E+00  0.19628002761E-01 0.  0.
         14    1    1    2    0    0 -0.23010848898E-01 -0.31429943486E-02 -0.36270169566E-02  0.23506016942E-01  0.00000000000E+00 0.  1.
     999901    1    3    3    0    0 -0.25103103569E-01 -0.94011309159E-01 -0.69657606999E-01  0.88809936058E+00  0.88000000000E+00 0.  1.
        -11    1    4    4    0    0  0.25570255158E-01  0.63142772800E-01  0.36018098400E-01  0.77061094199E-01  0.51100000000E-03 0. -1.
         11    1    4    4    0    0  0.22543697308E-01  0.34011530708E-01  0.37266525555E-01  0.55263528275E-01  0.51100000000E-03 0.  1.
</event>
<event>
 8    1  0.1054086E+005  0.1043930E+01  0.7957747E-01            NaN
         13   -1    0    0    0    0  0.00000000000E+00  0.00000000000E+00  0.74505805969E-08  0.10566000000E+00  0.10566000000E+00 0.  1.
     999900   -1    0    0    0    0 -0.00000000000E+00 -0.00000000000E+00 -0.74505805969E-08  0.93827000000E+00  0.93827000000E+00 0. -1.
     999902    2    1    2    0    0  0.21925013696E-01 -0.34934488262E-02  0.81648853867E-02  0.10202746462E+01  0.10200003813E+01 0.  0.
     999903    2    3    3    0    0 -0.67680699050E-01  0.35373328795E-01 -0.10086785615E+00  0.12818275133E+00  0.20604463607E-01 0.  0.
         14    1    1    2    0    0 -0.21925013696E-01  0.34934488262E-02 -0.81648853867E-02  0.23655353805E-01  0.00000000000E+00 0. -1.
     999901    1    3    3    0    0  0.89605712745E-01 -0.38866777621E-01  0.10903274153E+00  0.89209189487E+00  0.88000000000E+00 0.  1.
        -11    1    4    4    0    0 -0.40333266398E-01  0.29994713700E-01 -0.55012137783E-01  0.74518800666E-01  0.51100000000E-03 0. -1.
         11    1    4    4    0    0 -0.27347432651E-01  0.53786150944E-02 -0.45855718365E-01  0.53663950663E-01  0.51100000000E-03 0.  1.
</event>
<event>
 8    1  0.1054086E+005  0.1043930E+01  0.7957747E-01            NaN
         13   -1    0    0    0    0  0.00000000000E+00  0.00000000000E+00  0.74505805969E-08  0.10566000000E+00  0.10566000000E+00 0.  1.
     999900   -1    0    0    0    0 -0.00000000000E+00 -0.00000000000E+00 -0.74505805969E-08  0.93827000000E+00  0.93827000000E+00 0.  1.
     999902    2    1    2    0    0  0.10666110830E-01  0.10234532608E-02 -0.19946731679E-01  0.10212874409E+01  0.10210364105E+01 0.  0.
     999903    2    3    3    0    0 -0.36164942978E-01 -0.29803994915E-01 -0.12334865880E+00  0.13346119796E+00  0.20020452575E-01 0.  0.
         14    1    1    2    0    0 -0.10666110830E-01 -0.10234532608E-02  0.19946731679E-01  0.22642559075E-01  0.00000000000E+00 0.  1.
     999901    1    3    3    0    0  0.46831053808E-01  0.30827448176E-01  0.10340192712E+00  0.88782624296E+00  0.88000000000E+00 0. -1.
        -11    1    4    4    0    0 -0.13606259803E-01 -0.18618682510E-01 -0.37794300330E-01  0.44277035839E-01  0.51100000000E-03 0.  1.
         11    1    4    4    0    0 -0.22558683175E-01 -0.11185312405E-01 -0.85554358465E-01  0.89184162123E-01  0.51100000000E-03 0. -1.
</event>
<event>
 8    1  0.1054086E+005  0.1043930E+01  0.7957747E-01            NaN
         13   -1    0    0    0    0  0.00000000000E+00  0.00000000000E+00  0.74505805969E-08  0.10566000000E+00  0.10566000000E+00 0.  1.
     999900   -1    0    0    0    0 -0.00000000000E+00 -0.00000000000E+00 -0.74505805969E-08  0.93827000000E+00  0.93827000000E+00 0. -1.
     999902    2    1    2    0    0 -0.18969788215E-01 -0.13972128764E-01  0.30237252700E-02  0.10201767652E+01  0.10199001991E+01 0.  0.
     999903    2    3    3    0    0  0.14114670759E-01 -0.12388424589E+00  0.38583043980E-01  0.13201027180E+00  0.19787123807E-01 0.  0.
         14    1    1    2    0    0  0.18969788215E-01  0.13972128764E-01 -0.30237252700E-02  0.23753234761E-01  0.00000000000E+00 0. -1.
     999901    1    3    3    0    0 -0.33084458974E-01  0.10991211712E+00 -0.35559318710E-01  0.88816649344E+00  0.88000000000E+00 0. -1.
        -11    1    4    4    0    0  0.34078747499E-02 -0.98922569400E-01  0.32391842686E-01  0.10414788015E+00  0.51100000000E-03 0. -1.
         11    1    4    4    0    0  0.10706796009E-01 -0.24961676488E-01  0.61912012937E-02  0.27862391648E-01  0.51100000000E-03 0.  1.
</event>
<event>
 8    1  0.1054086E+005  0.1043930E+01  0.7957747E-01            NaN
         13   -1    0    0    0    0  0.00000000000E+00  0.00000000000E+00  0.74505805969E-08  0.10566000000E+00  0.10566000000E+00 0.  1.
     999900   -1    0    0    0    0 -0.00000000000E+00 -0.00000000000E+00 -0.74505805969E-08  0.93827000000E+00  0.93827000000E+00 0.  1.
     999902    2    1    2    0    0  0.13692456733E-01 -0.13831551367E-01  0.13259557387E-01  0.10203798185E+01  0.10201080154E+01 0.  0.
     999903    2    3    3    0    0 -0.42623513596E-02 -0.12364440998E+00 -0.41643321746E-01  0.13167538782E+00  0.17266550136E-01 0.  0.
         14    1    1    2    0    0 -0.13692456733E-01  0.13831551367E-01 -0.13259557387E-01  0.23550181458E-01  0.00000000000E+00 0.  1.
     999901    1    3    3    0    0  0.17954808092E-01  0.10981285861E+00  0.54902879133E-01  0.88870443072E+00  0.88000000000E+00 0. -1.
        -11    1    4    4    0    0 -0.12375697674E-02 -0.93236247786E-01 -0.38747377011E-01  0.10097598638E+00  0.51100000000E-03 0. -1.
         11    1    4    4    0    0 -0.30247815922E-02 -0.30408162191E-01 -0.28959447350E-02  0.30699401434E-01  0.51100000000E-03 0.  1.
</event>
<event>
 8    1  0.1054086E+005  0.1043930E+01  0.7957747E-01            NaN
         13   -1    0    0    0    0  0.00000000000E+00  0.00000000000E+00  0.74505805969E-08  0.10566000000E+00  0.10566000000E+00 0.  1.
     999900   -1    0    0    0    0 -0.00000000000E+00 -0.00000000000E+00 -0.74505805969E-08  0.93827000000E+00  0.93827000000E+00 0. -1.
     999902    2    1    2    0    0 -0.23368598450E-01 -0.84623860521E-03 -0.95884726090E-03  0.10205264340E+01  0.10202580436E+01 0.  0.
     999903    2    3    3    0    0 -0.23005356165E-01  0.10552016523E+00  0.71363927504E-01  0.13117581273E+00  0.21225739437E-01 0.  0.
         14    1    1    2    0    0  0.23368598450E-01  0.84623860521E-03  0.95884726090E-03  0.23403565996E-01  0.00000000000E+00 0.  1.
     999901    1    3    3    0    0 -0.36324228505E-03 -0.10636640383E+00 -0.72322774765E-01  0.88935062127E+00  0.88000000000E+00 0. -1.
        -11    1    4    4    0    0 -0.11905890562E-02  0.55224247253E-01  0.35886225611E-01  0.65872735609E-01  0.51100000000E-03 0.  1.
         11    1    4    4    0    0 -0.21814767108E-01  0.50295917974E-01  0.35477701893E-01  0.65303077121E-01  0.51100000000E-03 0. -1.
</event>
<event>
 8    1  0.1054086E+005  0.1043930E+01  0.7957747E-01            NaN
         13   -1    0    0    0    0  0.00000000000E+00  0.00000000000E+00  0.74505805969E-08  0.10566000000E+00  0.10566000000E+00 0.  1.
     999900   -1    0    0    0    0 -0.00000000000E+00 -0.00000000000E+00 -0.74505805969E-08  0.93827000000E+00  0.93827000000E+00 0. -1.
     999902    2    1    2    0    0  0.11960637194E-01 -0.57295632666E-02 -0.20314375236E-01  0.10196697737E+01  0.10193811303E+01 0.  0.
     999903    2    3    3    0    0  0.82537780750E-02 -0.74630515475E-01  0.10231920856E+00  0.12849073566E+00  0.20070127529E-01 0.  0.
         14    1    1    2    0    0 -0.11960637194E-01  0.57295632666E-02  0.20314375236E-01  0.24260226267E-01  0.00000000000E+00 0.  1.
     999901    1    3    3    0    0  0.37068591190E-02  0.68900952209E-01 -0.12263358379E+00  0.89117903807E+00  0.88000000000E+00 0. -1.
        -11    1    4    4    0    0  0.26697551358E-02 -0.49510251524E-01  0.51299124585E-01  0.71346015324E-01  0.51100000000E-03 0. -1.
         11    1    4    4    0    0  0.55840229392E-02 -0.25120263951E-01  0.51020083973E-01  0.57144720340E-01  0.51100000000E-03 0.  1.
</event>
<event>
 8    1  0.1054086E+005  0.1043930E+01  0.7957747E-01            NaN
         13   -1    0    0    0    0  0.00000000000E+00  0.00000000000E+00  0.74505805969E-08  0.10566000000E+00  0.10566000000E+00 0.  1.
     999900   -1    0    0    0    0 -0.00000000000E+00 -0.00000000000E+00 -0.74505805969E-08  0.93827000000E+00  0.93827000000E+00 0.  1.
     999902    2    1    2    0    0 -0.21156788035E-01  0.28688043679E-02  0.91605176088E-02  0.10206973764E+01  0.10204329372E+01 0.  0.
     999903    2    3    3    0    0  0.76939413175E-01 -0.27603794635E-02 -0.10044773182E+00  0.12847065587E+00  0.22083242480E-01 0.  0.
         14    1    1    2    0    0  0.21156788035E-01 -0.28688043679E-02 -0.91605176088E-02  0.23232623643E-01  0.00000000000E+00 0. -1.
     999901    1    3    3    0    0 -0.98096201210E-01  0.56291838314E-02  0.10960824943E+00  0.89222672048E+00  0.88000000000E+00 0. -1.
        -11    1    4    4    0    0  0.29110294068E-01 -0.53408442675E-02 -0.54898297139E-01  0.62370008722E-01  0.51100000000E-03 0.  1.
         11    1    4    4    0    0  0.47829119107E-01  0.25804648040E-02 -0.45549434680E-01  0.66100647151E-01  0.51100000000E-03 0. -1.
</event>
<event>
 8    1  0.1054086E+005  0.1043930E+01  0.7957747E-01            NaN
         13   -1    0    0    0    0  0.00000000000E+00  0.00000000000E+00  0.74505805969E-08  0.10566000000E+00  0.10566000000E+00 0.  1.
     999900   -1    0    0    0    0 -0.00000000000E+00 -0.00000000000E+00 -0.74505805969E-08  0.93827000000E+00  0.93827000000E+00 0.  1.
     999902    2    1    2    0    0  0.97610117105E-02 -0.22243784260E-01 -0.31772592805E-02  0.10194318722E+01  0.10191374705E+01 0.  0.
     999903    2    3    3    0    0  0.51211183374E-01 -0.11529711651E+00  0.35967462710E-01  0.13269101457E+00  0.19930795180E-01 0.  0.
         14    1    1    2    0    0 -0.97610117105E-02  0.22243784260E-01  0.31772592805E-02  0.24498127772E-01  0.00000000000E+00 0. -1.
     999901    1    3    3    0    0 -0.41450171663E-01  0.93053332251E-01 -0.39144721991E-01  0.88674085765E+00  0.88000000000E+00 0. -1.
        -11    1    4    4    0    0  0.43361611023E-01 -0.80531068939E-01  0.31649884474E-01  0.96785632628E-01  0.51100000000E-03 0. -1.
         11    1    4    4    0    0  0.78495723514E-02 -0.34766047572E-01  0.43175782365E-02  0.35905381946E-01  0.51100000000E-03 0.  1.
</event>
<event>
 8    1  0.1054086E+005  0.1043930E+01  0.7957747E-01            NaN
         13   -1    0    0    0    0  0.00000000000E+00  0.00000000000E+00  0.74505805969E-08  0.10566000000E+00  0.10566000000E+00 0.  1.
     999900   -1    0    0    0    0 -0.00000000000E+00 -0.00000000000E+00 -0.74505805969E-08  0.93827000000E+00  0.93827000000E+00 0. -1.
     999902    2    1    2    0    0 -0.39479445118E-02  0.23348297361E-01 -0.53185356629E-02  0.10196603466E+01  0.10193714761E+01 0.  0.
     999903    2    3    3    0    0 -0.85845423100E-01  0.96833446325E-01 -0.21768695249E-01  0.13265534554E+00  0.19427084528E-01 0.  0.
         14    1    1    2    0    0  0.39479445118E-02 -0.23348297361E-01  0.53185356629E-02  0.24269653420E-01  0.00000000000E+00 0. -1.
     999901    1    3    3    0    0  0.81897478588E-01 -0.73485148964E-01  0.16450159586E-01  0.88700500104E+00  0.88000000000E+00 0. -1.
        -11    1    4    4    0    0 -0.51645874701E-01  0.68266182697E-01 -0.78196666214E-02  0.85959155305E-01  0.51100000000E-03 0.  1.
         11    1    4    4    0    0 -0.34199548399E-01  0.28567263629E-01 -0.13949028628E-01  0.46696190236E-01  0.51100000000E-03 0. -1.
</event>
<event>
 8    1  0.1054086E+005  0.1043930E+01  0.7957747E-01            NaN
         13   -1    0    0    0    0  0.00000000000E+00  0.00000000000E+00  0.74505805969E-08  0.10566000000E+00  0.10566000000E+00 0.  1.
     999900   -1    0    0    0    0 -0.00000000000E+00 -0.00000000000E+00 -0.74505805969E-08  0.93827000000E+00  0.93827000000E+00 0.  1.
     999902    2    1    2    0    0  0.73426283947E-02 -0.15144375460E-01 -0.16855697667E-01  0.10201102426E+01  0.10198321069E+01 0.  0.
     999903    2    3    3    0    0 -0.38711735540E-02  0.48227969563E-01 -0.12081990443E+00  0.13165632720E+00  0.19875013226E-01 0.  0.
         14    1    1    2    0    0 -0.73426283947E-02  0.15144375460E-01  0.16855697667E-01  0.23819757423E-01  0.00000000000E+00 0.  1.
     999901    1    3    3    0    0  0.11213801949E-01 -0.63372345023E-01  0.10396420677E+00  0.88845391538E+00  0.88000000000E+00 0. -1.
        -11    1    4    4    0    0 -0.50515436763E-02  0.16079244102E-01 -0.21924331763E-01  0.27658590504E-01  0.51100000000E-03 0. -1.
         11    1    4    4    0    0  0.11803701223E-02  0.32148725461E-01 -0.98895572670E-01  0.10399773669E+00  0.51100000000E-03 0.  1.
</event>
<event>
 8    1  0.1054086E+005  0.1043930E+01  0.7957747E-01            NaN
         13   -1    0    0    0    0  0.00000000000E+00  0.00000000000E+00  0.74505805969E-08  0.10566000000E+00  0.10566000000E+00 0.  1.
     999900   -1    0    0    0    0 -0.00000000000E+00 -0.00000000000E+00 -0.74505805969E-08  0.93827000000E+00  0.93827000000E+00 0. -1.
     999902    2    1    2    0    0  0.20829322638E-01  0.11987185109E-01 -0.19998196728E-03  0.10198968296E+01  0.10196136276E+01 0.  0.
     999903    2    3    3    0    0  0.63661467040E-01  0.11594821622E-01 -0.11284892759E+00  0.13168259218E+00  0.20449996336E-01 0.  0.
         14    1    1    2    0    0 -0.20829322638E-01 -0.11987185109E-01  0.19998196728E-03  0.24033170436E-01  0.00000000000E+00 0.  1.
     999901    1    3    3    0    0 -0.42832144402E-01  0.39236348668E-03  0.11264894562E+00  0.88821423739E+00  0.88000000000E+00 0.  1.
        -11    1    4    4    0    0  0.33348063459E-01  0.45754516952E-02 -0.38849985494E-01  0.51406328293E-01  0.51100000000E-03 0. -1.
         11    1    4    4    0    0  0.30313403581E-01  0.70193699270E-02 -0.73998942098E-01  0.80276263886E-01  0.51100000000E-03 0.  1.
</event>
<event>
 8    1  0.1054086E+005  0.1043930E+01  0.7957747E-01            NaN
         13   -1    0    0    0    0  0.00000000000E+00  0.00000000000E+00  0.74505805969E-08  0.10566000000E+00  0.10566000000E+00 0. -1.
     999900   -1    0    0    0    0 -0.00000000000E+00 -0.00000000000E+00 -0.74505805969E-08  0.93827000000E+00  0.93827000000E+00 0.  1.
     999902    2    1    2    0    0  0.14474638875E-01  0.17784178500E-01 -0.85748722298E-02  0.10194489745E+01  0.10191549887E+01 0.  0.
     999903    2    3    3    0    0 -0.81837004678E-01 -0.76400609434E-01 -0.58318628513E-01  0.12780939023E+00  0.19995733103E-01 0.  0.
         14    1    1    2    0    0 -0.14474638875E-01 -0.17784178500E-01  0.85748722298E-02  0.24481025494E-01  0.00000000000E+00 0. -1.
     999901    1    3    3    0    0  0.96311643553E-01  0.94184787934E-01  0.49743756283E-01  0.89163958428E+00  0.88000000000E+00 0.  1.
        -11    1    4    4    0    0 -0.29684509722E-01 -0.37287209498E-01 -0.16889154546E-01  0.50566894030E-01  0.51100000000E-03 0.  1.
         11    1    4    4    0    0 -0.52152494956E-01 -0.39113399935E-01 -0.41429473967E-01  0.77242496198E-01  0.51100000000E-03 0. -1.
</event>
<event>
 8    1  0.1054086E+005  0.1043930E+01  0.7957747E-01            NaN
         13   -1    0    0    0    0  0.00000000000E+00  0.00000000000E+00  0.74505805969E-08  0.10566000000E+00  0.10566000000E+00 0.  1.
     999900   -1    0    0    0    0 -0.00000000000E+00 -0.00000000000E+00 -0.74505805969E-08  0.93827000000E+00  0.93827000000E+00 0.  1.
     999902    2    1    2    0    0  0.10865780692E-01 -0.30372176795E-02 -0.21264466924E-01  0.10198578702E+01  0.10195737383E+01 0.  0.
     999903    2    3    3    0    0  0.10449879854E+00  0.73587653031E-01 -0.23058827386E-01  0.13157765955E+00  0.21114672535E-01 0.  0.
         14    1    1    2    0    0 -0.10865780692E-01  0.30372176795E-02  0.21264466924E-01  0.24072129837E-01  0.00000000000E+00 0.  1.
     999901    1    3    3    0    0 -0.93633017849E-01 -0.76624870710E-01  0.17943604612E-02  0.88828021062E+00  0.88000000000E+00 0. -1.
        -11    1    4    4    0    0  0.45972488279E-01  0.27364297187E-01 -0.19388296461E-01  0.56907307086E-01  0.51100000000E-03 0. -1.
         11    1    4    4    0    0  0.58526310263E-01  0.46223355844E-01 -0.36705309247E-02  0.74670352461E-01  0.51100000000E-03 0.  1.
</event>
<event>
 8    1  0.1054086E+005  0.1043930E+01  0.7957747E-01            NaN
         13   -1    0    0    0    0  0.00000000000E+00  0.00000000000E+00  0.74505805969E-08  0.10566000000E+00  0.10566000000E+00 0. -1.
     999900   -1    0    0    0    0 -0.00000000000E+00 -0.00000000000E+00 -0.74505805969E-08  0.93827000000E+00  0.93827000000E+00 0.  1.
     999902    2    1    2    0    0  0.15732390985E-02  0.23600969023E-01  0.39221219594E-02  0.10199536813E+01  0.10196718335E+01 0.  0.
     999903    2    3    3    0    0 -0.52616811930E-01 -0.65446473495E-01 -0.94919967910E-01  0.12830589912E+00  0.20020830410E-01 0.  0.
         14    1    1    2    0    0 -0.15732390985E-02 -0.23600969023E-01 -0.39221219594E-02  0.23976318749E-01  0.00000000000E+00 0.  1.
     999901    1    3    3    0    0  0.54190051029E-01  0.89047442518E-01  0.98842089870E-01  0.89164778213E+00  0.88000000000E+00 0. -1.
        -11    1    4    4    0    0 -0.29372998076E-01 -0.49253352360E-01 -0.55912507756E-01  0.80094540258E-01  0.51100000000E-03 0.  1.
         11    1    4    4    0    0 -0.23243813855E-01 -0.16193121135E-01 -0.39007460154E-01  0.48211358862E-01  0.51100000000E-03 0. -1.
</event>
<event>
 8    1  0.1054086E+005  0.1043930E+01  0.7957747E-01            NaN
         13   -1    0    0    0    0  0.00000000000E+00  0.00000000000E+00  0.74505805969E-08  0.10566000000E+00  0.10566000000E+00 0.  1.
     999900   -1    0    0    0    0 -0.00000000000E+00 -0.00000000000E+00 -0.74505805969E-08  0.93827000000E+00  0.93827000000E+00 0.  1.
     999902    2    1    2    0    0 -0.94620838886E-02  0.19407400019E-01  0.17163863456E-02  0.10222707251E+01  0.10220412473E+01 0.  0.
     999903    2    3    3    0    0  0.94193818407E-01 -0.84929640402E-01 -0.18879845616E-01  0.12982746704E+00  0.20327404738E-01 0.  0.
         14    1    1    2    0    0  0.94620838886E-02 -0.19407400019E-01 -0.17163863456E-02  0.21659274898E-01  0.00000000000E+00 0. -1.
     999901    1    3    3    0    0 -0.10365590230E+00  0.10433704042E+00  0.20596231962E-01  0.89244325806E+00  0.88000000000E+00 0. -1.
        -11    1    4    4    0    0  0.31350582759E-01 -0.16370919679E-01 -0.32698473310E-02  0.35522092746E-01  0.51100000000E-03 0. -1.
         11    1    4    4    0    0  0.62843235647E-01 -0.68558720723E-01 -0.15609998285E-01  0.94305374297E-01  0.51100000000E-03 0.  1.
</event>
<event>
 8    1  0.1054086E+005  0.1043930E+01  0.7957747E-01            NaN
         13   -1    0    0    0    0  0.00000000000E+00  0.00000000000E+00  0.74505805969E-08  0.10566000000E+00  0.10566000000E+00 0.  1.
     999900   -1    0    0    0    0 -0.00000000000E+00 -0.00000000000E+00 -0.74505805969E-08  0.93827000000E+00  0.93827000000E+00 0.  1.
     999902    2    1    2    0    0 -0.15129532144E-01  0.38393978555E-02 -0.17390258573E-01  0.10205619703E+01  0.10202944038E+01 0.  0.
     999903    2    3    3    0    0 -0.59695793621E-01 -0.99253685278E-01 -0.61358942479E-01  0.13233475803E+00  0.18239696916E-01 0.  0.
         14    1    1    2    0    0  0.15129532144E-01 -0.38393978555E-02  0.17390258573E-01  0.23368029699E-01  0.00000000000E+00 0.  1.
     999901    1    3    3    0    0  0.44566261477E-01  0.10309308313E+00  0.43968683906E-01  0.88822721227E+00  0.88000000000E+00 0. -1.
        -11    1    4    4    0    0 -0.50179177874E-01 -0.69442077117E-01 -0.48893707302E-01  0.98645870168E-01  0.51100000000E-03 0.  1.
         11    1    4    4    0    0 -0.95166157471E-02 -0.29811608161E-01 -0.12465235176E-01  0.33688887863E-01  0.51100000000E-03 0. -1.
</event>
<event>
 8    1  0.1054086E+005  0.1043930E+01  0.7957747E-01            NaN
         13   -1    0    0    0    0  0.00000000000E+00  0.00000000000E+00  0.74505805969E-08  0.10566000000E+00  0.10566000000E+00 0. -1.
     999900   -1    0    0    0    0 -0.00000000000E+00 -0.00000000000E+00 -0.74505805969E-08  0.93827000000E+00  0.93827000000E+00 0. -1.
     999902    2    1    2    0    0 -0.75467090788E-02 -0.60037615501E-02 -0.21041046266E-01  0.10207842963E+01  0.10205218548E+01 0.  0.
     999903    2    3    3    0    0  0.12342833747E+00 -0.23440232717E-01 -0.31261114997E-01  0.13086129789E+00  0.19063655834E-01 0.  0.
         14    1    1    2    0    0  0.75467090788E-02  0.60037615501E-02  0.21041046266E-01  0.23145703676E-01  0.00000000000E+00 0. -1.
     999901    1    3    3    0    0 -0.13097504655E+00  0.17436471167E-01  0.10220068731E-01  0.88992299844E+00  0.88000000000E+00 0. -1.
        -11    1    4    4    0    0  0.89303434793E-01 -0.23210670275E-01 -0.28716171641E-01  0.96637044218E-01  0.51100000000E-03 0.  1.
         11    1    4    4    0    0  0.34124902674E-01 -0.22956244173E-03 -0.25449433558E-02  0.34224253668E-01  0.51100000000E-03 0. -1.
</event>
<event>
 8    1  0.1054086E+005  0.1043930E+01  0.7957747E-01            NaN
         13   -1    0    0    0    0  0.00000000000E+00  0.00000000000E+00  0.74505805969E-08  0.10566000000E+00  0.10566000000E+00 0.  1.
     999900   -1    0    0    0    0 -0.00000000000E+00 -0.00000000000E+00 -0.74505805969E-08  0.93827000000E+00  0.93827000000E+00 0. -1.
     999902    2    1    2    0    0  0.20552608355E-01  0.10494161806E-01  0.52181533275E-02  0.10202706199E+01  0.10199962606E+01 0.  0.
     999903    2    3    3    0    0  0.66264268702E-02 -0.12093185504E+00 -0.40399861159E-01  0.12923316857E+00  0.20015993125E-01 0.  0.
         14    1    1    2    0    0 -0.20552608355E-01 -0.10494161806E-01 -0.52181533275E-02  0.23659380092E-01  0.00000000000E+00 0. -1.
     999901    1    3    3    0    0  0.13926181485E-01  0.13142601685E+00  0.45618014487E-01  0.89103745133E+00  0.88000000000E+00 0.  1.
        -11    1    4    4    0    0  0.61136103579E-02 -0.99190387016E-02 -0.52140362354E-02  0.12775400394E-01  0.51100000000E-03 0. -1.
         11    1    4    4    0    0  0.51281651230E-03 -0.11101281634E+00 -0.35185824924E-01  0.11645776818E+00  0.51100000000E-03 0.  1.
</event>
<event>
 8    1  0.1054086E+005  0.1043930E+01  0.7957747E-01            NaN
         13   -1    0    0    0    0  0.00000000000E+00  0.00000000000E+00  0.74505805969E-08  0.10566000000E+00  0.10566000000E+00 0.  1.
     999900   -1    0    0    0    0 -0.00000000000E+00 -0.00000000000E+00 -0.74505805969E-08  0.93827000000E+00  0.93827000000E+00 0.  1.
     999902    2    1    2    0    0 -0.23435390025E-01  0.19608629315E-02  0.27372078880E-02  0.10202539616E+01  0.10199792112E+01 0.  0.
     999903    2    3    3    0    0  0.62764893117E-01 -0.11104629233E+00 -0.59969279401E-02  0.12880716501E+00  0.16870440582E-01 0.  0.
         14    1    1    2    0    0  0.23435390025E-01 -0.19608629315E-02 -0.27372078880E-02  0.23676038437E-01  0.00000000000E+00 0.  1.
     999901    1    3    3    0    0 -0.86200283142E-01  0.11300715526E+00  0.87341358281E-02  0.89144679655E+00  0.88000000000E+00 0. -1.
        -11    1    4    4    0    0  0.77652217668E-02 -0.68251618865E-02 -0.35324828253E-02  0.10937141298E-01  0.51100000000E-03 0. -1.
         11    1    4    4    0    0  0.54999671350E-01 -0.10422113044E+00 -0.24644451148E-02  0.11787002371E+00  0.51100000000E-03 0.  1.
</event>
<event>
 8    1  0.1054086E+005  0.1043930E+01  0.7957747E-01            NaN
         13   -1    0    0    0    0  0.00000000000E+00  0.00000000000E+00  0.74505805969E-08  0.10566000000E+00  0.10566000000E+00 0.  1.
     999900   -1    0    0    0    0 -0.00000000000E+00 -0.00000000000E+00 -0.74505805969E-08  0.93827000000E+00  0.93827000000E+00 0. -1.
     999902    2    1    2    0    0 -0.17345024135E-01  0.13404605856E-01  0.10390026551E-01  0.10196712702E+01  0.10193826628E+01 0.  0.
     999903    2    3    3    0    0  0.12118358510E+00  0.20798017194E-01 -0.29174831570E-01  0.12792566963E+00  0.19894404703E-01 0.  0.
         14    1    1    2    0    0  0.17345024135E-01 -0.13404605856E-01 -0.10390026551E-01  0.24258729813E-01  0.00000000000E+00 0. -1.
     999901    1    3    3    0    0 -0.13852860923E+00 -0.73934113382E-02  0.39564858122E-01  0.89174560055E+00  0.88000000000E+00 0. -1.
        -11    1    4    4    0    0  0.74513630549E-01  0.52885701407E-02 -0.11078196747E-01  0.75519783341E-01  0.51100000000E-03 0. -1.
         11    1    4    4    0    0  0.46669954547E-01  0.15509447053E-01 -0.18096634823E-01  0.52405886294E-01  0.51100000000E-03 0.  1.
</event>
<event>
 8    1  0.1054086E+005  0.1043930E+01  0.7957747E-01            NaN
         13   -1    0    0    0    0  0.00000000000E+00  0.00000000000E+00  0.74505805969E-08  0.10566000000E+00  0.10566000000E+00 0. -1.
     999900   -1    0    0    0    0 -0.00000000000E+00 -0.00000000000E+00 -0.74505805969E-08  0.93827000000E+00  0.93827000000E+00 0.  1.
     999902    2    1    2    0    0 -0.74947346848E-02  0.21936748590E-01  0.42224172502E-02  0.10203668764E+01  0.10200947709E+01 0.  0.
     999903    2    3    3    0    0 -0.54339677006E-01 -0.11285552206E+00  0.21581851299E-01  0.12870283944E+00  0.20235494011E-01 0.  0.
         14    1    1    2    0    0  0.74947346848E-02 -0.21936748590E-01 -0.42224172502E-02  0.23563123607E-01  0.00000000000E+00 0.  1.
     999901    1    3    3    0    0  0.46844942321E-01  0.13479227065E+00 -0.17359434049E-01  0.89166403695E+00  0.88000000000E+00 0. -1.
        -11    1    4    4    0    0 -0.34048504264E-01 -0.79266956075E-01  0.23486175444E-01  0.89411478715E-01  0.51100000000E-03 0. -1.
         11    1    4    4    0    0 -0.20291172742E-01 -0.33588565983E-01 -0.19043241448E-02  0.39291360723E-01  0.51100000000E-03 0.  1.
</event>
<event>
 8    1  0.1054086E+005  0.1043930E+01  0.7957747E-01            NaN
         13   -1    0    0    0    0  0.00000000000E+00  0.00000000000E+00  0.74505805969E-08  0.10566000000E+00  0.10566000000E+00 0. -1.
     999900   -1    0    0    0    0 -0.00000000000E+00 -0.00000000000E+00 -0.74505805969E-08  0.93827000000E+00  0.93827000000E+00 0.  1.
     999902    2    1    2    0    0  0.95071795584E-02  0.10600570878E-02 -0.21056359549E-01  0.10208025172E+01  0.10205404934E+01 0.  0.
     999903    2    3    3    0    0  0.37376676269E-01  0.24754532711E-01  0.11920512727E+00  0.12894410818E+00  0.20172204840E-01 0.  0.
         14    1    1    2    0    0 -0.95071795584E-02 -0.10600570878E-02  0.21056359549E-01  0.23127482821E-01  0.00000000000E+00 0. -1.
     999901    1    3    3    0    0 -0.27869496710E-01 -0.23694475624E-01 -0.14026148682E+00  0.89185840900E+00  0.88000000000E+00 0.  1.
        -11    1    4    4    0    0  0.15141766533E-01  0.42267325385E-02  0.64853715173E-01  0.66733828411E-01  0.51100000000E-03 0. -1.
         11    1    4    4    0    0  0.22234909736E-01  0.20527800173E-01  0.54351412095E-01  0.62210279767E-01  0.51100000000E-03 0.  1.
</event>
<event>
 8    1  0.1054086E+005  0.1043930E+01  0.7957747E-01            NaN
         13   -1    0    0    0    0  0.00000000000E+00  0.00000000000E+00  0.74505805969E-08  0.10566000000E+00  0.10566000000E+00 0.  1.
     999900   -1    0    0    0    0 -0.00000000000E+00 -0.00000000000E+00 -0.74505805969E-08  0.93827000000E+00  0.93827000000E+00 0. -1.
     999902    2    1    2    0    0  0.20534218862E-01 -0.16051333371E-01  0.11419382100E-01  0.10154747415E+01  0.10150759819E+01 0.  0.
     999903    2    3    3    0    0 -0.12059503203E+00 -0.17003404952E-01  0.16228847898E-01  0.12421635988E+00  0.18277062840E-01 0.  0.
         14    1    1    2    0    0 -0.20534218862E-01  0.16051333371E-01 -0.11419382100E-01  0.28455258474E-01  0.00000000000E+00 0. -1.
     999901    1    3    3    0    0  0.14112925089E+00  0.95207158088E-03 -0.48094657984E-02  0.89125838165E+00  0.88000000000E+00 0. -1.
        -11    1    4    4    0    0 -0.78164398157E-01 -0.19095584944E-01  0.13992319891E-01  0.81672275838E-01  0.51100000000E-03 0. -1.
         11    1    4    4    0    0 -0.42430633875E-01  0.20921799920E-02  0.22365280075E-02  0.42544084039E-01  0.51100000000E-03 0.  1.
</event>
<event>
 8    1  0.1054086E+005  0.1043930E+01  0.7957747E-01            NaN
         13   -1    0    0    0    0  0.00000000000E+00  0.00000000000E+00  0.74505805969E-08  0.10566000000E+00  0.10566000000E+00 0.  1.
     999900   -1    0    0    0    0 -0.00000000000E+00 -0.00000000000E+00 -0.74505805969E-08  0.93827000000E+00  0.93827000000E+00 0. -1.
     999902    2    1    2    0    0  0.10184973219E-01 -0.19923529512E-01 -0.11786273727E-01  0.10186397458E+01  0.10183257508E+01 0.  0.
     999903    2    3    3    0    0  0.88305786334E-01 -0.12720716036E-01 -0.94090878989E-01  0.13132424951E+00  0.20814333603E-01 0.  0.
         14    1    1    2    0    0 -0.10184973219E-01  0.19923529512E-01  0.11786273727E-01  0.25290254172E-01  0.00000000000E+00 0.  1.
     999901    1    3    3    0    0 -0.78120813115E-01 -0.72028134767E-02  0.82304605262E-01  0.88731549632E+00  0.88000000000E+00 0. -1.
        -11    1    4    4    0    0  0.61885674577E-01 -0.11050372057E-02 -0.72175146389E-01  0.95081915748E-01  0.51100000000E-03 0.  1.
         11    1    4    4    0    0  0.26420111757E-01 -0.11615678830E-01 -0.21915732599E-01  0.36242333759E-01  0.51100000000E-03 0. -1.
</event>
<event>
 8    1  0.1054086E+005  0.1043930E+01  0.7957747E-01            NaN
         13   -1    0    0    0    0  0.00000000000E+00  0.00000000000E+00  0.74505805969E-08  0.10566000000E+00  0.10566000000E+00 0. -1.
     999900   -1    0    0    0    0 -0.00000000000E+00 -0.00000000000E+00 -0.74505805969E-08  0.93827000000E+00  0.93827000000E+00 0.  1.
     999902    2    1    2    0    0  0.49778962602E-03  0.18613498527E-01 -0.84969942168E-02  0.10234627327E+01  0.10232580594E+01 0.  0.
     999903    2    3    3    0    0  0.48200178244E-01  0.48243964443E-01 -0.11501717358E+00  0.13526228737E+00  0.20400952843E-01 0.  0.
         14    1    1    2    0    0 -0.49778962602E-03 -0.18613498527E-01  0.84969942168E-02  0.20467267347E-01  0.00000000000E+00 0. -1.
     999901    1    3    3    0    0 -0.47702388618E-01 -0.29630465916E-01  0.10652017937E+00  0.88820044528E+00  0.88000000000E+00 0. -1.
        -11    1    4    4    0    0  0.23756604605E-01  0.10170921893E-01 -0.45087672927E-01  0.51970985035E-01  0.51100000000E-03 0.  1.
         11    1    4    4    0    0  0.24443573640E-01  0.38073042550E-01 -0.69929500658E-01  0.83291302334E-01  0.51100000000E-03 0. -1.
</event>
<event>
 8    1  0.1054086E+005  0.1043930E+01  0.7957747E-01            NaN
         13   -1    0    0    0    0  0.00000000000E+00  0.00000000000E+00  0.74505805969E-08  0.10566000000E+00  0.10566000000E+00 0. -1.
     999900   -1    0    0    0    0 -0.00000000000E+00 -0.00000000000E+00 -0.74505805969E-08  0.93827000000E+00  0.93827000000E+00 0. -1.
     999902    2    1    2    0    0 -0.10311270775E-01  0.20657367831E-01  0.27529508389E-02  0.10206785938E+01  0.10204137220E+01 0.  0.
     999903    2    3    3    0    0 -0.51505551783E-01 -0.88889539698E-01 -0.75871604876E-01  0.12945510081E+00  0.21164842734E-01 0.  0.
         14    1    1    2    0    0  0.10311270775E-01 -0.20657367831E-01 -0.27529508389E-02  0.23251406173E-01  0.00000000000E+00 0. -1.
     999901    1    3    3    0    0  0.41194281008E-01  0.10954690753E+00  0.78624555715E-01  0.89122349301E+00  0.88000000000E+00 0. -1.
        -11    1    4    4    0    0 -0.50761203831E-02 -0.25456108224E-01 -0.23302958779E-01  0.34886522511E-01  0.51100000000E-03 0.  1.
         11    1    4    4    0    0 -0.46429431400E-01 -0.63433431475E-01 -0.52568646097E-01  0.94568578303E-01  0.51100000000E-03 0. -1.
</event>
<event>
 8    1  0.1054086E+005  0.1043930E+01  0.7957747E-01            NaN
         13   -1    0    0    0    0  0.00000000000E+00  0.00000000000E+00  0.74505805969E-08  0.10566000000E+00  0.10566000000E+00 0. -1.
     999900   -1    0    0    0    0 -0.00000000000E+00 -0.00000000000E+00 -0.74505805969E-08  0.93827000000E+00  0.93827000000E+00 0.  1.
     999902    2    1    2    0    0 -0.42385558758E-02  0.22509857164E-01  0.46612180681E-02  0.10205550994E+01  0.10202873737E+01 0.  0.
     999903    2    3    3    0    0  0.38541985183E-01  0.10494935928E+00  0.69942695814E-01  0.13326252218E+00  0.19158979226E-01 0.  0.
         14    1    1    2    0    0  0.42385558758E-02 -0.22509857164E-01 -0.46612180681E-02  0.23374900628E-01  0.00000000000E+00 0. -1.
     999901    1    3    3    0    0 -0.42780541059E-01 -0.82439502117E-01 -0.65281477746E-01  0.88729257719E+00  0.88000000000E+00 0.  1.
        -11    1    4    4    0    0  0.20336827718E-01  0.44052996812E-01  0.40540316284E-01  0.63229988575E-01  0.51100000000E-03 0.  1.
         11    1    4    4    0    0  0.18205157465E-01  0.60896362469E-01  0.29402379530E-01  0.70032533606E-01  0.51100000000E-03 0. -1.
</event>
<event>
 8    1  0.1054086E+005  0.1043930E+01  0.7957747E-01            NaN
         13   -1    0    0    0    0  0.00000000000E+00  0.00000000000E+00  0.74505805969E-08  0.10566000000E+00  0.10566000000E+00 0. -1.
     999900   -1    0    0    0    0 -0.00000000000E+00 -0.00000000000E+00 -0.74505805969E-08  0.93827000000E+00  0.93827000000E+00 0. -1.
     999902    2    1    2    0    0 -0.22984705310E-01  0.50162234154E-02  0.12539443457E-02  0.10203708924E+01  0.10200988807E+01 0.  0.
     999903    2    3    3    0    0  0.18393830453E-02 -0.12709932845E+00 -0.18862236460E-01  0.12993537246E+00  0.19230039731E-01 0.  0.
         14    1    1    2    0    0  0.22984705310E-01 -0.50162234154E-02 -0.12539443457E-02  0.23559107623E-01  0.00000000000E+00 0. -1.
     999901    1    3    3    0    0 -0.24824088356E-01  0.13211555187E+00  0.20116180806E-01  0.89043551992E+00  0.88000000000E+00 0.  1.
        -11    1    4    4    0    0  0.10250806190E-01 -0.57599184137E-01 -0.10268283805E-01  0.59400705502E-01  0.51100000000E-03 0. -1.
         11    1    4    4    0    0 -0.84114231447E-02 -0.69500144315E-01 -0.85939526549E-02  0.70534666954E-01  0.51100000000E-03 0.  1.
</event>
<event>
 8    1  0.1054086E+005  0.1043930E+01  0.7957747E-01            NaN
         13   -1    0    0    0    0  0.00000000000E+00  0.00000000000E+00  0.74505805969E-08  0.10566000000E+00  0.10566000000E+00 0.  1.
     999900   -1    0    0    0    0 -0.00000000000E+00 -0.00000000000E+00 -0.74505805969E-08  0.93827000000E+00  0.93827000000E+00 0.  1.
     999902    2    1    2    0    0  0.63207929475E-02  0.72667592768E-02 -0.21588988722E-01  0.10202901470E+01  0.10200162457E+01 0.  0.
     999903    2    3    3    0    0 -0.80142427327E-01 -0.67399982009E-01 -0.76284618353E-01  0.13122174550E+00  0.20838360362E-01 0.  0.
         14    1    1    2    0    0 -0.63207929475E-02 -0.72667592768E-02  0.21588988722E-01  0.23639852959E-01  0.00000000000E+00 0. -1.
     999901    1    3    3    0    0  0.86463220275E-01  0.74666741286E-01  0.54695629631E-01  0.88906840154E+00  0.88000000000E+00 0. -1.
        -11    1    4    4    0    0 -0.52673544597E-01 -0.51624525433E-01 -0.62487043573E-01  0.96666879861E-01  0.51100000000E-03 0. -1.
         11    1    4    4    0    0 -0.27468882731E-01 -0.15775456576E-01 -0.13797574780E-01  0.34554865641E-01  0.51100000000E-03 0.  1.
</event>
<event>
 8    1  0.1054086E+005  0.1043930E+01  0.7957747E-01            NaN
         13   -1    0    0    0    0  0.00000000000E+00  0.00000000000E+00  0.74505805969E-08  0.10566000000E+00  0.10566000000E+00 0. -1.
     999900   -1    0    0    0    0 -0.00000000000E+00 -0.00000000000E+00 -0.74505805969E-08  0.93827000000E+00  0.93827000000E+00 0. -1.
     999902    2    1    2    0    0 -0.22189080020E-02 -0.22662963318E-01 -0.17206082962E-01  0.10153891039E+01  0.10149879061E+01 0.  0.
     999903    2    3    3    0    0 -0.30718004265E-01  0.47407478756E-01 -0.11210381642E+00  0.12706053566E+00  0.19648135725E-01 0.  0.
         14    1    1    2    0    0  0.22189080020E-02  0.22662963318E-01  0.17206082962E-01  0.28540896096E-01  0.00000000000E+00 0. -1.
     999901    1    3    3    0    0  0.28499096263E-01 -0.70070442074E-01  0.94897733463E-01  0.88832856824E+00  0.88000000000E+00 0.  1.
        -11    1    4    4    0    0 -0.15420154203E-01  0.86721239090E-02 -0.26569871592E-01  0.31925007222E-01  0.51100000000E-03 0.  1.
         11    1    4    4    0    0 -0.15297850062E-01  0.38735354847E-01 -0.85533944833E-01  0.95135528439E-01  0.51100000000E-03 0. -1.
</event>
<event>
 8    1  0.1054086E+005  0.1043930E+01  0.7957747E-01            NaN
         13   -1    0    0    0    0  0.00000000000E+00  0.00000000000E+00  0.74505805969E-08  0.10566000000E+00  0.10566000000E+00 0. -1.
     999900   -1    0    0    0    0 -0.00000000000E+00 -0.00000000000E+00 -0.74505805969E-08  0.93827000000E+00  0.93827000000E+00 0.  1.
     999902    2    1    2    0    0  0.16527604270E-01  0.19720919682E-01 -0.12085996927E-02  0.10181707863E+01  0.10178448865E+01 0.  0.
     999903    2    3    3    0    0  0.78403733736E-01 -0.81054779993E-01  0.57727239735E-01  0.12830684717E+00  0.20327075521E-01 0.  0.
         14    1    1    2    0    0 -0.16527604270E-01 -0.19720919682E-01  0.12085996927E-02  0.25759213676E-01  0.00000000000E+00 0. -1.
     999901    1    3    3    0    0 -0.61876129466E-01  0.10077569967E+00 -0.58935839427E-01  0.88986393916E+00  0.88000000000E+00 0.  1.
        -11    1    4    4    0    0  0.60331784573E-01 -0.52933098667E-01  0.33273889042E-01  0.86886419982E-01  0.51100000000E-03 0. -1.
         11    1    4    4    0    0  0.18071949163E-01 -0.28121681326E-01  0.24453350693E-01  0.41420427186E-01  0.51100000000E-03 0.  1.
</event>
<event>
 8    1  0.1054086E+005  0.1043930E+01  0.7957747E-01            NaN
         13   -1    0    0    0    0  0.00000000000E+00  0.00000000000E+00  0.74505805969E-08  0.10566000000E+00  0.10566000000E+00 0.  1.
     999900   -1    0    0    0    0 -0.00000000000E+00 -0.00000000000E+00 -0.74505805969E-08  0.93827000000E+00  0.93827000000E+00 0. -1.
     999902    2    1    2    0    0  0.18634735751E-01  0.13438462363E-01  0.57187365560E-02  0.10202540714E+01  0.10199793236E+01 0.  0.
     999903    2    3    3    0    0  0.49467838390E-02  0.12802028133E+00 -0.25697837055E-01  0.13216434938E+00  0.19833641027E-01 0.  0.
         14    1    1    2    0    0 -0.18634735751E-01 -0.13438462363E-01 -0.57187365560E-02  0.23675928598E-01  0.00000000000E+00 0. -1.
     999901    1    3    3    0    0  0.13687951912E-01 -0.11458181896E+00  0.31416573612E-01  0.88808972202E+00  0.88000000000E+00 0.  1.
        -11    1    4    4    0    0  0.24336854505E-02  0.87656068551E-01 -0.81275753534E-02  0.88067177659E-01  0.51100000000E-03 0.  1.
         11    1    4    4    0    0  0.25130983885E-02  0.40364212775E-01 -0.17570261702E-01  0.44097171720E-01  0.51100000000E-03 0. -1.
</event>
<event>
 8    1  0.1054086E+005  0.1043930E+01  0.7957747E-01            NaN
         13   -1    0    0    0    0  0.00000000000E+00  0.00000000000E+00  0.74505805969E-08  0.10566000000E+00  0.10566000000E+00 0. -1.
     999900   -1    0    0    0    0 -0.00000000000E+00 -0.00000000000E+00 -0.74505805969E-08  0.93827000000E+00  0.93827000000E+00 0.  1.
     999902    2    1    2    0    0 -0.17443250375E-01  0.11898083172E-01  0.11269334784E-01  0.10199961480E+01  0.10197153096E+01 0.  0.
     999903    2    3    3    0    0  0.10254038968E+00  0.60534202664E-02  0.78135051588E-01  0.12932153956E+00  0.82340084521E-02 0.  0.
         14    1    1    2    0    0  0.17443250375E-01 -0.11898083172E-01 -0.11269334784E-01  0.23933852036E-01  0.00000000000E+00 0.  1.
     999901    1    3    3    0    0 -0.11998364006E+00  0.58446629056E-02 -0.66865716804E-01  0.89067460840E+00  0.88000000000E+00 0.  1.
        -11    1    4    4    0    0  0.78912170636E-01  0.12132145102E-02  0.60079614521E-01  0.99188828837E-01  0.51100000000E-03 0. -1.
         11    1    4    4    0    0  0.23628219046E-01  0.48402057561E-02  0.18055437067E-01  0.30132710727E-01  0.51100000000E-03 0.  1.
</event>
<event>
 8    1  0.1054086E+005  0.1043930E+01  0.7957747E-01            NaN
         13   -1    0    0    0    0  0.00000000000E+00  0.00000000000E+00  0.74505805969E-08  0.10566000000E+00  0.10566000000E+00 0.  1.
     999900   -1    0    0    0    0 -0.00000000000E+00 -0.00000000000E+00 -0.74505805969E-08  0.93827000000E+00  0.93827000000E+00 0.  1.
     999902    2    1    2    0    0  0.73658229215E-02  0.18847457152E-01 -0.11442909475E-01  0.10206830181E+01  0.10204182482E+01 0.  0.
     999903    2    3    3    0    0  0.92740523050E-01 -0.55544235562E-01  0.68880876694E-01  0.12979869681E+00  0.20424490185E-01 0.  0.
         14    1    1    2    0    0 -0.73658229215E-02 -0.18847457152E-01  0.11442909475E-01  0.23246981861E-01  0.00000000000E+00 0. -1.
     999901    1    3    3    0    0 -0.85374700129E-01  0.74391692714E-01 -0.80323786169E-01  0.89088432133E+00  0.88000000000E+00 0.  1.
        -11    1    4    4    0    0  0.15575609066E-01 -0.81660984253E-02  0.30712598766E-02  0.17859969751E-01  0.51100000000E-03 0. -1.
         11    1    4    4    0    0  0.77164913985E-01 -0.47378137136E-01  0.65809616817E-01  0.11193872706E+00  0.51100000000E-03 0.  1.
</event>
<event>
 8    1  0.1054086E+005  0.1043930E+01  0.7957747E-01            NaN
         13   -1    0    0    0    0  0.00000000000E+00  0.00000000000E+00  0.74505805969E-08  0.10566000000E+00  0.10566000000E+00 0. -1.
     999900   -1    0    0    0    0 -0.00000000000E+00 -0.00000000000E+00 -0.74505805969E-08  0.93827000000E+00  0.93827000000E+00 0. -1.
     999902    2    1    2    0    0  0.51465262659E-02 -0.75181159551E-02 -0.22147059834E-01  0.10199821179E+01  0.10197009462E+01 0.  0.
     999903    2    3    3    0    0 -0.89223229541E-01 -0.37947508939E-01  0.81857848396E-01  0.12832712869E+00  0.19140179943E-01 0.  0.
         14    1    1    2    0    0 -0.51465262659E-02  0.75181159551E-02  0.22147059834E-01  0.23947882149E-01  0.00000000000E+00 0. -1.
     999901    1    3    3    0    0  0.94369755806E-01  0.30429392984E-01 -0.10400490823E+00  0.89165498917E+00  0.88000000000E+00 0. -1.
        -11    1    4    4    0    0 -0.42281069509E-01 -0.20714896751E-01  0.27773987481E-01  0.54666729259E-01  0.51100000000E-03 0.  1.
         11    1    4    4    0    0 -0.46942160031E-01 -0.17232612189E-01  0.54083860915E-01  0.73660399427E-01  0.51100000000E-03 0. -1.
</event>
<event>
 8    1  0.1054086E+005  0.1043930E+01  0.7957747E-01            NaN
         13   -1    0    0    0    0  0.00000000000E+00  0.00000000000E+00  0.74505805969E-08  0.10566000000E+00  0.10566000000E+00 0. -1.
     999900   -1    0    0    0    0 -0.00000000000E+00 -0.00000000000E+00 -0.74505805969E-08  0.93827000000E+00  0.93827000000E+00 0.  1.
     999902    2    1    2    0    0 -0.22014157623E-02 -0.50077736248E-02 -0.24368079573E-01  0.10189554664E+01  0.10186493583E+01 0.  0.
     999903    2    3    3    0    0  0.71230046247E-01 -0.98308264388E-01 -0.44156577553E-01  0.13076137393E+00  0.20260780730E-01 0.  0.
         14    1    1    2    0    0  0.22014157623E-02  0.50077736248E-02  0.24368079573E-01  0.24974533632E-01  0.00000000000E+00 0. -1.
     999901    1    3    3    0    0 -0.73431462009E-01  0.93300490763E-01  0.19788497980E-01  0.88819409244E+00  0.88000000000E+00 0.  1.
        -11    1    4    4    0    0  0.15809277346E-01 -0.15340428786E-01 -0.15536245350E-01  0.26961046829E-01  0.51100000000E-03 0.  1.
         11    1    4    4    0    0  0.55420768900E-01 -0.82967835602E-01 -0.28620332203E-01  0.10380032710E+00  0.51100000000E-03 0. -1.
</event>
<event>
 8    1  0.1054086E+005  0.1043930E+01  0.7957747E-01            NaN
         13   -1    0    0    0    0  0.00000000000E+00  0.00000000000E+00  0.74505805969E-08  0.10566000000E+00  0.10566000000E+00 0.  1.
     999900   -1    0    0    0    0 -0.00000000000E+00 -0.00000000000E+00 -0.74505805969E-08  0.93827000000E+00  0.93827000000E+00 0.  1.
     999902    2    1    2    0    0 -0.17214746878E-01 -0.56368291620E-02 -0.13957022543E-01  0.10210625596E+01  0.10208064610E+01 0.  0.
     999903    2    3    3    0    0  0.12669277251E+00  0.13184713823E-01 -0.68916746725E-02  0.12914690003E+00  0.20162621878E-01 0.  0.
         14    1    1    2    0    0  0.17214746878E-01  0.56368291620E-02  0.13957022543E-01  0.22867440420E-01  0.00000000000E+00 0.  1.
     999901    1    3    3    0    0 -0.14390751939E+00 -0.18821542985E-01 -0.70653478707E-02  0.89191565955E+00  0.88000000000E+00 0.  1.
        -11    1    4    4    0    0  0.79063653533E-01  0.13007829791E-01 -0.12819801149E-01  0.81147232659E-01  0.51100000000E-03 0. -1.
         11    1    4    4    0    0  0.47629118980E-01  0.17688403224E-03  0.59281264766E-02  0.47999667366E-01  0.51100000000E-03 0.  1.
</event>
<event>
 8    1  0.1054086E+005  0.1043930E+01  0.7957747E-01            NaN
         13   -1    0    0    0    0  0.00000000000E+00  0.00000000000E+00  0.74505805969E-08  0.10566000000E+00  0.10566000000E+00 0. -1.
     999900   -1    0    0    0    0 -0.00000000000E+00 -0.00000000000E+00 -0.74505805969E-08  0.93827000000E+00  0.93827000000E+00 0.  1.
     999902    2    1    2    0    0  0.22023946217E-02  0.12897847869E-01  0.18769999852E-01  0.10210494861E+01  0.10207930913E+01 0.  0.
     999903    2    3    3    0    0 -0.56454452021E-01 -0.68549163576E-02 -0.11413627000E+00  0.12892008186E+00  0.18952687017E-01 0.  0.
         14    1    1    2    0    0 -0.22023946217E-02 -0.12897847869E-01 -0.18769999852E-01  0.22880513896E-01  0.00000000000E+00 0.  1.
     999901    1    3    3    0    0  0.58656846642E-01  0.19752764227E-01  0.13290626985E+00  0.89212940425E+00  0.88000000000E+00 0. -1.
        -11    1    4    4    0    0 -0.25204996249E-01  0.59195125645E-02 -0.43391872097E-01  0.50531654930E-01  0.51100000000E-03 0. -1.
         11    1    4    4    0    0 -0.31249455772E-01 -0.12774428922E-01 -0.70744397905E-01  0.78388426928E-01  0.51100000000E-03 0.  1.
</event>
<event>
 8    1  0.1054086E+005  0.1043930E+01  0.7957747E-01            NaN
         13   -1    0    0    0    0  0.00000000000E+00  0.00000000000E+00  0.74505805969E-08  0.10566000000E+00  0.10566000000E+00 0. -1.
     999900   -1    0    0    0    0 -0.00000000000E+00 -0.00000000000E+00 -0.74505805969E-08  0.93827000000E+00  0.93827000000E+00 0. -1.
     999902    2    1    2    0    0  0.44615186302E-02  0.20727632031E-01 -0.11635975093E-01  0.10197445541E+01  0.10194577087E+01 0.  0.
     999903    2    3    3    0    0  0.84760378517E-01 -0.94323685348E-01 -0.57757532006E-02  0.12861097558E+00  0.20643263552E-01 0.  0.
         14    1    1    2    0    0 -0.44615186302E-02 -0.20727632031E-01  0.11635975093E-01  0.24185445922E-01  0.00000000000E+00 0. -1.
     999901    1    3    3    0    0 -0.80298859887E-01  0.11505131738E+00 -0.58602218922E-02  0.89113357850E+00  0.88000000000E+00 0.  1.
        -11    1    4    4    0    0  0.74185503566E-01 -0.82353443649E-01  0.19550801921E-02  0.11085874832E+00  0.51100000000E-03 0.  1.
         11    1    4    4    0    0  0.10574874951E-01 -0.11970241699E-01 -0.77308333927E-02  0.17752227255E-01  0.51100000000E-03 0. -1.
</event>
<event>
 8    1  0.1054086E+005  0.1043930E+01  0.7957747E-01            NaN
         13   -1    0    0    0    0  0.00000000000E+00  0.00000000000E+00  0.74505805969E-08  0.10566000000E+00  0.10566000000E+00 0. -1.
     999900   -1    0    0    0    0 -0.00000000000E+00 -0.00000000000E+00 -0.74505805969E-08  0.93827000000E+00  0.93827000000E+00 0.  1.
     999902    2    1    2    0    0  0.12314237510E-01  0.16232068444E-01  0.12451418774E-01  0.10200520118E+01  0.10197724984E+01 0.  0.
     999903    2    3    3    0    0  0.66398040996E-01  0.10128309913E+00 -0.48968627907E-01  0.13217186349E+00  0.20112408141E-01 0.  0.
         14    1    1    2    0    0 -0.12314237510E-01 -0.16232068444E-01 -0.12451418774E-01  0.23877988209E-01  0.00000000000E+00 0.  1.
     999901    1    3    3    0    0 -0.54083803486E-01 -0.85051030684E-01  0.61420046681E-01  0.88788014831E+00  0.88000000000E+00 0. -1.
        -11    1    4    4    0    0  0.72858332543E-02  0.26062727207E-01 -0.95972711868E-02  0.28717901228E-01  0.51100000000E-03 0.  1.
         11    1    4    4    0    0  0.59112207741E-01  0.75220371920E-01 -0.39371356720E-01  0.10345396226E+00  0.51100000000E-03 0. -1.
</event>
<event>
 8    1  0.1054086E+005  0.1043930E+01  0.7957747E-01            NaN
         13   -1    0    0    0    0  0.00000000000E+00  0.00000000000E+00  0.74505805969E-08  0.10566000000E+00  0.10566000000E+00 0. -1.
     999900   -1    0    0    0    0 -0.00000000000E+00 -0.00000000000E+00 -0.74505805969E-08  0.93827000000E+00  0.93827000000E+00 0. -1.
     999902    2    1    2    0    0  0.13878372710E-01 -0.19000255262E-01 -0.10114154637E-03  0.10204006745E+01  0.10201293581E+01 0.  0.
     999903    2    3    3    0    0 -0.30454175308E-03 -0.43364716407E-01 -0.12254217380E+00  0.13147627478E+00  0.19718901966E-01 0.  0.
         14    1    1    2    0    0 -0.13878372710E-01  0.19000255262E-01  0.10114154637E-03  0.23529325504E-01  0.00000000000E+00 0. -1.
     999901    1    3    3    0    0  0.14182914463E-01  0.24364461145E-01  0.12244103226E+00  0.88892439972E+00  0.88000000000E+00 0.  1.
        -11    1    4    4    0    0  0.28056074936E-02 -0.19172846961E-01 -0.29573399666E-01  0.35359815933E-01  0.51100000000E-03 0.  1.
         11    1    4    4    0    0 -0.31101492467E-02 -0.24191869446E-01 -0.92968774138E-01  0.96116458847E-01  0.51100000000E-03 0. -1.
</event>
<event>
 8    1  0.1054086E+005  0.1043930E+01  0.7957747E-01            NaN
         13   -1    0    0    0    0  0.00000000000E+00  0.00000000000E+00  0.74505805969E-08  0.10566000000E+00  0.10566000000E+00 0. -1.
     999900   -1    0    0    0    0 -0.00000000000E+00 -0.00000000000E+00 -0.74505805969E-08  0.93827000000E+00  0.93827000000E+00 0.  1.
     999902    2    1    2    0    0 -0.13891227720E-03  0.18963106431E-01 -0.22478816167E-02  0.10248336214E+01  0.10246556885E+01 0.  0.
     999903    2    3    3    0    0 -0.13183221536E-02  0.63252091107E-01 -0.11868669475E+00  0.13605867672E+00  0.20563730108E-01 0.  0.
         14    1    1    2    0    0  0.13891227720E-03 -0.18963106431E-01  0.22478816167E-02  0.19096378555E-01  0.00000000000E+00 0. -1.
     999901    1    3    3    0    0  0.11794098764E-02 -0.44288984675E-01  0.11643881314E+00  0.88877494473E+00  0.88000000000E+00 0. -1.
        -11    1    4    4    0    0 -0.86038856556E-02  0.51153596199E-01 -0.85777908181E-01  0.10024384223E+00  0.51100000000E-03 0.  1.
         11    1    4    4    0    0  0.72855635020E-02  0.12098494908E-01 -0.32908786572E-01  0.35814834486E-01  0.51100000000E-03 0. -1.
</event>
<event>
 8    1  0.1213355E+005  0.1043930E+01  0.7957747E-01            NaN
         13   -1    0    0    0    0  0.00000000000E+00  0.00000000000E+00  0.74505805969E-08  0.10566000000E+00  0.10566000000E+00 0. -1.
     999900   -1    0    0    0    0 -0.00000000000E+00 -0.00000000000E+00 -0.74505805969E-08  0.93827000000E+00  0.93827000000E+00 0. -1.
     999902    2    1    2    0    0 -0.17982774928E-01  0.67537879850E-02 -0.14395272475E-01  0.10199254647E+01  0.10196429452E+01 0.  0.
     999903    2    3    3    0    0 -0.11982679219E-01 -0.53784754493E-03 -0.13024781243E+00  0.13228196636E+00  0.19752268259E-01 0.  0.
         14    1    1    2    0    0  0.17982774928E-01 -0.67537879850E-02  0.14395272475E-01  0.24004535319E-01  0.00000000000E+00 0. -1.
     999901    1    3    3    0    0 -0.60000957087E-02  0.72916355299E-02  0.11585253995E+00  0.88764349832E+00  0.88000000000E+00 0.  1.
        -11    1    4    4    0    0 -0.13498575851E-01  0.68090979320E-02 -0.73702366387E-01  0.75238788512E-01  0.51100000000E-03 0. -1.
         11    1    4    4    0    0  0.15158966316E-02 -0.73469454769E-02 -0.56545446038E-01  0.57043177849E-01  0.51100000000E-03 0.  1.
</event>
<event>
 8    1  0.1054086E+005  0.1043930E+01  0.7957747E-01            NaN
         13   -1    0    0    0    0  0.00000000000E+00  0.00000000000E+00  0.74505805969E-08  0.10566000000E+00  0.10566000000E+00 0.  1.
     999900   -1    0    0    0    0 -0.00000000000E+00 -0.00000000000E+00 -0.74505805969E-08  0.93827000000E+00  0.93827000000E+00 0. -1.
     999902    2    1    2    0    0 -0.85214518870E-02 -0.13051998888E-01  0.18200776382E-01  0.10199667348E+01  0.10196851975E+01 0.  0.
     999903    2    3    3    0    0 -0.12784805757E+00  0.71287433891E-02 -0.18137600238E-01  0.13094110032E+00  0.20509861165E-01 0.  0.
         14    1    1    2    0    0  0.85214518870E-02  0.13051998888E-01 -0.18200776382E-01  0.23963265181E-01  0.00000000000E+00 0. -1.
     999901    1    3    3    0    0  0.11932660568E+00 -0.20180742277E-01  0.36338376620E-01  0.88902563450E+00  0.88000000000E+00 0. -1.
        -11    1    4    4    0    0 -0.50972447342E-01  0.56089557172E-02 -0.17044591388E-01  0.54041002849E-01  0.51100000000E-03 0.  1.
         11    1    4    4    0    0 -0.76875610223E-01  0.15197876719E-02 -0.10930088502E-02  0.76900097471E-01  0.51100000000E-03 0. -1.
</event>
<event>
 8    1  0.1054086E+005  0.1043930E+01  0.7957747E-01            NaN
         13   -1    0    0    0    0  0.00000000000E+00  0.00000000000E+00  0.74505805969E-08  0.10566000000E+00  0.10566000000E+00 0.  1.
     999900   -1    0    0    0    0 -0.00000000000E+00 -0.00000000000E+00 -0.74505805969E-08  0.93827000000E+00  0.93827000000E+00 0.  1.
     999902    2    1    2    0    0 -0.29923256548E-01 -0.21389315079E-01 -0.19409968515E-03  0.10071476434E+01  0.10064757493E+01 0.  0.
     999903    2    3    3    0    0 -0.10928750211E+00 -0.51008235564E-01  0.14380705686E-01  0.12295966063E+00  0.19148765844E-01 0.  0.
         14    1    1    2    0    0  0.29923256548E-01  0.21389315079E-01  0.19409968515E-03  0.36782356595E-01  0.00000000000E+00 0. -1.
     999901    1    3    3    0    0  0.79364245567E-01  0.29618920485E-01 -0.14574805371E-01  0.88418798277E+00  0.88000000000E+00 0.  1.
        -11    1    4    4    0    0 -0.88937909397E-01 -0.48347509042E-01  0.84088587709E-02  0.10157954216E+00  0.51100000000E-03 0. -1.
         11    1    4    4    0    0 -0.20349592718E-01 -0.26607265217E-02  0.59718469154E-02  0.21380118474E-01  0.51100000000E-03 0.  1.
</event>
<event>
 8    1  0.1054086E+005  0.1043930E+01  0.7957747E-01            NaN
         13   -1    0    0    0    0  0.00000000000E+00  0.00000000000E+00  0.74505805969E-08  0.10566000000E+00  0.10566000000E+00 0. -1.
     999900   -1    0    0    0    0 -0.00000000000E+00 -0.00000000000E+00 -0.74505805969E-08  0.93827000000E+00  0.93827000000E+00 0. -1.
     999902    2    1    2    0    0 -0.53468020172E-02 -0.16953716685E-01  0.14576363305E-01  0.10209411512E+01  0.10206822949E+01 0.  0.
     999903    2    3    3    0    0 -0.96593015657E-01 -0.28203320908E-02 -0.85241262980E-01  0.13049790059E+00  0.20626783501E-01 0.  0.
         14    1    1    2    0    0  0.53468020172E-02  0.16953716685E-01 -0.14576363305E-01  0.22988848785E-01  0.00000000000E+00 0.  1.
     999901    1    3    3    0    0  0.91246213640E-01 -0.14133384594E-01  0.99817626285E-01  0.89044325062E+00  0.88000000000E+00 0. -1.
        -11    1    4    4    0    0 -0.58484526118E-01  0.78269541672E-02 -0.46606406036E-01  0.75193877486E-01  0.51100000000E-03 0.  1.
         11    1    4    4    0    0 -0.38108489539E-01 -0.10647286258E-01 -0.38634856944E-01  0.55304023105E-01  0.51100000000E-03 0. -1.
</event>
<event>
 8    1  0.1054086E+005  0.1043930E+01  0.7957747E-01            NaN
         13   -1    0    0    0    0  0.00000000000E+00  0.00000000000E+00  0.74505805969E-08  0.10566000000E+00  0.10566000000E+00 0. -1.
     999900   -1    0    0    0    0 -0.00000000000E+00 -0.00000000000E+00 -0.74505805969E-08  0.93827000000E+00  0.93827000000E+00 0.  1.
     999902    2    1    2    0    0  0.13575810390E-01  0.16700132608E-01 -0.10452946704E-01  0.10200038396E+01  0.10197231838E+01 0.  0.
     999903    2    3    3    0    0  0.89641492262E-01  0.98863802105E-02 -0.95191391263E-01  0.13264088163E+00  0.19971601364E-01 0.  0.
         14    1    1    2    0    0 -0.13575810390E-01 -0.16700132608E-01  0.10452946704E-01  0.23926160403E-01  0.00000000000E+00 0. -1.
     999901    1    3    3    0    0 -0.76065681872E-01  0.68137523973E-02  0.84738444560E-01  0.88736295796E+00  0.88000000000E+00 0. -1.
        -11    1    4    4    0    0  0.74316975742E-01  0.90161904908E-03 -0.80686472227E-01  0.10970138432E+00  0.51100000000E-03 0.  1.
         11    1    4    4    0    0  0.15324516519E-01  0.89847611614E-02 -0.14504919036E-01  0.22939497312E-01  0.51100000000E-03 0. -1.
</event>
<event>
 8    1  0.1054086E+005  0.1043930E+01  0.7957747E-01            NaN
         13   -1    0    0    0    0  0.00000000000E+00  0.00000000000E+00  0.74505805969E-08  0.10566000000E+00  0.10566000000E+00 0.  1.
     999900   -1    0    0    0    0 -0.00000000000E+00 -0.00000000000E+00 -0.74505805969E-08  0.93827000000E+00  0.93827000000E+00 0.  1.
     999902    2    1    2    0    0  0.12649277092E-01  0.29563807171E-01 -0.21695260575E-02  0.10117006694E+01  0.10111871809E+01 0.  0.
     999903    2    3    3    0    0 -0.46287907041E-01  0.75876174921E-01 -0.85023990942E-01  0.12463624707E+00  0.20133325314E-01 0.  0.
         14    1    1    2    0    0 -0.12649277092E-01 -0.29563807171E-01  0.21695260575E-02  0.32229330566E-01  0.00000000000E+00 0.  1.
     999901    1    3    3    0    0  0.58937184133E-01 -0.46312367751E-01  0.82854464884E-01  0.88706442237E+00  0.88000000000E+00 0. -1.
        -11    1    4    4    0    0 -0.27464626242E-01  0.32460767766E-01 -0.29888718733E-01  0.51976954192E-01  0.51100000000E-03 0. -1.
         11    1    4    4    0    0 -0.18823280799E-01  0.43415407155E-01 -0.55135272208E-01  0.72659292874E-01  0.51100000000E-03 0.  1.
</event>
<event>
 8    1  0.1054086E+005  0.1043930E+01  0.7957747E-01            NaN
         13   -1    0    0    0    0  0.00000000000E+00  0.00000000000E+00  0.74505805969E-08  0.10566000000E+00  0.10566000000E+00 0.  1.
     999900   -1    0    0    0    0 -0.00000000000E+00 -0.00000000000E+00 -0.74505805969E-08  0.93827000000E+00  0.93827000000E+00 0. -1.
     999902    2    1    2    0    0  0.18638672391E-01 -0.85389910625E-02  0.11510512747E-01  0.10204181651E+01  0.10201472567E+01 0.  0.
     999903    2    3    3    0    0 -0.59178327296E-01 -0.93648376507E-01  0.67296141418E-01  0.13114254455E+00  0.19937489744E-01 0.  0.
         14    1    1    2    0    0 -0.18638672391E-01  0.85389910625E-02 -0.11510512747E-01  0.23511834905E-01  0.00000000000E+00 0. -1.
     999901    1    3    3    0    0  0.77816999687E-01  0.85109385444E-01 -0.55785628671E-01  0.88927562055E+00  0.88000000000E+00 0.  1.
        -11    1    4    4    0    0 -0.45398656329E-01 -0.55627307322E-01  0.47680659319E-01  0.86192468989E-01  0.51100000000E-03 0. -1.
         11    1    4    4    0    0 -0.13779670967E-01 -0.38021069184E-01  0.19615482099E-01  0.44950075560E-01  0.51100000000E-03 0.  1.
</event>
<event>
 8    1  0.1054086E+005  0.1043930E+01  0.7957747E-01            NaN
         13   -1    0    0    0    0  0.00000000000E+00  0.00000000000E+00  0.74505805969E-08  0.10566000000E+00  0.10566000000E+00 0. -1.
     999900   -1    0    0    0    0 -0.00000000000E+00 -0.00000000000E+00 -0.74505805969E-08  0.93827000000E+00  0.93827000000E+00 0.  1.
     999902    2    1    2    0    0 -0.15808199364E-01  0.49604574909E-02 -0.16964662170E-01  0.10202170274E+01  0.10199414091E+01 0.  0.
     999903    2    3    3    0    0 -0.87485062422E-01 -0.90176205991E-02  0.94288890553E-01  0.13021123399E+00  0.18155355861E-01 0.  0.
         14    1    1    2    0    0  0.15808199364E-01 -0.49604574909E-02  0.16964662170E-01  0.23712972572E-01  0.00000000000E+00 0. -1.
     999901    1    3    3    0    0  0.71676863058E-01  0.13978078090E-01 -0.11125355272E+00  0.89000579344E+00  0.88000000000E+00 0. -1.
        -11    1    4    4    0    0 -0.56216666496E-01 -0.10422572572E-01  0.71184846014E-01  0.91304364813E-01  0.51100000000E-03 0.  1.
         11    1    4    4    0    0 -0.31268395926E-01  0.14049519730E-02  0.23104044540E-01  0.38906869174E-01  0.51100000000E-03 0. -1.
</event>
<event>
 8    1  0.1054086E+005  0.1043930E+01  0.7957747E-01            NaN
         13   -1    0    0    0    0  0.00000000000E+00  0.00000000000E+00  0.74505805969E-08  0.10566000000E+00  0.10566000000E+00 0. -1.
     999900   -1    0    0    0    0 -0.00000000000E+00 -0.00000000000E+00 -0.74505805969E-08  0.93827000000E+00  0.93827000000E+00 0.  1.
     999902    2    1    2    0    0  0.95220236905E-02 -0.18954803856E-01 -0.47694191920E-02  0.10221883146E+01  0.10219570684E+01 0.  0.
     999903    2    3    3    0    0  0.12787538613E+00 -0.22686185971E-01  0.24650640372E-01  0.13377006765E+00  0.20493889751E-01 0.  0.
         14    1    1    2    0    0 -0.95220236905E-02  0.18954803856E-01  0.47694191920E-02  0.21741685395E-01  0.00000000000E+00 0. -1.
     999901    1    3    3    0    0 -0.11835336244E+00  0.37313821153E-02 -0.29420059565E-01  0.88841824695E+00  0.88000000000E+00 0.  1.
        -11    1    4    4    0    0  0.78971026771E-01 -0.24008517619E-01  0.14573277750E-01  0.83818097884E-01  0.51100000000E-03 0.  1.
         11    1    4    4    0    0  0.48904359359E-01  0.13223316479E-02  0.10077362623E-01  0.49951969769E-01  0.51100000000E-03 0. -1.
</event>
<event>
 8    1  0.1054086E+005  0.1043930E+01  0.7957747E-01            NaN
         13   -1    0    0    0    0  0.00000000000E+00  0.00000000000E+00  0.74505805969E-08  0.10566000000E+00  0.10566000000E+00 0.  1.
     999900   -1    0    0    0    0 -0.00000000000E+00 -0.00000000000E+00 -0.74505805969E-08  0.93827000000E+00  0.93827000000E+00 0.  1.
     999902    2    1    2    0    0 -0.21967809558E-01 -0.70755360526E-02 -0.27419549072E-02  0.10206885245E+01  0.10204238815E+01 0.  0.
     999903    2    3    3    0    0  0.39218223870E-01 -0.81687513079E-01 -0.92921266332E-01  0.13083292608E+00  0.16491632259E-01 0.  0.
         14    1    1    2    0    0  0.21967809558E-01  0.70755360526E-02  0.27419549072E-02  0.23241475511E-01  0.00000000000E+00 0. -1.
     999901    1    3    3    0    0 -0.61186033428E-01  0.74611977027E-01  0.90179311425E-01  0.88985559840E+00  0.88000000000E+00 0. -1.
        -11    1    4    4    0    0  0.33484058600E-01 -0.55474704387E-01 -0.59523290039E-01  0.87988113886E-01  0.51100000000E-03 0. -1.
         11    1    4    4    0    0  0.57341652703E-02 -0.26212808692E-01 -0.33397976293E-01  0.42844812199E-01  0.51100000000E-03 0.  1.
</event>
<event>
 8    1  0.1054086E+005  0.1043930E+01  0.7957747E-01            NaN
         13   -1    0    0    0    0  0.00000000000E+00  0.00000000000E+00  0.74505805969E-08  0.10566000000E+00  0.10566000000E+00 0. -1.
     999900   -1    0    0    0    0 -0.00000000000E+00 -0.00000000000E+00 -0.74505805969E-08  0.93827000000E+00  0.93827000000E+00 0. -1.
     999902    2    1    2    0    0 -0.21554398704E-02 -0.23755373362E-01  0.27122868406E-02  0.10199233304E+01  0.10196407601E+01 0.  0.
     999903    2    3    3    0    0  0.11311351549E+00 -0.57953061870E-01 -0.26525583155E-01  0.13126632853E+00  0.19339536623E-01 0.  0.
         14    1    1    2    0    0  0.21554398704E-02  0.23755373362E-01 -0.27122868406E-02  0.24006669584E-01  0.00000000000E+00 0. -1.
     999901    1    3    3    0    0 -0.11526895536E+00  0.34197688509E-01  0.29237869995E-01  0.88865700189E+00  0.88000000000E+00 0.  1.
        -11    1    4    4    0    0  0.10399802411E+00 -0.53594340997E-01 -0.29618053310E-01  0.12068733409E+00  0.51100000000E-03 0.  1.
         11    1    4    4    0    0  0.91154913737E-02 -0.43587208733E-02  0.30924701558E-02  0.10578994437E-01  0.51100000000E-03 0. -1.
</event>
<event>
 8    1  0.1054086E+005  0.1043930E+01  0.7957747E-01            NaN
         13   -1    0    0    0    0  0.00000000000E+00  0.00000000000E+00  0.74505805969E-08  0.10566000000E+00  0.10566000000E+00 0.  1.
     999900   -1    0    0    0    0 -0.00000000000E+00 -0.00000000000E+00 -0.74505805969E-08  0.93827000000E+00  0.93827000000E+00 0. -1.
     999902    2    1    2    0    0  0.22981367483E-01  0.50511402242E-02  0.24659921321E-02  0.10202712091E+01  0.10199968636E+01 0.  0.
     999903    2    3    3    0    0 -0.63065758716E-01 -0.10496422579E+00 -0.33149928928E-01  0.12854480347E+00  0.20738131397E-01 0.  0.
         14    1    1    2    0    0 -0.22981367483E-01 -0.50511402242E-02 -0.24659921321E-02  0.23658790886E-01  0.00000000000E+00 0. -1.
     999901    1    3    3    0    0  0.86047126200E-01  0.11001536601E+00  0.35615921061E-01  0.89172640564E+00  0.88000000000E+00 0. -1.
        -11    1    4    4    0    0 -0.57333631932E-02 -0.42374804787E-02 -0.64051664705E-02  0.95976545482E-02  0.51100000000E-03 0.  1.
         11    1    4    4    0    0 -0.57332395523E-01 -0.10072674531E+00 -0.26744762458E-01  0.11894714892E+00  0.51100000000E-03 0. -1.
</event>
<event>
 8    1  0.1054086E+005  0.1043930E+01  0.7957747E-01            NaN
         13   -1    0    0    0    0  0.00000000000E+00  0.00000000000E+00  0.74505805969E-08  0.10566000000E+00  0.10566000000E+00 0. -1.
     999900   -1    0    0    0    0 -0.00000000000E+00 -0.00000000000E+00 -0.74505805969E-08  0.93827000000E+00  0.93827000000E+00 0.  1.
     999902    2    1    2    0    0  0.95094323220E-02  0.20257452753E-01 -0.38607580035E-02  0.10212209897E+01  0.10209684671E+01 0.  0.
     999903    2    3    3    0    0  0.12057441335E+00  0.23570298163E-01 -0.47433425719E-01  0.13316413213E+00  0.19723288259E-01 0.  0.
         14    1    1    2    0    0 -0.95094323220E-02 -0.20257452753E-01  0.38607580035E-02  0.22709010271E-01  0.00000000000E+00 0. -1.
     999901    1    3    3    0    0 -0.11106498103E+00 -0.33128454106E-02  0.43572667716E-01  0.88805685760E+00  0.88000000000E+00 0. -1.
        -11    1    4    4    0    0  0.85385774997E-01  0.11776377170E-01 -0.24803424581E-01  0.89693280813E-01  0.51100000000E-03 0.  1.
         11    1    4    4    0    0  0.35188638356E-01  0.11793920994E-01 -0.22630001139E-01  0.43470851318E-01  0.51100000000E-03 0. -1.
</event>
<event>
 8    1  0.1054086E+005  0.1043930E+01  0.7957747E-01            NaN
         13   -1    0    0    0    0  0.00000000000E+00  0.00000000000E+00  0.74505805969E-08  0.10566000000E+00  0.10566000000E+00 0.  1.
     999900   -1    0    0    0    0 -0.00000000000E+00 -0.00000000000E+00 -0.74505805969E-08  0.93827000000E+00  0.93827000000E+00 0.  1.
     999902    2    1    2    0    0 -0.18590786445E-01 -0.12678752519E-01 -0.10432105743E-01  0.10191268362E+01  0.10188249660E+01 0.  0.
     999903    2    3    3    0    0 -0.30276531080E-01 -0.99725320697E-01  0.75794238938E-01  0.13056133820E+00  0.20968749439E-01 0.  0.
         14    1    1    2    0    0  0.18590786445E-01  0.12678752519E-01  0.10432105743E-01  0.24803163837E-01  0.00000000000E+00 0.  1.
     999901    1    3    3    0    0  0.11685744635E-01  0.87046568178E-01 -0.86226344681E-01  0.88856549797E+00  0.88000000000E+00 0.  1.
        -11    1    4    4    0    0 -0.23989375614E-01 -0.68307423226E-01  0.40769404637E-01  0.83089106901E-01  0.51100000000E-03 0. -1.
         11    1    4    4    0    0 -0.62871554661E-02 -0.31417897472E-01  0.35024834301E-01  0.47472231296E-01  0.51100000000E-03 0.  1.
</event>
<event>
 8    1  0.1054086E+005  0.1043930E+01  0.7957747E-01            NaN
         13   -1    0    0    0    0  0.00000000000E+00  0.00000000000E+00  0.74505805969E-08  0.10566000000E+00  0.10566000000E+00 0.  1.
     999900   -1    0    0    0    0 -0.00000000000E+00 -0.00000000000E+00 -0.74505805969E-08  0.93827000000E+00  0.93827000000E+00 0. -1.
     999902    2    1    2    0    0  0.50470471938E-02  0.21563552133E-01  0.79872653782E-02  0.10203873605E+01  0.10201157334E+01 0.  0.
     999903    2    3    3    0    0  0.53324937455E-01 -0.49133195466E-01 -0.10468837167E+00  0.12908237119E+00  0.21094632900E-01 0.  0.
         14    1    1    2    0    0 -0.50470471938E-02 -0.21563552133E-01 -0.79872653782E-02  0.23542639491E-01  0.00000000000E+00 0.  1.
     999901    1    3    3    0    0 -0.48277890261E-01  0.70696747599E-01  0.11267563705E+00  0.89130498932E+00  0.88000000000E+00 0.  1.
        -11    1    4    4    0    0  0.23766639292E-01 -0.34897624080E-01 -0.66027767379E-01  0.78374897101E-01  0.51100000000E-03 0. -1.
         11    1    4    4    0    0  0.29558298164E-01 -0.14235571386E-01 -0.38660604289E-01  0.50707474085E-01  0.51100000000E-03 0.  1.
</event>
<event>
 8    1  0.1054086E+005  0.1043930E+01  0.7957747E-01            NaN
         13   -1    0    0    0    0  0.00000000000E+00  0.00000000000E+00  0.74505805969E-08  0.10566000000E+00  0.10566000000E+00 0.  1.
     999900   -1    0    0    0    0 -0.00000000000E+00 -0.00000000000E+00 -0.74505805969E-08  0.93827000000E+00  0.93827000000E+00 0.  1.
     999902    2    1    2    0    0 -0.12907289071E-01  0.16278262663E-01 -0.62918029427E-02  0.10222236247E+01  0.10219931370E+01 0.  0.
     999903    2    3    3    0    0 -0.11273822991E+00 -0.54834164943E-01  0.40295768241E-01  0.13250816682E+00  0.14763848059E-01 0.  0.
         14    1    1    2    0    0  0.12907289071E-01 -0.16278262663E-01  0.62918029427E-02  0.21706375348E-01  0.00000000000E+00 0.  1.
     999901    1    3    3    0    0  0.99830940835E-01  0.71112427606E-01 -0.46587571184E-01  0.88971545783E+00  0.88000000000E+00 0. -1.
        -11    1    4    4    0    0 -0.71478484556E-01 -0.40771721647E-01  0.21624535813E-01  0.85084597376E-01  0.51100000000E-03 0. -1.
         11    1    4    4    0    0 -0.41259745351E-01 -0.14062443296E-01  0.18671232428E-01  0.47423569449E-01  0.51100000000E-03 0.  1.
</event>
<event>
 8    1  0.1054086E+005  0.1043930E+01  0.7957747E-01            NaN
         13   -1    0    0    0    0  0.00000000000E+00  0.00000000000E+00  0.74505805969E-08  0.10566000000E+00  0.10566000000E+00 0. -1.
     999900   -1    0    0    0    0 -0.00000000000E+00 -0.00000000000E+00 -0.74505805969E-08  0.93827000000E+00  0.93827000000E+00 0. -1.
     999902    2    1    2    0    0  0.14250729155E-01  0.31607068541E-02 -0.18288905782E-01  0.10205300550E+01  0.10202617487E+01 0.  0.
     999903    2    3    3    0    0 -0.12482755338E+00  0.62841251489E-02 -0.28738860848E-01  0.12954087106E+00  0.18262169614E-01 0.  0.
         14    1    1    2    0    0 -0.14250729155E-01 -0.31607068541E-02  0.18288905782E-01  0.23399944956E-01  0.00000000000E+00 0. -1.
     999901    1    3    3    0    0  0.13907828254E+00 -0.31234182948E-02  0.10449955067E-01  0.89098918398E+00  0.88000000000E+00 0. -1.
        -11    1    4    4    0    0 -0.91345648766E-02  0.34417490963E-02  0.15910437696E-02  0.99034566492E-02  0.51100000000E-03 0. -1.
         11    1    4    4    0    0 -0.11569298851E+00  0.28423760527E-02 -0.30329904618E-01  0.11963741441E+00  0.51100000000E-03 0.  1.
</event>
<event>
 8    1  0.1054086E+005  0.1043930E+01  0.7957747E-01            NaN
         13   -1    0    0    0    0  0.00000000000E+00  0.00000000000E+00  0.74505805969E-08  0.10566000000E+00  0.10566000000E+00 0.  1.
     999900   -1    0    0    0    0 -0.00000000000E+00 -0.00000000000E+00 -0.74505805969E-08  0.93827000000E+00  0.93827000000E+00 0.  1.
     999902    2    1    2    0    0 -0.12911981146E-01  0.40054017579E-02 -0.20557425938E-01  0.10193257268E+01  0.10190287371E+01 0.  0.
     999903    2    3    3    0    0 -0.73944582530E-01 -0.10454999045E+00  0.88863134618E-02  0.13006975383E+00  0.20992201059E-01 0.  0.
         14    1    1    2    0    0  0.12911981146E-01 -0.40054017579E-02  0.20557425938E-01  0.24604273238E-01  0.00000000000E+00 0.  1.
     999901    1    3    3    0    0  0.61032601385E-01  0.10855539221E+00 -0.29443739400E-01  0.88925597293E+00  0.88000000000E+00 0.  1.
        -11    1    4    4    0    0 -0.43644171761E-01 -0.55095626311E-01  0.14594499376E-01  0.71788594501E-01  0.51100000000E-03 0. -1.
         11    1    4    4    0    0 -0.30300410769E-01 -0.49454364139E-01 -0.57081859138E-02  0.58281159327E-01  0.51100000000E-03 0.  1.
</event>
<event>
 8    1  0.1054086E+005  0.1043930E+01  0.7957747E-01            NaN
         13   -1    0    0    0    0  0.00000000000E+00  0.00000000000E+00  0.74505805969E-08  0.10566000000E+00  0.10566000000E+00 0. -1.
     999900   -1    0    0    0    0 -0.00000000000E+00 -0.00000000000E+00 -0.74505805969E-08  0.93827000000E+00  0.93827000000E+00 0.  1.
     999902    2    1    2    0    0 -0.12207553844E-01 -0.15879675534E-01  0.14248650513E-01  0.10193492655E+01  0.10190528507E+01 0.  0.
     999903    2    3    3    0    0  0.12985145017E-01 -0.12869736494E+00 -0.11213707582E-01  0.13142424910E+00  0.20370573852E-01 0.  0.
         14    1    1    2    0    0  0.12207553844E-01  0.15879675534E-01 -0.14248650513E-01  0.24580734475E-01  0.00000000000E+00 0. -1.
     999901    1    3    3    0    0 -0.25192698860E-01  0.11281768941E+00  0.25462358094E-01  0.88792501643E+00  0.88000000000E+00 0. -1.
        -11    1    4    4    0    0  0.68396347970E-02 -0.12036334415E+00 -0.10927646337E-01  0.12105283885E+00  0.51100000000E-03 0.  1.
         11    1    4    4    0    0  0.61455102197E-02 -0.83340207950E-02 -0.28606124442E-03  0.10371410247E-01  0.51100000000E-03 0. -1.
</event>
<event>
 8    1  0.1054086E+005  0.1043930E+01  0.7957747E-01            NaN
         13   -1    0    0    0    0  0.00000000000E+00  0.00000000000E+00  0.74505805969E-08  0.10566000000E+00  0.10566000000E+00 0. -1.
     999900   -1    0    0    0    0 -0.00000000000E+00 -0.00000000000E+00 -0.74505805969E-08  0.93827000000E+00  0.93827000000E+00 0.  1.
     999902    2    1    2    0    0  0.47912256206E-03  0.90679079200E-02  0.21982431349E-01  0.10201458919E+01  0.10198685978E+01 0.  0.
     999903    2    3    3    0    0  0.85821930665E-01 -0.37800449065E-01 -0.85292651463E-01  0.12830062434E+00  0.19797375602E-01 0.  0.
         14    1    1    2    0    0 -0.47912256206E-03 -0.90679079200E-02 -0.21982431349E-01  0.23784108150E-01  0.00000000000E+00 0.  1.
     999901    1    3    3    0    0 -0.85342808103E-01  0.46868356985E-01  0.10727508281E+00  0.89184526751E+00  0.88000000000E+00 0. -1.
        -11    1    4    4    0    0  0.12576194274E-01 -0.11031773033E-01 -0.81838838454E-02  0.18630559692E-01  0.51100000000E-03 0.  1.
         11    1    4    4    0    0  0.73245736392E-01 -0.26768676032E-01 -0.77108767618E-01  0.10967006465E+00  0.51100000000E-03 0. -1.
</event>
<event>
 8    1  0.1054086E+005  0.1043930E+01  0.7957747E-01            NaN
         13   -1    0    0    0    0  0.00000000000E+00  0.00000000000E+00  0.74505805969E-08  0.10566000000E+00  0.10566000000E+00 0. -1.
     999900   -1    0    0    0    0 -0.00000000000E+00 -0.00000000000E+00 -0.74505805969E-08  0.93827000000E+00  0.93827000000E+00 0. -1.
     999902    2    1    2    0    0  0.13924533381E-01 -0.11574306832E-01  0.14895976945E-01  0.10204833086E+01  0.10202139167E+01 0.  0.
     999903    2    3    3    0    0 -0.39763159497E-01  0.11430475662E+00 -0.38188814317E-01  0.12832530575E+00  0.19034503385E-01 0.  0.
         14    1    1    2    0    0 -0.13924533381E-01  0.11574306832E-01 -0.14895976945E-01  0.23446691402E-01  0.00000000000E+00 0.  1.
     999901    1    3    3    0    0  0.53687692878E-01 -0.12587906345E+00  0.53084791262E-01  0.89215800285E+00  0.88000000000E+00 0.  1.
        -11    1    4    4    0    0 -0.18876584137E-01  0.38515721630E-01 -0.57491779433E-02  0.43279330048E-01  0.51100000000E-03 0. -1.
         11    1    4    4    0    0 -0.20886575360E-01  0.75789034986E-01 -0.32439636374E-01  0.85045975703E-01  0.51100000000E-03 0.  1.
</event>
<event>
 8    1  0.1054086E+005  0.1043930E+01  0.7957747E-01            NaN
         13   -1    0    0    0    0  0.00000000000E+00  0.00000000000E+00  0.74505805969E-08  0.10566000000E+00  0.10566000000E+00 0.  1.
     999900   -1    0    0    0    0 -0.00000000000E+00 -0.00000000000E+00 -0.74505805969E-08  0.93827000000E+00  0.93827000000E+00 0.  1.
     999902    2    1    2    0    0  0.14052515970E-01 -0.87422626625E-02 -0.17861839758E-01  0.10195795240E+01  0.10192887030E+01 0.  0.
     999903    2    3    3    0    0  0.77414753070E-01  0.96831709400E-01  0.31943506585E-01  0.12961255316E+00  0.20238635987E-01 0.  0.
         14    1    1    2    0    0 -0.14052515970E-01  0.87422626625E-02  0.17861839758E-01  0.24350475993E-01  0.00000000000E+00 0.  1.
     999901    1    3    3    0    0 -0.63362237100E-01 -0.10557397206E+00 -0.49805346342E-01  0.88996697084E+00  0.88000000000E+00 0.  1.
        -11    1    4    4    0    0  0.40307374551E-01  0.50048600474E-01  0.61240681459E-02  0.64554722401E-01  0.51100000000E-03 0. -1.
         11    1    4    4    0    0  0.37107378519E-01  0.46783108926E-01  0.25819438439E-01  0.65057830763E-01  0.51100000000E-03 0.  1.
</event>
<event>
 8    1  0.1054086E+005  0.1043930E+01  0.7957747E-01            NaN
         13   -1    0    0    0    0  0.00000000000E+00  0.00000000000E+00  0.74505805969E-08  0.10566000000E+00  0.10566000000E+00 0. -1.
     999900   -1    0    0    0    0 -0.00000000000E+00 -0.00000000000E+00 -0.74505805969E-08  0.93827000000E+00  0.93827000000E+00 0. -1.
     999902    2    1    2    0    0  0.18668284356E-01 -0.65654513348E-03 -0.17101477568E-01  0.10186041944E+01  0.10182893049E+01 0.  0.
     999903    2    3    3    0    0 -0.10018703224E+00  0.69809315843E-01 -0.30923062606E-01  0.12771527877E+00  0.21075450698E-01 0.  0.
         14    1    1    2    0    0 -0.18668284356E-01  0.65654513348E-03  0.17101477568E-01  0.25325805561E-01  0.00000000000E+00 0. -1.
     999901    1    3    3    0    0  0.11885531660E+00 -0.70465860977E-01  0.13821585038E-01  0.89088891567E+00  0.88000000000E+00 0. -1.
        -11    1    4    4    0    0 -0.15175187179E-01  0.16033633851E-01 -0.12732605738E-01  0.25490078271E-01  0.51100000000E-03 0.  1.
         11    1    4    4    0    0 -0.85011845065E-01  0.53775681992E-01 -0.18190456868E-01  0.10222520050E+00  0.51100000000E-03 0. -1.
</event>
<event>
 8    1  0.1054086E+005  0.1043930E+01  0.7957747E-01            NaN
         13   -1    0    0    0    0  0.00000000000E+00  0.00000000000E+00  0.74505805969E-08  0.10566000000E+00  0.10566000000E+00 0. -1.
     999900   -1    0    0    0    0 -0.00000000000E+00 -0.00000000000E+00 -0.74505805969E-08  0.93827000000E+00  0.93827000000E+00 0.  1.
     999902    2    1    2    0    0  0.36388976264E-02  0.77078368408E-02  0.24555667075E-01  0.10179370565E+01  0.10176051385E+01 0.  0.
     999903    2    3    3    0    0 -0.75283438963E-01 -0.36991607232E-01 -0.91448385445E-01  0.12570182089E+00  0.20054061622E-01 0.  0.
         14    1    1    2    0    0 -0.36388976264E-02 -0.77078368408E-02 -0.24555667075E-01  0.25992943469E-01  0.00000000000E+00 0.  1.
     999901    1    3    3    0    0  0.78922336590E-01  0.44699444073E-01  0.11600405252E+00  0.89223523564E+00  0.88000000000E+00 0. -1.
        -11    1    4    4    0    0 -0.36259248849E-01 -0.22838462349E-01 -0.59451079553E-01  0.73287246302E-01  0.51100000000E-03 0. -1.
         11    1    4    4    0    0 -0.39024190115E-01 -0.14153144883E-01 -0.31997305892E-01  0.52414574591E-01  0.51100000000E-03 0.  1.
</event>
<event>
 8    1  0.1054086E+005  0.1043930E+01  0.7957747E-01            NaN
         13   -1    0    0    0    0  0.00000000000E+00  0.00000000000E+00  0.74505805969E-08  0.10566000000E+00  0.10566000000E+00 0.  1.
     999900   -1    0    0    0    0 -0.00000000000E+00 -0.00000000000E+00 -0.74505805969E-08  0.93827000000E+00  0.93827000000E+00 0. -1.
     999902    2    1    2    0    0 -0.88578503771E-02 -0.20077049570E-01 -0.82854792556E-02  0.10204736874E+01  0.10202040718E+01 0.  0.
     999903    2    3    3    0    0  0.10477203817E+00 -0.54990121061E-01 -0.52473550131E-01  0.13138243242E+00  0.22511701174E-01 0.  0.
         14    1    1    2    0    0  0.88578503771E-02  0.20077049570E-01  0.82854792556E-02  0.23456312567E-01  0.00000000000E+00 0.  1.
     999901    1    3    3    0    0 -0.11362988854E+00  0.34913071491E-01  0.44188070875E-01  0.88909125501E+00  0.88000000000E+00 0.  1.
        -11    1    4    4    0    0  0.91690929012E-01 -0.40475443718E-01 -0.48865741833E-01  0.11150609783E+00  0.51100000000E-03 0.  1.
         11    1    4    4    0    0  0.13081109154E-01 -0.14514677343E-01 -0.36078082972E-02  0.19876334591E-01  0.51100000000E-03 0. -1.
</event>
<event>
 8    1  0.1054086E+005  0.1043930E+01  0.7957747E-01            NaN
         13   -1    0    0    0    0  0.00000000000E+00  0.00000000000E+00  0.74505805969E-08  0.10566000000E+00  0.10566000000E+00 0.  1.
     999900   -1    0    0    0    0 -0.00000000000E+00 -0.00000000000E+00 -0.74505805969E-08  0.93827000000E+00  0.93827000000E+00 0.  1.
     999902    2    1    2    0    0  0.91223189695E-03  0.13767245397E-01 -0.14632020197E-01  0.10238186791E+01  0.10236211323E+01 0.  0.
     999903    2    3    3    0    0  0.70307654279E-01  0.11853860800E-01 -0.11357011930E+00  0.13555738133E+00  0.19848208164E-01 0.  0.
         14    1    1    2    0    0 -0.91223189695E-03 -0.13767245397E-01  0.14632020197E-01  0.20111320889E-01  0.00000000000E+00 0. -1.
     999901    1    3    3    0    0 -0.69395422382E-01  0.19133845972E-02  0.98938099105E-01  0.88826129779E+00  0.88000000000E+00 0. -1.
        -11    1    4    4    0    0  0.68592114079E-01  0.11050912544E-01 -0.99534125233E-01  0.12138494136E+00  0.51100000000E-03 0.  1.
         11    1    4    4    0    0  0.17155402001E-02  0.80294825601E-03 -0.14035994069E-01  0.14172439966E-01  0.51100000000E-03 0. -1.
</event>
<event>
 8    1  0.1054086E+005  0.1043930E+01  0.7957747E-01            NaN
         13   -1    0    0    0    0  0.00000000000E+00  0.00000000000E+00  0.74505805969E-08  0.10566000000E+00  0.10566000000E+00 0.  1.
     999900   -1    0    0    0    0 -0.00000000000E+00 -0.00000000000E+00 -0.74505805969E-08  0.93827000000E+00  0.93827000000E+00 0. -1.
     999902    2    1    2    0    0 -0.24115817807E-01 -0.43143916455E-03  0.33861436523E-02  0.10195737939E+01  0.10192828343E+01 0.  0.
     999903    2    3    3    0    0  0.11694975308E+00 -0.46947005908E-01 -0.10351433965E-02  0.12711497632E+00  0.16609622965E-01 0.  0.
         14    1    1    2    0    0  0.24115817807E-01  0.43143916455E-03 -0.33861436523E-02  0.24356206131E-01  0.00000000000E+00 0.  1.
     999901    1    3    3    0    0 -0.14106557088E+00  0.46515566743E-01  0.44212870488E-02  0.89245881755E+00  0.88000000000E+00 0. -1.
        -11    1    4    4    0    0  0.37367904576E-01 -0.10693353307E-01 -0.68487213339E-02  0.39469915154E-01  0.51100000000E-03 0. -1.
         11    1    4    4    0    0  0.79581848501E-01 -0.36253652601E-01  0.58135779374E-02  0.87645061168E-01  0.51100000000E-03 0.  1.
</event>
<event>
 8    1  0.1054086E+005  0.1043930E+01  0.7957747E-01            NaN
         13   -1    0    0    0    0  0.00000000000E+00  0.00000000000E+00  0.74505805969E-08  0.10566000000E+00  0.10566000000E+00 0. -1.
     999900   -1    0    0    0    0 -0.00000000000E+00 -0.00000000000E+00 -0.74505805969E-08  0.93827000000E+00  0.93827000000E+00 0. -1.
     999902    2    1    2    0    0 -0.14056941155E-01  0.17019390264E-01 -0.10950757639E-01  0.10192890517E+01  0.10189911651E+01 0.  0.
     999903    2    3    3    0    0  0.11480908153E+00  0.50048929130E-01 -0.25083236163E-01  0.12917831187E+00  0.19283335064E-01 0.  0.
         14    1    1    2    0    0  0.14056941155E-01 -0.17019390264E-01  0.10950757639E-01  0.24640948286E-01  0.00000000000E+00 0.  1.
     999901    1    3    3    0    0 -0.12886602269E+00 -0.33029538867E-01  0.14132478524E-01  0.89011073985E+00  0.88000000000E+00 0. -1.
        -11    1    4    4    0    0  0.68037389101E-01  0.19387398843E-01 -0.15692432297E-01  0.72467034588E-01  0.51100000000E-03 0.  1.
         11    1    4    4    0    0  0.46771692431E-01  0.30661530287E-01 -0.93908038663E-02  0.56711277279E-01  0.51100000000E-03 0. -1.
</event>
<event>
 8    1  0.1054086E+005  0.1043930E+01  0.7957747E-01            NaN
         13   -1    0    0    0    0  0.00000000000E+00  0.00000000000E+00  0.74505805969E-08  0.10566000000E+00  0.10566000000E+00 0.  1.
     999900   -1    0    0    0    0 -0.00000000000E+00 -0.00000000000E+00 -0.74505805969E-08  0.93827000000E+00  0.93827000000E+00 0. -1.
     999902    2    1    2    0    0 -0.15539760602E-01 -0.10019899598E-01  0.12727358405E-01  0.10214829913E+01  0.10212363259E+01 0.  0.
     999903    2    3    3    0    0  0.11103824695E+00  0.30806971048E-01  0.57463480874E-01  0.13036563314E+00  0.20361358501E-01 0.  0.
         14    1    1    2    0    0  0.15539760602E-01  0.10019899598E-01 -0.12727358405E-01  0.22447008698E-01  0.00000000000E+00 0. -1.
     999901    1    3    3    0    0 -0.12657800755E+00 -0.40826870646E-01 -0.44736122469E-01  0.89111735816E+00  0.88000000000E+00 0. -1.
        -11    1    4    4    0    0  0.71295240498E-01  0.14903822679E-01  0.45629679951E-01  0.85950358123E-01  0.51100000000E-03 0. -1.
         11    1    4    4    0    0  0.39743006448E-01  0.15903148369E-01  0.11833800923E-01  0.44415275018E-01  0.51100000000E-03 0.  1.
</event>
<event>
 8    1  0.1054086E+005  0.1043930E+01  0.7957747E-01            NaN
         13   -1    0    0    0    0  0.00000000000E+00  0.00000000000E+00  0.74505805969E-08  0.10566000000E+00  0.10566000000E+00 0.  1.
     999900   -1    0    0    0    0 -0.00000000000E+00 -0.00000000000E+00 -0.74505805969E-08  0.93827000000E+00  0.93827000000E+00 0.  1.
     999902    2    1    2    0    0  0.64370456118E-02 -0.86622402163E-02  0.21851214222E-01  0.10195590024E+01  0.10192676851E+01 0.  0.
     999903    2    3    3    0    0 -0.17305433051E-01 -0.12452980735E+00 -0.27514230160E-01  0.13027505139E+00  0.20184281520E-01 0.  0.
         14    1    1    2    0    0 -0.64370456118E-02  0.86622402163E-02 -0.21851214222E-01  0.24370997615E-01  0.00000000000E+00 0. -1.
     999901    1    3    3    0    0  0.23742478663E-01  0.11586756713E+00  0.49365444381E-01  0.88928395100E+00  0.88000000000E+00 0.  1.
        -11    1    4    4    0    0 -0.18665253791E-01 -0.94340875200E-01 -0.27592868547E-01  0.10005108669E+00  0.51100000000E-03 0.  1.
         11    1    4    4    0    0  0.13598207393E-02 -0.30188932150E-01  0.78638387667E-04  0.30223964694E-01  0.51100000000E-03 0. -1.
</event>
<event>
 8    1  0.1054086E+005  0.1043930E+01  0.7957747E-01            NaN
         13   -1    0    0    0    0  0.00000000000E+00  0.00000000000E+00  0.74505805969E-08  0.10566000000E+00  0.10566000000E+00 0.  1.
     999900   -1    0    0    0    0 -0.00000000000E+00 -0.00000000000E+00 -0.74505805969E-08  0.93827000000E+00  0.93827000000E+00 0.  1.
     999902    2    1    2    0    0  0.24279241044E-01  0.12747693106E-01 -0.39261804059E-03  0.10165048405E+01  0.10161348096E+01 0.  0.
     999903    2    3    3    0    0 -0.40878152046E-03 -0.51091264555E-01  0.11398121368E+00  0.12646760287E+00  0.19795279384E-01 0.  0.
         14    1    1    2    0    0 -0.24279241044E-01 -0.12747693106E-01  0.39261804059E-03  0.27425159510E-01  0.00000000000E+00 0.  1.
     999901    1    3    3    0    0  0.24688022565E-01  0.63838957660E-01 -0.11437383172E+00  0.89003723762E+00  0.88000000000E+00 0.  1.
        -11    1    4    4    0    0 -0.78188931339E-02 -0.89287298650E-02  0.28068460829E-01  0.30478794615E-01  0.51100000000E-03 0.  1.
         11    1    4    4    0    0  0.74101116134E-02 -0.42162534690E-01  0.85912752855E-01  0.95988808252E-01  0.51100000000E-03 0. -1.
</event>
<event>
 8    1  0.1054086E+005  0.1043930E+01  0.7957747E-01            NaN
         13   -1    0    0    0    0  0.00000000000E+00  0.00000000000E+00  0.74505805969E-08  0.10566000000E+00  0.10566000000E+00 0.  1.
     999900   -1    0    0    0    0 -0.00000000000E+00 -0.00000000000E+00 -0.74505805969E-08  0.93827000000E+00  0.93827000000E+00 0.  1.
     999902    2    1    2    0    0  0.17578947990E-01  0.13662228726E-01  0.10748230808E-01  0.10192075331E+01  0.10189076480E+01 0.  0.
     999903    2    3    3    0    0 -0.30788181973E-03 -0.91678184809E-01 -0.86180823623E-01  0.12746105395E+00  0.20351942245E-01 0.  0.
         14    1    1    2    0    0 -0.17578947990E-01 -0.13662228726E-01 -0.10748230808E-01  0.24722466942E-01  0.00000000000E+00 0. -1.
     999901    1    3    3    0    0  0.17886829810E-01  0.10534041353E+00  0.96929054431E-01  0.89174647911E+00  0.88000000000E+00 0. -1.
        -11    1    4    4    0    0 -0.84893821337E-02 -0.40729308655E-01 -0.30822681031E-01  0.51780739465E-01  0.51100000000E-03 0.  1.
         11    1    4    4    0    0  0.81815003140E-02 -0.50948876154E-01 -0.55358142592E-01  0.75680314487E-01  0.51100000000E-03 0. -1.
</event>
<event>
 8    1  0.1054086E+005  0.1043930E+01  0.7957747E-01            NaN
         13   -1    0    0    0    0  0.00000000000E+00  0.00000000000E+00  0.74505805969E-08  0.10566000000E+00  0.10566000000E+00 0. -1.
     999900   -1    0    0    0    0 -0.00000000000E+00 -0.00000000000E+00 -0.74505805969E-08  0.93827000000E+00  0.93827000000E+00 0.  1.
     999902    2    1    2    0    0  0.21294199097E-01  0.99731509183E-02 -0.66221522625E-03  0.10204067098E+01  0.10201355342E+01 0.  0.
     999903    2    3    3    0    0 -0.18392423853E-01 -0.60981274857E-01  0.11067955404E+00  0.12967299638E+00  0.22541631891E-01 0.  0.
         14    1    1    2    0    0 -0.21294199097E-01 -0.99731509183E-02  0.66221522625E-03  0.23523290234E-01  0.00000000000E+00 0. -1.
     999901    1    3    3    0    0  0.39686622951E-01  0.70954425775E-01 -0.11134176927E+00  0.89073371339E+00  0.88000000000E+00 0.  1.
        -11    1    4    4    0    0 -0.13666867396E-01 -0.59343786084E-01  0.92010042710E-01  0.11033846696E+00  0.51100000000E-03 0. -1.
         11    1    4    4    0    0 -0.47255564575E-02 -0.16374887728E-02  0.18669511335E-01  0.19334529417E-01  0.51100000000E-03 0.  1.
</event>
<event>
 8    1  0.1054086E+005  0.1043930E+01  0.7957747E-01            NaN
         13   -1    0    0    0    0  0.00000000000E+00  0.00000000000E+00  0.74505805969E-08  0.10566000000E+00  0.10566000000E+00 0.  1.
     999900   -1    0    0    0    0 -0.00000000000E+00 -0.00000000000E+00 -0.74505805969E-08  0.93827000000E+00  0.93827000000E+00 0.  1.
     999902    2    1    2    0    0  0.57373604719E-02  0.15883936108E-02  0.14430900085E-01  0.10283193890E+01  0.10282008921E+01 0.  0.
     999903    2    3    3    0    0 -0.72158272804E-01 -0.10738968707E+00  0.42148349288E-01  0.13775091393E+00  0.21435244714E-01 0.  0.
         14    1    1    2    0    0 -0.57373604719E-02 -0.15883936108E-02 -0.14430900085E-01  0.15610611030E-01  0.00000000000E+00 0. -1.
     999901    1    3    3    0    0  0.77895633276E-01  0.10897808068E+00 -0.27717449203E-01  0.89056847504E+00  0.88000000000E+00 0. -1.
        -11    1    4    4    0    0 -0.37353053189E-01 -0.62264528575E-01  0.34012064703E-01  0.80182315803E-01  0.51100000000E-03 0.  1.
         11    1    4    4    0    0 -0.34805219615E-01 -0.45125158499E-01  0.81362845849E-02  0.57568598123E-01  0.51100000000E-03 0. -1.
</event>
<event>
 8    1  0.1054086E+005  0.1043930E+01  0.7957747E-01            NaN
         13   -1    0    0    0    0  0.00000000000E+00  0.00000000000E+00  0.74505805969E-08  0.10566000000E+00  0.10566000000E+00 0.  1.
     999900   -1    0    0    0    0 -0.00000000000E+00 -0.00000000000E+00 -0.74505805969E-08  0.93827000000E+00  0.93827000000E+00 0. -1.
     999902    2    1    2    0    0  0.16305230213E-01  0.64840453338E-02  0.15750938396E-01  0.10203504445E+01  0.10200779550E+01 0.  0.
     999903    2    3    3    0    0  0.66400517737E-01 -0.68475761258E-01 -0.85977905620E-01  0.12991388410E+00  0.19683962780E-01 0.  0.
         14    1    1    2    0    0 -0.16305230213E-01 -0.64840453338E-02 -0.15750938396E-01  0.23579555478E-01  0.00000000000E+00 0. -1.
     999901    1    3    3    0    0 -0.50095287524E-01  0.74959806591E-01  0.10172884402E+00  0.89043656042E+00  0.88000000000E+00 0.  1.
        -11    1    4    4    0    0  0.35602650524E-01 -0.49585554468E-01 -0.49795304279E-01  0.78778863825E-01  0.51100000000E-03 0. -1.
         11    1    4    4    0    0  0.30797867213E-01 -0.18890206789E-01 -0.36182601341E-01  0.51135020272E-01  0.51100000000E-03 0.  1.
</event>
<event>
 8    1  0.1054086E+005  0.1043930E+01  0.7957747E-01            NaN
         13   -1    0    0    0    0  0.00000000000E+00  0.00000000000E+00  0.74505805969E-08  0.10566000000E+00  0.10566000000E+00 0.  1.
     999900   -1    0    0    0    0 -0.00000000000E+00 -0.00000000000E+00 -0.74505805969E-08  0.93827000000E+00  0.93827000000E+00 0. -1.
     999902    2    1    2    0    0  0.64630308944E-02  0.11163273870E-01 -0.20764488231E-01  0.10194850941E+01  0.10191919857E+01 0.  0.
     999903    2    3    3    0    0  0.63594090602E-01 -0.87490635681E-01 -0.70511982936E-01  0.13073801813E+00  0.20534603875E-01 0.  0.
         14    1    1    2    0    0 -0.64630308944E-02 -0.11163273870E-01  0.20764488231E-01  0.24444905877E-01  0.00000000000E+00 0.  1.
     999901    1    3    3    0    0 -0.57131059707E-01  0.98653909551E-01  0.49747494705E-01  0.88874707599E+00  0.88000000000E+00 0.  1.
        -11    1    4    4    0    0  0.44834941248E-01 -0.70758372106E-01 -0.61915355819E-01  0.10416665295E+00  0.51100000000E-03 0. -1.
         11    1    4    4    0    0  0.18759149354E-01 -0.16732263575E-01 -0.85966271172E-02  0.26571365181E-01  0.51100000000E-03 0.  1.
</event>
<event>
 8    1  0.1054086E+005  0.1043930E+01  0.7957747E-01            NaN
         13   -1    0    0    0    0  0.00000000000E+00  0.00000000000E+00  0.74505805969E-08  0.10566000000E+00  0.10566000000E+00 0. -1.
     999900   -1    0    0    0    0 -0.00000000000E+00 -0.00000000000E+00 -0.74505805969E-08  0.93827000000E+00  0.93827000000E+00 0.  1.
     999902    2    1    2    0    0  0.60332527146E-02  0.10792092975E-01  0.19864430613E-01  0.10205320297E+01  0.10202637692E+01 0.  0.
     999903    2    3    3    0    0 -0.43219545927E-01  0.35335029092E-01  0.11934795393E+00  0.13321857593E+00  0.19666251130E-01 0.  0.
         14    1    1    2    0    0 -0.60332527146E-02 -0.10792092975E-01 -0.19864430613E-01  0.23397970268E-01  0.00000000000E+00 0.  1.
     999901    1    3    3    0    0  0.49252798642E-01 -0.24542936117E-01 -0.99483523320E-01  0.88731345380E+00  0.88000000000E+00 0.  1.
        -11    1    4    4    0    0 -0.40596712372E-01  0.34669843941E-01  0.97175174129E-01  0.11087545591E+00  0.51100000000E-03 0. -1.
         11    1    4    4    0    0 -0.26228335553E-02  0.66518515072E-03  0.22172779803E-01  0.22343120023E-01  0.51100000000E-03 0.  1.
</event>
<event>
 8    1  0.1054086E+005  0.1043930E+01  0.7957747E-01            NaN
         13   -1    0    0    0    0  0.00000000000E+00  0.00000000000E+00  0.74505805969E-08  0.10566000000E+00  0.10566000000E+00 0.  1.
     999900   -1    0    0    0    0 -0.00000000000E+00 -0.00000000000E+00 -0.74505805969E-08  0.93827000000E+00  0.93827000000E+00 0.  1.
     999902    2    1    2    0    0 -0.14289782283E-01  0.19433225047E-01  0.60953538027E-03  0.10198007719E+01  0.10195152744E+01 0.  0.
     999903    2    3    3    0    0 -0.20018636441E-01  0.27607128376E-01  0.12514313466E+00  0.13097668934E+00  0.18198616869E-01 0.  0.
         14    1    1    2    0    0  0.14289782283E-01 -0.19433225047E-01 -0.60953538027E-03  0.24129228061E-01  0.00000000000E+00 0.  1.
     999901    1    3    3    0    0  0.57288541582E-02 -0.81739033295E-02 -0.12453359928E+00  0.88882408260E+00  0.88000000000E+00 0.  1.
        -11    1    4    4    0    0 -0.19527405725E-01  0.12774046324E-01  0.86013663823E-01  0.89124111884E-01  0.51100000000E-03 0.  1.
         11    1    4    4    0    0 -0.49123071644E-03  0.14833082052E-01  0.39129470833E-01  0.41852577453E-01  0.51100000000E-03 0. -1.
</event>
<event>
 8    1  0.1054086E+005  0.1043930E+01  0.7957747E-01            NaN
         13   -1    0    0    0    0  0.00000000000E+00  0.00000000000E+00  0.74505805969E-08  0.10566000000E+00  0.10566000000E+00 0.  1.
     999900   -1    0    0    0    0 -0.00000000000E+00 -0.00000000000E+00 -0.74505805969E-08  0.93827000000E+00  0.93827000000E+00 0.  1.
     999902    2    1    2    0    0  0.21633093312E-01 -0.80061804079E-02 -0.46369366186E-02  0.10204014890E+01  0.10201301916E+01 0.  0.
     999903    2    3    3    0    0  0.36020133533E-01 -0.95007528514E-01 -0.84652883116E-01  0.13238190967E+00  0.59142956576E-02 0.  0.
         14    1    1    2    0    0 -0.21633093312E-01  0.80061804079E-02  0.46369366186E-02  0.23528511049E-01  0.00000000000E+00 0.  1.
     999901    1    3    3    0    0 -0.14387040221E-01  0.87001348106E-01  0.80015946497E-01  0.88801957928E+00  0.88000000000E+00 0. -1.
        -11    1    4    4    0    0  0.30994480393E-01 -0.75365942590E-01 -0.68340916487E-01  0.10635518372E+00  0.51100000000E-03 0.  1.
         11    1    4    4    0    0  0.50256531403E-02 -0.19641585924E-01 -0.16311966629E-01  0.26026725944E-01  0.51100000000E-03 0. -1.
</event>
<event>
 8    1  0.1054086E+005  0.1043930E+01  0.7957747E-01            NaN
         13   -1    0    0    0    0  0.00000000000E+00  0.00000000000E+00  0.74505805969E-08  0.10566000000E+00  0.10566000000E+00 0.  1.
     999900   -1    0    0    0    0 -0.00000000000E+00 -0.00000000000E+00 -0.74505805969E-08  0.93827000000E+00  0.93827000000E+00 0.  1.
     999902    2    1    2    0    0 -0.18116727456E-01 -0.10397846117E-01 -0.11565584705E-01  0.10200533636E+01  0.10197738822E+01 0.  0.
     999903    2    3    3    0    0 -0.70631856774E-01 -0.89059414287E-01  0.63528769297E-01  0.13180528836E+00  0.20403211676E-01 0.  0.
         14    1    1    2    0    0  0.18116727456E-01  0.10397846117E-01  0.11565584705E-01  0.23876636429E-01  0.00000000000E+00 0. -1.
     999901    1    3    3    0    0  0.52515129318E-01  0.78661568171E-01 -0.75094354002E-01  0.88824807521E+00  0.88000000000E+00 0.  1.
        -11    1    4    4    0    0 -0.83802502229E-02 -0.20037673319E-01  0.18445801140E-01  0.28499923624E-01  0.51100000000E-03 0.  1.
         11    1    4    4    0    0 -0.62251606551E-01 -0.69021740968E-01  0.45082968157E-01  0.10330536474E+00  0.51100000000E-03 0. -1.
</event>
<event>
 8    1  0.1054086E+005  0.1043930E+01  0.7957747E-01            NaN
         13   -1    0    0    0    0  0.00000000000E+00  0.00000000000E+00  0.74505805969E-08  0.10566000000E+00  0.10566000000E+00 0.  1.
     999900   -1    0    0    0    0 -0.00000000000E+00 -0.00000000000E+00 -0.74505805969E-08  0.93827000000E+00  0.93827000000E+00 0.  1.
     999902    2    1    2    0    0  0.13744656972E-01 -0.11906937303E-01 -0.15763874939E-01  0.10198636229E+01  0.10195796285E+01 0.  0.
     999903    2    3    3    0    0  0.71244571088E-01 -0.10676031875E+00  0.23169144853E-01  0.13204653361E+00  0.20637906761E-01 0.  0.
         14    1    1    2    0    0 -0.13744656972E-01  0.11906937303E-01  0.15763874939E-01  0.24066377050E-01  0.00000000000E+00 0.  1.
     999901    1    3    3    0    0 -0.57499914117E-01  0.94853381448E-01 -0.38933019792E-01  0.88781708934E+00  0.88000000000E+00 0.  1.
        -11    1    4    4    0    0  0.60366271417E-01 -0.10077082055E+00  0.19414867252E-01  0.11906318990E+00  0.51100000000E-03 0.  1.
         11    1    4    4    0    0  0.10878299671E-01 -0.59894982040E-02  0.37542776006E-02  0.12983343705E-01  0.51100000000E-03 0. -1.
</event>
<event>
 8    1  0.1054086E+005  0.1043930E+01  0.7957747E-01            NaN
         13   -1    0    0    0    0  0.00000000000E+00  0.00000000000E+00  0.74505805969E-08  0.10566000000E+00  0.10566000000E+00 0.  1.
     999900   -1    0    0    0    0 -0.00000000000E+00 -0.00000000000E+00 -0.74505805969E-08  0.93827000000E+00  0.93827000000E+00 0. -1.
     999902    2    1    2    0    0  0.82553611839E-02  0.11294400815E-01  0.17991651638E-01  0.10211393439E+01  0.10208849816E+01 0.  0.
     999903    2    3    3    0    0  0.11503946091E+00  0.72495313028E-02  0.64102519837E-01  0.13347644779E+00  0.20498677849E-01 0.  0.
         14    1    1    2    0    0 -0.82553611839E-02 -0.11294400815E-01 -0.17991651638E-01  0.22790656127E-01  0.00000000000E+00 0. -1.
     999901    1    3    3    0    0 -0.10678409973E+00  0.40448695119E-02 -0.46110868198E-01  0.88766289609E+00  0.88000000000E+00 0.  1.
        -11    1    4    4    0    0  0.81345908966E-01 -0.27067241471E-02  0.38740257542E-01  0.90141843428E-01  0.51100000000E-03 0.  1.
         11    1    4    4    0    0  0.33693551944E-01  0.99562554500E-02  0.25362262294E-01  0.43334604358E-01  0.51100000000E-03 0. -1.
</event>
<event>
 8    1  0.1054086E+005  0.1043930E+01  0.7957747E-01            NaN
         13   -1    0    0    0    0  0.00000000000E+00  0.00000000000E+00  0.74505805969E-08  0.10566000000E+00  0.10566000000E+00 0. -1.
     999900   -1    0    0    0    0 -0.00000000000E+00 -0.00000000000E+00 -0.74505805969E-08  0.93827000000E+00  0.93827000000E+00 0. -1.
     999902    2    1    2    0    0  0.12120787385E-01 -0.14541622558E-01  0.14476857843E-01  0.10200982630E+01  0.10198198442E+01 0.  0.
     999903    2    3    3    0    0  0.16475800712E-01 -0.78304443084E-01 -0.10080005270E+00  0.13028174851E+00  0.20239702439E-01 0.  0.
         14    1    1    2    0    0 -0.12120787385E-01  0.14541622558E-01 -0.14476857843E-01  0.23831736958E-01  0.00000000000E+00 0.  1.
     999901    1    3    3    0    0 -0.43550133269E-02  0.63762820526E-01  0.11527691055E+00  0.88981651453E+00  0.88000000000E+00 0.  1.
        -11    1    4    4    0    0 -0.43966155622E-02 -0.17487907051E-01 -0.25963987865E-01  0.31615611781E-01  0.51100000000E-03 0.  1.
         11    1    4    4    0    0  0.20872416274E-01 -0.60816536033E-01 -0.74836064839E-01  0.98666136733E-01  0.51100000000E-03 0. -1.
</event>
<event>
 8    1  0.1054086E+005  0.1043930E+01  0.7957747E-01            NaN
         13   -1    0    0    0    0  0.00000000000E+00  0.00000000000E+00  0.74505805969E-08  0.10566000000E+00  0.10566000000E+00 0.  1.
     999900   -1    0    0    0    0 -0.00000000000E+00 -0.00000000000E+00 -0.74505805969E-08  0.93827000000E+00  0.93827000000E+00 0.  1.
     999902    2    1    2    0    0 -0.39982577654E-02 -0.10269613808E-01  0.21168479685E-01  0.10200646367E+01  0.10197854223E+01 0.  0.
     999903    2    3    3    0    0  0.98818782988E-01 -0.19581431537E-01 -0.77462996444E-01  0.12855680057E+00  0.19435812854E-01 0.  0.
         14    1    1    2    0    0  0.39982577654E-02  0.10269613808E-01 -0.21168479685E-01  0.23865363293E-01  0.00000000000E+00 0. -1.
     999901    1    3    3    0    0 -0.10281704075E+00  0.93118177294E-02  0.98631476129E-01  0.89150783614E+00  0.88000000000E+00 0. -1.
        -11    1    4    4    0    0  0.59372276125E-01 -0.34907922602E-02 -0.38719054015E-01  0.70969564376E-01  0.51100000000E-03 0.  1.
         11    1    4    4    0    0  0.39446506863E-01 -0.16090639277E-01 -0.38743942429E-01  0.57587236190E-01  0.51100000000E-03 0. -1.
</event>
<event>
 8    1  0.1054086E+005  0.1043930E+01  0.7957747E-01            NaN
         13   -1    0    0    0    0  0.00000000000E+00  0.00000000000E+00  0.74505805969E-08  0.10566000000E+00  0.10566000000E+00 0. -1.
     999900   -1    0    0    0    0 -0.00000000000E+00 -0.00000000000E+00 -0.74505805969E-08  0.93827000000E+00  0.93827000000E+00 0. -1.
     999902    2    1    2    0    0  0.50354627411E-02 -0.19503601642E-01 -0.10647658657E-01  0.10211458170E+01  0.10208916008E+01 0.  0.
     999903    2    3    3    0    0  0.11658781639E+00  0.55844256750E-01 -0.23680141850E-02  0.13087070224E+00  0.20254216172E-01 0.  0.
         14    1    1    2    0    0 -0.50354627411E-02  0.19503601642E-01  0.10647658657E-01  0.22784183042E-01  0.00000000000E+00 0. -1.
     999901    1    3    3    0    0 -0.11155235365E+00 -0.75347858391E-01 -0.82796444718E-02  0.89027511471E+00  0.88000000000E+00 0.  1.
        -11    1    4    4    0    0  0.60942870932E-01  0.39512945788E-01  0.24692910426E-02  0.72675063959E-01  0.51100000000E-03 0. -1.
         11    1    4    4    0    0  0.55644945455E-01  0.16331310962E-01 -0.48373052276E-02  0.58195638284E-01  0.51100000000E-03 0.  1.
</event>
<event>
 8    1  0.1054086E+005  0.1043930E+01  0.7957747E-01            NaN
         13   -1    0    0    0    0  0.00000000000E+00  0.00000000000E+00  0.74505805969E-08  0.10566000000E+00  0.10566000000E+00 0.  1.
     999900   -1    0    0    0    0 -0.00000000000E+00 -0.00000000000E+00 -0.74505805969E-08  0.93827000000E+00  0.93827000000E+00 0.  1.
     999902    2    1    2    0    0 -0.16699320315E-01 -0.15496869584E-01  0.81498160920E-02  0.10197341374E+01  0.10194470419E+01 0.  0.
     999903    2    3    3    0    0 -0.11510907055E+00 -0.12133268958E-01  0.61664467992E-01  0.13262669703E+00  0.19748919319E-01 0.  0.
         14    1    1    2    0    0  0.16699320315E-01  0.15496869584E-01 -0.81498160920E-02  0.24195862626E-01  0.00000000000E+00 0.  1.
     999901    1    3    3    0    0  0.98409750231E-01 -0.33636006264E-02 -0.53514651900E-01  0.88710744035E+00  0.88000000000E+00 0.  1.
        -11    1    4    4    0    0 -0.25132431905E-01  0.42904664873E-02  0.87607662188E-02  0.26964038679E-01  0.51100000000E-03 0.  1.
         11    1    4    4    0    0 -0.89976638640E-01 -0.16423735445E-01  0.52903701773E-01  0.10566265835E+00  0.51100000000E-03 0. -1.
</event>
<event>
 8    1  0.1054086E+005  0.1043930E+01  0.7957747E-01            NaN
         13   -1    0    0    0    0  0.00000000000E+00  0.00000000000E+00  0.74505805969E-08  0.10566000000E+00  0.10566000000E+00 0. -1.
     999900   -1    0    0    0    0 -0.00000000000E+00 -0.00000000000E+00 -0.74505805969E-08  0.93827000000E+00  0.93827000000E+00 0.  1.
     999902    2    1    2    0    0 -0.14515951031E-01  0.18721761985E-02 -0.19423001313E-01  0.10196098261E+01  0.10193197372E+01 0.  0.
     999903    2    3    3    0    0  0.72545187512E-01  0.45637636575E-01 -0.96794844215E-01  0.13085707115E+00  0.20217148689E-01 0.  0.
         14    1    1    2    0    0  0.14515951031E-01 -0.18721761985E-02  0.19423001313E-01  0.24320173890E-01  0.00000000000E+00 0. -1.
     999901    1    3    3    0    0 -0.87061138544E-01 -0.43765460376E-01  0.77371842902E-01  0.88875275496E+00  0.88000000000E+00 0. -1.
        -11    1    4    4    0    0  0.58493169840E-01  0.39141784871E-01 -0.66489161198E-01  0.96822517622E-01  0.51100000000E-03 0.  1.
         11    1    4    4    0    0  0.14052017672E-01  0.64958517036E-02 -0.30305683017E-01  0.34034553532E-01  0.51100000000E-03 0. -1.
</event>
<event>
 8    1  0.1054086E+005  0.1043930E+01  0.7957747E-01            NaN
         13   -1    0    0    0    0  0.00000000000E+00  0.00000000000E+00  0.74505805969E-08  0.10566000000E+00  0.10566000000E+00 0. -1.
     999900   -1    0    0    0    0 -0.00000000000E+00 -0.00000000000E+00 -0.74505805969E-08  0.93827000000E+00  0.93827000000E+00 0.  1.
     999902    2    1    2    0    0  0.14834177816E-01 -0.66503840253E-02  0.17668314611E-01  0.10199206314E+01  0.10196379968E+01 0.  0.
     999903    2    3    3    0    0  0.10514014420E+00  0.66236337544E-01 -0.35653394720E-01  0.13070139723E+00  0.19235081169E-01 0.  0.
         14    1    1    2    0    0 -0.14834177816E-01  0.66503840253E-02 -0.17668314611E-01  0.24009368596E-01  0.00000000000E+00 0.  1.
     999901    1    3    3    0    0 -0.90305966386E-01 -0.72886721569E-01  0.53321709332E-01  0.88921923418E+00  0.88000000000E+00 0. -1.
        -11    1    4    4    0    0  0.11714367742E-01  0.60888857406E-02 -0.10245755645E-01  0.16719377108E-01  0.51100000000E-03 0. -1.
         11    1    4    4    0    0  0.93425776461E-01  0.60147451804E-01 -0.25407639075E-01  0.11398202012E+00  0.51100000000E-03 0.  1.
</event>
<event>
 8    1  0.1054086E+005  0.1043930E+01  0.7957747E-01            NaN
         13   -1    0    0    0    0  0.00000000000E+00  0.00000000000E+00  0.74505805969E-08  0.10566000000E+00  0.10566000000E+00 0.  1.
     999900   -1    0    0    0    0 -0.00000000000E+00 -0.00000000000E+00 -0.74505805969E-08  0.93827000000E+00  0.93827000000E+00 0.  1.
     999902    2    1    2    0    0  0.17207184651E-01 -0.17623575544E-01 -0.51109126456E-02  0.10187745027E+01  0.10184638866E+01 0.  0.
     999903    2    3    3    0    0 -0.77061037559E-01 -0.40673054151E-01 -0.93111622185E-01  0.12907685679E+00  0.19958956105E-01 0.  0.
         14    1    1    2    0    0 -0.17207184651E-01  0.17623575544E-01  0.51109126456E-02  0.25155497344E-01  0.00000000000E+00 0.  1.
     999901    1    3    3    0    0  0.94268222210E-01  0.23049478607E-01  0.88000709539E-01  0.88969764587E+00  0.88000000000E+00 0. -1.
        -11    1    4    4    0    0 -0.48603932779E-02 -0.93168134950E-02 -0.13553854678E-01  0.17157929192E-01  0.51100000000E-03 0.  1.
         11    1    4    4    0    0 -0.72200644281E-01 -0.31356240656E-01 -0.79557767507E-01  0.11191892760E+00  0.51100000000E-03 0. -1.
</event>
<event>
 8    1  0.1054086E+005  0.1043930E+01  0.7957747E-01            NaN
         13   -1    0    0    0    0  0.00000000000E+00  0.00000000000E+00  0.74505805969E-08  0.10566000000E+00  0.10566000000E+00 0. -1.
     999900   -1    0    0    0    0 -0.00000000000E+00 -0.00000000000E+00 -0.74505805969E-08  0.93827000000E+00  0.93827000000E+00 0.  1.
     999902    2    1    2    0    0 -0.19920563996E-01  0.11664320132E-01 -0.81893240929E-03  0.10208311714E+01  0.10205698039E+01 0.  0.
     999903    2    3    3    0    0 -0.11436341867E+00 -0.36809178389E-01  0.52691638618E-01  0.13283763869E+00  0.20869171715E-01 0.  0.
         14    1    1    2    0    0  0.19920563996E-01 -0.11664320132E-01  0.81893240929E-03  0.23098828636E-01  0.00000000000E+00 0. -1.
     999901    1    3    3    0    0  0.94442854678E-01  0.48473498521E-01 -0.53510571028E-01  0.88799353267E+00  0.88000000000E+00 0.  1.
        -11    1    4    4    0    0 -0.31734666490E-01 -0.42068695103E-02  0.22037231077E-01  0.38867563377E-01  0.51100000000E-03 0. -1.
         11    1    4    4    0    0 -0.82628752184E-01 -0.32602308879E-01  0.30654407541E-01  0.93970075314E-01  0.51100000000E-03 0.  1.
</event>
<event>
 8    1  0.1054086E+005  0.1043930E+01  0.7957747E-01            NaN
         13   -1    0    0    0    0  0.00000000000E+00  0.00000000000E+00  0.74505805969E-08  0.10566000000E+00  0.10566000000E+00 0.  1.
     999900   -1    0    0    0    0 -0.00000000000E+00 -0.00000000000E+00 -0.74505805969E-08  0.93827000000E+00  0.93827000000E+00 0. -1.
     999902    2    1    2    0    0 -0.12227644938E-01  0.18799995725E-01 -0.31914958431E-02  0.10212773890E+01  0.10210261331E+01 0.  0.
     999903    2    3    3    0    0 -0.75011182370E-01  0.10273607206E+00 -0.38120174272E-01  0.13436868452E+00  0.20504090101E-01 0.  0.
         14    1    1    2    0    0  0.12227644938E-01 -0.18799995725E-01  0.31914958431E-02  0.22652611012E-01  0.00000000000E+00 0.  1.
     999901    1    3    3    0    0  0.62783537432E-01 -0.83936076333E-01  0.34928678429E-01  0.88690870447E+00  0.88000000000E+00 0. -1.
        -11    1    4    4    0    0 -0.22214121724E-01  0.28252704935E-01 -0.14274744322E-02  0.35971952190E-01  0.51100000000E-03 0.  1.
         11    1    4    4    0    0 -0.52797060646E-01  0.74483367123E-01 -0.36692699840E-01  0.98396732330E-01  0.51100000000E-03 0. -1.
</event>
<event>
 8    1  0.1054086E+005  0.1043930E+01  0.7957747E-01            NaN
         13   -1    0    0    0    0  0.00000000000E+00  0.00000000000E+00  0.74505805969E-08  0.10566000000E+00  0.10566000000E+00 0. -1.
     999900   -1    0    0    0    0 -0.00000000000E+00 -0.00000000000E+00 -0.74505805969E-08  0.93827000000E+00  0.93827000000E+00 0. -1.
     999902    2    1    2    0    0  0.82477725941E-02 -0.10073130573E-01  0.18644412214E-01  0.10211899952E+01  0.10209367749E+01 0.  0.
     999903    2    3    3    0    0  0.43190952088E-02  0.68049788142E-01 -0.10886347952E+00  0.12856639736E+00  0.53509913689E-02 0.  0.
         14    1    1    2    0    0 -0.82477725941E-02  0.10073130573E-01 -0.18644412214E-01  0.22740004818E-01  0.00000000000E+00 0.  1.
     999901    1    3    3    0    0  0.39286773853E-02 -0.78122918714E-01  0.12750789173E+00  0.89262359782E+00  0.88000000000E+00 0.  1.
        -11    1    4    4    0    0  0.42359240624E-02  0.30250855433E-01 -0.46381486342E-01  0.55538821588E-01  0.51100000000E-03 0.  1.
         11    1    4    4    0    0  0.83171146408E-04  0.37798932708E-01 -0.62481993174E-01  0.73027575773E-01  0.51100000000E-03 0. -1.
</event>
<event>
 8    1  0.1054086E+005  0.1043930E+01  0.7957747E-01            NaN
         13   -1    0    0    0    0  0.00000000000E+00  0.00000000000E+00  0.74505805969E-08  0.10566000000E+00  0.10566000000E+00 0.  1.
     999900   -1    0    0    0    0 -0.00000000000E+00 -0.00000000000E+00 -0.74505805969E-08  0.93827000000E+00  0.93827000000E+00 0.  1.
     999902    2    1    2    0    0  0.54261444113E-02 -0.16894534026E-01  0.16351482577E-01  0.10198003646E+01  0.10195148573E+01 0.  0.
     999903    2    3    3    0    0  0.53208263157E-01  0.12714481828E-01 -0.11438416736E+00  0.12836801445E+00  0.20045749513E-01 0.  0.
         14    1    1    2    0    0 -0.54261444113E-02  0.16894534026E-01 -0.16351482577E-01  0.24129635422E-01  0.00000000000E+00 0. -1.
     999901    1    3    3    0    0 -0.47782118746E-01 -0.29609015854E-01  0.13073564994E+00  0.89143235013E+00  0.88000000000E+00 0. -1.
        -11    1    4    4    0    0  0.10536390732E-01  0.47964127778E-02 -0.45481049718E-01  0.46934082601E-01  0.51100000000E-03 0.  1.
         11    1    4    4    0    0  0.42671872425E-01  0.79180690501E-02 -0.68903117646E-01  0.81433931847E-01  0.51100000000E-03 0. -1.
</event>
<event>
 8    1  0.1054086E+005  0.1043930E+01  0.7957747E-01            NaN
         13   -1    0    0    0    0  0.00000000000E+00  0.00000000000E+00  0.74505805969E-08  0.10566000000E+00  0.10566000000E+00 0. -1.
     999900   -1    0    0    0    0 -0.00000000000E+00 -0.00000000000E+00 -0.74505805969E-08  0.93827000000E+00  0.93827000000E+00 0.  1.
     999902    2    1    2    0    0  0.17435943656E-01 -0.35549955916E-02 -0.16040194522E-01  0.10199729976E+01  0.10196916092E+01 0.  0.
     999903    2    3    3    0    0  0.87409416860E-01  0.74087714477E-01 -0.63302600521E-01  0.13252811906E+00  0.20666095842E-01 0.  0.
         14    1    1    2    0    0 -0.17435943656E-01  0.35549955916E-02  0.16040194522E-01  0.23957002424E-01  0.00000000000E+00 0. -1.
     999901    1    3    3    0    0 -0.69973473204E-01 -0.77642710068E-01  0.47262405999E-01  0.88744487851E+00  0.88000000000E+00 0. -1.
        -11    1    4    4    0    0  0.59477261408E-01  0.40395918868E-01 -0.31892163600E-01  0.78655871401E-01  0.51100000000E-03 0. -1.
         11    1    4    4    0    0  0.27932155453E-01  0.33691795608E-01 -0.31410436921E-01  0.53872247662E-01  0.51100000000E-03 0.  1.
</event>
<event>
 8    1  0.1054086E+005  0.1043930E+01  0.7957747E-01            NaN
         13   -1    0    0    0    0  0.00000000000E+00  0.00000000000E+00  0.74505805969E-08  0.10566000000E+00  0.10566000000E+00 0. -1.
     999900   -1    0    0    0    0 -0.00000000000E+00 -0.00000000000E+00 -0.74505805969E-08  0.93827000000E+00  0.93827000000E+00 0. -1.
     999902    2    1    2    0    0  0.20594009915E-01  0.80205888795E-02 -0.12094340179E-01  0.10187364263E+01  0.10184248574E+01 0.  0.
     999903    2    3    3    0    0  0.86499725678E-01 -0.86026921658E-01  0.39389848846E-01  0.12978247964E+00  0.20226172055E-01 0.  0.
         14    1    1    2    0    0 -0.20594009915E-01 -0.80205888795E-02  0.12094340179E-01  0.25193573679E-01  0.00000000000E+00 0.  1.
     999901    1    3    3    0    0 -0.65905715763E-01  0.94047510537E-01 -0.51484189025E-01  0.88895394669E+00  0.88000000000E+00 0. -1.
        -11    1    4    4    0    0  0.47016370492E-01 -0.32744729393E-01  0.19986701967E-01  0.60683488478E-01  0.51100000000E-03 0.  1.
         11    1    4    4    0    0  0.39483355185E-01 -0.53282192264E-01  0.19403146879E-01  0.69098991157E-01  0.51100000000E-03 0. -1.
</event>
<event>
 8    1  0.1054086E+005  0.1043930E+01  0.7957747E-01            NaN
         13   -1    0    0    0    0  0.00000000000E+00  0.00000000000E+00  0.74505805969E-08  0.10566000000E+00  0.10566000000E+00 0. -1.
     999900   -1    0    0    0    0 -0.00000000000E+00 -0.00000000000E+00 -0.74505805969E-08  0.93827000000E+00  0.93827000000E+00 0.  1.
     999902    2    1    2    0    0 -0.95774012086E-02  0.53568883770E-02 -0.21052294276E-01  0.10201892763E+01  0.10199130049E+01 0.  0.
     999903    2    3    3    0    0  0.64192994780E-01 -0.61151168761E-01 -0.95178528788E-01  0.13150480383E+00  0.19348257501E-01 0.  0.
         14    1    1    2    0    0  0.95774012086E-02 -0.53568883770E-02  0.21052294276E-01  0.23740723689E-01  0.00000000000E+00 0. -1.
     999901    1    3    3    0    0 -0.73770395988E-01  0.66508057138E-01  0.74126234512E-01  0.88868447248E+00  0.88000000000E+00 0. -1.
        -11    1    4    4    0    0  0.38474580201E-01 -0.48356670046E-01 -0.69124709068E-01  0.92720803406E-01  0.51100000000E-03 0.  1.
         11    1    4    4    0    0  0.25718414579E-01 -0.12794498715E-01 -0.26053819720E-01  0.38784000423E-01  0.51100000000E-03 0. -1.
</event>
<event>
 8    1  0.1054086E+005  0.1043930E+01  0.7957747E-01            NaN
         13   -1    0    0    0    0  0.00000000000E+00  0.00000000000E+00  0.74505805969E-08  0.10566000000E+00  0.10566000000E+00 0.  1.
     999900   -1    0    0    0    0 -0.00000000000E+00 -0.00000000000E+00 -0.74505805969E-08  0.93827000000E+00  0.93827000000E+00 0.  1.
     999902    2    1    2    0    0 -0.69935113636E-02 -0.16452887923E-01  0.16594771527E-01  0.10195375183E+01  0.10192456809E+01 0.  0.
     999903    2    3    3    0    0 -0.76751577787E-01 -0.99301506512E-01  0.38259608246E-01  0.13263310033E+00  0.19394529958E-01 0.  0.
         14    1    1    2    0    0  0.69935113636E-02  0.16452887923E-01 -0.16594771527E-01  0.24392481715E-01  0.00000000000E+00 0. -1.
     999901    1    3    3    0    0  0.69758066424E-01  0.82848618589E-01 -0.21664836719E-01  0.88690441795E+00  0.88000000000E+00 0.  1.
        -11    1    4    4    0    0 -0.32790469588E-01 -0.44166840886E-01  0.68450761163E-02  0.55435015268E-01  0.51100000000E-03 0.  1.
         11    1    4    4    0    0 -0.43961108199E-01 -0.55134665625E-01  0.31414532130E-01  0.77198085065E-01  0.51100000000E-03 0. -1.
</event>
<event>
 8    1  0.1054086E+005  0.1043930E+01  0.7957747E-01            NaN
         13   -1    0    0    0    0  0.00000000000E+00  0.00000000000E+00  0.74505805969E-08  0.10566000000E+00  0.10566000000E+00 0.  1.
     999900   -1    0    0    0    0 -0.00000000000E+00 -0.00000000000E+00 -0.74505805969E-08  0.93827000000E+00  0.93827000000E+00 0. -1.
     999902    2    1    2    0    0 -0.17107418388E-01  0.81680009221E-02 -0.14097479594E-01  0.10203054591E+01  0.10200319166E+01 0.  0.
     999903    2    3    3    0    0 -0.51120347631E-01  0.11937209460E+00 -0.18282538764E-01  0.13264519494E+00  0.19937642926E-01 0.  0.
         14    1    1    2    0    0  0.17107418388E-01 -0.81680009221E-02  0.14097479594E-01  0.23624540924E-01  0.00000000000E+00 0.  1.
     999901    1    3    3    0    0  0.34012929243E-01 -0.11120409368E+00  0.41850591700E-02  0.88766026414E+00  0.88000000000E+00 0. -1.
        -11    1    4    4    0    0 -0.42381135397E-01  0.94778030731E-01 -0.22412396216E-01  0.10621493479E+00  0.51100000000E-03 0.  1.
         11    1    4    4    0    0 -0.87392122334E-02  0.24594063871E-01  0.41298574516E-02  0.26430260152E-01  0.51100000000E-03 0. -1.
</event>
<event>
 8    1  0.1054086E+005  0.1043930E+01  0.7957747E-01            NaN
         13   -1    0    0    0    0  0.00000000000E+00  0.00000000000E+00  0.74505805969E-08  0.10566000000E+00  0.10566000000E+00 0.  1.
     999900   -1    0    0    0    0 -0.00000000000E+00 -0.00000000000E+00 -0.74505805969E-08  0.93827000000E+00  0.93827000000E+00 0. -1.
     999902    2    1    2    0    0 -0.14584272275E-02  0.23415498267E-01  0.33156823173E-02  0.10202359856E+01  0.10199608130E+01 0.  0.
     999903    2    3    3    0    0 -0.10717936186E+00  0.67612795099E-01  0.32169489559E-01  0.13233798512E+00  0.20483177905E-01 0.  0.
         14    1    1    2    0    0  0.14584272275E-02 -0.23415498267E-01 -0.33156823173E-02  0.23694014398E-01  0.00000000000E+00 0. -1.
     999901    1    3    3    0    0  0.10572093463E+00 -0.44197296833E-01 -0.28853807241E-01  0.88789800048E+00  0.88000000000E+00 0.  1.
        -11    1    4    4    0    0 -0.83842317366E-01  0.53755097960E-01  0.33714552399E-01  0.10514788111E+00  0.51100000000E-03 0. -1.
         11    1    4    4    0    0 -0.23337044495E-01  0.13857697139E-01 -0.15450628399E-02  0.27190104007E-01  0.51100000000E-03 0.  1.
</event>
<event>
 8    1  0.1054086E+005  0.1043930E+01  0.7957747E-01            NaN
         13   -1    0    0    0    0  0.00000000000E+00  0.00000000000E+00  0.74505805969E-08  0.10566000000E+00  0.10566000000E+00 0. -1.
     999900   -1    0    0    0    0 -0.00000000000E+00 -0.00000000000E+00 -0.74505805969E-08  0.93827000000E+00  0.93827000000E+00 0. -1.
     999902    2    1    2    0    0 -0.17649932782E-01 -0.12632972034E-01  0.87310678501E-02  0.10205346232E+01  0.10202664228E+01 0.  0.
     999903    2    3    3    0    0 -0.52277816986E-01 -0.26404074002E-01  0.11770779571E+00  0.13302988472E+00  0.20289893649E-01 0.  0.
         14    1    1    2    0    0  0.17649932782E-01  0.12632972034E-01 -0.87310678501E-02  0.23395376796E-01  0.00000000000E+00 0.  1.
     999901    1    3    3    0    0  0.34627884204E-01  0.13771101968E-01 -0.10897672786E+00  0.88750473848E+00  0.88000000000E+00 0. -1.
        -11    1    4    4    0    0 -0.38125505439E-01 -0.21608780129E-01  0.66173871416E-01  0.79370875785E-01  0.51100000000E-03 0. -1.
         11    1    4    4    0    0 -0.14152311547E-01 -0.47952938729E-02  0.51533924299E-01  0.53659008936E-01  0.51100000000E-03 0.  1.
</event>
<event>
 8    1  0.1054086E+005  0.1043930E+01  0.7957747E-01            NaN
         13   -1    0    0    0    0  0.00000000000E+00  0.00000000000E+00  0.74505805969E-08  0.10566000000E+00  0.10566000000E+00 0.  1.
     999900   -1    0    0    0    0 -0.00000000000E+00 -0.00000000000E+00 -0.74505805969E-08  0.93827000000E+00  0.93827000000E+00 0. -1.
     999902    2    1    2    0    0 -0.14075186255E-01 -0.19524295032E-01  0.12166014936E-02  0.10198304340E+01  0.10195456463E+01 0.  0.
     999903    2    3    3    0    0 -0.18480032245E-01 -0.12327627300E+00 -0.41028642523E-01  0.13271796293E+00  0.19802956875E-01 0.  0.
         14    1    1    2    0    0  0.14075186255E-01  0.19524295032E-01 -0.12166014936E-02  0.24099566050E-01  0.00000000000E+00 0. -1.
     999901    1    3    3    0    0  0.44048459905E-02  0.10375197796E+00  0.42245244017E-01  0.88711247102E+00  0.88000000000E+00 0. -1.
        -11    1    4    4    0    0 -0.84798703663E-03 -0.35530970350E-01 -0.36720742713E-02  0.35733936062E-01  0.51100000000E-03 0.  1.
         11    1    4    4    0    0 -0.17632045208E-01 -0.87745302647E-01 -0.37356568252E-01  0.96984026867E-01  0.51100000000E-03 0. -1.
</event>
<event>
 8    1  0.1054086E+005  0.1043930E+01  0.7957747E-01            NaN
         13   -1    0    0    0    0  0.00000000000E+00  0.00000000000E+00  0.74505805969E-08  0.10566000000E+00  0.10566000000E+00 0. -1.
     999900   -1    0    0    0    0 -0.00000000000E+00 -0.00000000000E+00 -0.74505805969E-08  0.93827000000E+00  0.93827000000E+00 0. -1.
     999902    2    1    2    0    0 -0.17482498119E-02  0.26893770044E-02  0.23623075437E-01  0.10200901422E+01  0.10198115313E+01 0.  0.
     999903    2    3    3    0    0 -0.72716161209E-01 -0.65865365896E-01 -0.79236980775E-01  0.12862147289E+00  0.25280380549E-01 0.  0.
         14    1    1    2    0    0  0.17482498119E-02 -0.26893770044E-02 -0.23623075437E-01  0.23839857785E-01  0.00000000000E+00 0.  1.
     999901    1    3    3    0    0  0.70967911398E-01  0.68554742900E-01  0.10286005621E+00  0.89146866932E+00  0.88000000000E+00 0.  1.
        -11    1    4    4    0    0 -0.33229230419E-01 -0.38791254512E-01 -0.54622105672E-01  0.74784883031E-01  0.51100000000E-03 0.  1.
         11    1    4    4    0    0 -0.39486930790E-01 -0.27074111384E-01 -0.24614875103E-01  0.53836589861E-01  0.51100000000E-03 0. -1.
</event>
<event>
 8    1  0.1054086E+005  0.1043930E+01  0.7957747E-01            NaN
         13   -1    0    0    0    0  0.00000000000E+00  0.00000000000E+00  0.74505805969E-08  0.10566000000E+00  0.10566000000E+00 0. -1.
     999900   -1    0    0    0    0 -0.00000000000E+00 -0.00000000000E+00 -0.74505805969E-08  0.93827000000E+00  0.93827000000E+00 0. -1.
     999902    2    1    2    0    0  0.48344044720E-02  0.24695548931E-01 -0.10877046572E-01  0.10165155559E+01  0.10161458181E+01 0.  0.
     999903    2    3    3    0    0 -0.10582591701E+00  0.39036158998E-01 -0.57611852854E-01  0.12823885240E+00  0.20078128757E-01 0.  0.
         14    1    1    2    0    0 -0.48344044720E-02 -0.24695548931E-01  0.10877046572E-01  0.27414444108E-01  0.00000000000E+00 0. -1.
     999901    1    3    3    0    0  0.11066032149E+00 -0.14340610067E-01  0.46734806282E-01  0.88827670349E+00  0.88000000000E+00 0. -1.
        -11    1    4    4    0    0 -0.42975260505E-01  0.56241106432E-02 -0.23507481861E-01  0.49308888250E-01  0.51100000000E-03 0.  1.
         11    1    4    4    0    0 -0.62850656510E-01  0.33412048355E-01 -0.34104370993E-01  0.78929964151E-01  0.51100000000E-03 0. -1.
</event>
<event>
 8    1  0.1054086E+005  0.1043930E+01  0.7957747E-01            NaN
         13   -1    0    0    0    0  0.00000000000E+00  0.00000000000E+00  0.74505805969E-08  0.10566000000E+00  0.10566000000E+00 0.  1.
     999900   -1    0    0    0    0 -0.00000000000E+00 -0.00000000000E+00 -0.74505805969E-08  0.93827000000E+00  0.93827000000E+00 0.  1.
     999902    2    1    2    0    0  0.20372693176E-01 -0.14136670076E-01 -0.21219368356E-02  0.10190423588E+01  0.10187384033E+01 0.  0.
     999903    2    3    3    0    0  0.11507593793E+00 -0.19234886179E-01  0.58141520624E-01  0.13189728574E+00  0.20099881262E-01 0.  0.
         14    1    1    2    0    0 -0.20372693176E-01  0.14136670076E-01  0.21219368356E-02  0.24887641190E-01  0.00000000000E+00 0.  1.
     999901    1    3    3    0    0 -0.94703244756E-01  0.50982161027E-02 -0.60263457460E-01  0.88714507307E+00  0.88000000000E+00 0.  1.
        -11    1    4    4    0    0  0.45644654682E-01 -0.13752413873E-01  0.32406874835E-01  0.57645728774E-01  0.51100000000E-03 0. -1.
         11    1    4    4    0    0  0.69431283250E-01 -0.54824723064E-02  0.25734645790E-01  0.74251556961E-01  0.51100000000E-03 0.  1.
</event>
<event>
 8    1  0.1054086E+005  0.1043930E+01  0.7957747E-01            NaN
         13   -1    0    0    0    0  0.00000000000E+00  0.00000000000E+00  0.74505805969E-08  0.10566000000E+00  0.10566000000E+00 0. -1.
     999900   -1    0    0    0    0 -0.00000000000E+00 -0.00000000000E+00 -0.74505805969E-08  0.93827000000E+00  0.93827000000E+00 0.  1.
     999902    2    1    2    0    0 -0.24365740262E-01  0.84998679370E-02 -0.54524700205E-03  0.10181184842E+01  0.10177912426E+01 0.  0.
     999903    2    3    3    0    0 -0.42468914425E-01  0.90082596720E-01 -0.81928228551E-01  0.13042109419E+00  0.19466490481E-01 0.  0.
         14    1    1    2    0    0  0.24365740262E-01 -0.84998679370E-02  0.54524700205E-03  0.25811515798E-01  0.00000000000E+00 0.  1.
     999901    1    3    3    0    0  0.18103174163E-01 -0.81582728783E-01  0.81382981549E-01  0.88769739001E+00  0.88000000000E+00 0. -1.
        -11    1    4    4    0    0 -0.88465780949E-02  0.26127157719E-01 -0.33677010808E-01  0.43534957131E-01  0.51100000000E-03 0.  1.
         11    1    4    4    0    0 -0.33622336330E-01  0.63955439001E-01 -0.48251217743E-01  0.86886137058E-01  0.51100000000E-03 0. -1.
</event>
<event>
 8    1  0.1054086E+005  0.1043930E+01  0.7957747E-01            NaN
         13   -1    0    0    0    0  0.00000000000E+00  0.00000000000E+00  0.74505805969E-08  0.10566000000E+00  0.10566000000E+00 0.  1.
     999900   -1    0    0    0    0 -0.00000000000E+00 -0.00000000000E+00 -0.74505805969E-08  0.93827000000E+00  0.93827000000E+00 0.  1.
     999902    2    1    2    0    0  0.76126335384E-02  0.18374619953E-01  0.12314503769E-01  0.10205371410E+01  0.10202689990E+01 0.  0.
     999903    2    3    3    0    0  0.85192805277E-01  0.89964933971E-01  0.45844925426E-01  0.13359399444E+00  0.19851819738E-01 0.  0.
         14    1    1    2    0    0 -0.76126335384E-02 -0.18374619953E-01 -0.12314503769E-01  0.23392858972E-01  0.00000000000E+00 0. -1.
     999901    1    3    3    0    0 -0.77580171739E-01 -0.71590314018E-01 -0.33530421658E-01  0.88694314659E+00  0.88000000000E+00 0.  1.
        -11    1    4    4    0    0  0.42807606554E-01  0.46785656840E-01  0.12960009169E-01  0.64727210843E-01  0.51100000000E-03 0.  1.
         11    1    4    4    0    0  0.42385198723E-01  0.43179277131E-01  0.32884916258E-01  0.68866783595E-01  0.51100000000E-03 0. -1.
</event>
<event>
 8    1  0.1054086E+005  0.1043930E+01  0.7957747E-01            NaN
         13   -1    0    0    0    0  0.00000000000E+00  0.00000000000E+00  0.74505805969E-08  0.10566000000E+00  0.10566000000E+00 0. -1.
     999900   -1    0    0    0    0 -0.00000000000E+00 -0.00000000000E+00 -0.74505805969E-08  0.93827000000E+00  0.93827000000E+00 0.  1.
     999902    2    1    2    0    0 -0.92569279176E-03  0.35498005141E-02 -0.93609603829E-02  0.10338758680E+01  0.10338269801E+01 0.  0.
     999903    2    3    3    0    0  0.20006145375E-01 -0.29144133538E-01  0.13542178053E+00  0.14120063186E+00  0.18679759713E-01 0.  0.
         14    1    1    2    0    0  0.92569279176E-03 -0.35498005141E-02  0.93609603829E-02  0.10054131993E-01  0.00000000000E+00 0. -1.
     999901    1    3    3    0    0 -0.20931838167E-01  0.32693934052E-01 -0.14478274091E+00  0.89267523615E+00  0.88000000000E+00 0.  1.
        -11    1    4    4    0    0  0.11361878917E-01 -0.21139636647E-02  0.41756374018E-01  0.43329170625E-01  0.51100000000E-03 0.  1.
         11    1    4    4    0    0  0.86442664576E-02 -0.27030169873E-01  0.93665406509E-01  0.97871461231E-01  0.51100000000E-03 0. -1.
</event>
<event>
 8    1  0.1054086E+005  0.1043930E+01  0.7957747E-01            NaN
         13   -1    0    0    0    0  0.00000000000E+00  0.00000000000E+00  0.74505805969E-08  0.10566000000E+00  0.10566000000E+00 0. -1.
     999900   -1    0    0    0    0 -0.00000000000E+00 -0.00000000000E+00 -0.74505805969E-08  0.93827000000E+00  0.93827000000E+00 0.  1.
     999902    2    1    2    0    0  0.16135788896E-01  0.16948770805E-01  0.74894946514E-02  0.10193593459E+01  0.10190631771E+01 0.  0.
     999903    2    3    3    0    0 -0.35147625683E-01 -0.72281281441E-01  0.98510763329E-01  0.12869843272E+00  0.19974404979E-01 0.  0.
         14    1    1    2    0    0 -0.16135788896E-01 -0.16948770805E-01 -0.74894946514E-02  0.24570654147E-01  0.00000000000E+00 0. -1.
     999901    1    3    3    0    0  0.51283414579E-01  0.89230052246E-01 -0.91021268678E-01  0.89066091314E+00  0.88000000000E+00 0.  1.
        -11    1    4    4    0    0 -0.17360613526E-01 -0.54554752557E-01  0.74429741125E-01  0.93902393013E-01  0.51100000000E-03 0. -1.
         11    1    4    4    0    0 -0.17787012156E-01 -0.17726528884E-01  0.24081022205E-01  0.34796039705E-01  0.51100000000E-03 0.  1.
</event>
<event>
 8    1  0.1054086E+005  0.1043930E+01  0.7957747E-01            NaN
         13   -1    0    0    0    0  0.00000000000E+00  0.00000000000E+00  0.74505805969E-08  0.10566000000E+00  0.10566000000E+00 0.  1.
     999900   -1    0    0    0    0 -0.00000000000E+00 -0.00000000000E+00 -0.74505805969E-08  0.93827000000E+00  0.93827000000E+00 0. -1.
     999902    2    1    2    0    0 -0.84891803104E-02 -0.54672678470E-02  0.21767581274E-01  0.10199344839E+01  0.10196521792E+01 0.  0.
     999903    2    3    3    0    0  0.96504713958E-01 -0.84202520282E-01 -0.59945843000E-02  0.12976950160E+00  0.20024092168E-01 0.  0.
         14    1    1    2    0    0  0.84891803104E-02  0.54672678470E-02 -0.21767581274E-01  0.23995516135E-01  0.00000000000E+00 0. -1.
     999901    1    3    3    0    0 -0.10499389427E+00  0.78735252434E-01  0.27762165574E-01  0.89016498226E+00  0.88000000000E+00 0.  1.
        -11    1    4    4    0    0  0.31298722322E-01 -0.15980420811E-01  0.76457600038E-03  0.35154367662E-01  0.51100000000E-03 0. -1.
         11    1    4    4    0    0  0.65205991637E-01 -0.68222099471E-01 -0.67591603004E-02  0.94615133940E-01  0.51100000000E-03 0.  1.
</event>
<event>
 7    1  0.1966322E+005  0.1043930E+01  0.7957747E-01            NaN
         13   -1    0    0    0    0  0.00000000000E+00  0.00000000000E+00  0.74505805969E-08  0.10566000000E+00  0.10566000000E+00 0. -1.
     999900   -1    0    0    0    0 -0.00000000000E+00 -0.00000000000E+00 -0.74505805969E-08  0.93827000000E+00  0.93827000000E+00 0.  1.
     999903    2    1    2    0    0 -0.56415844415E-01  0.88576165512E-01  0.20396460957E-01  0.10886376511E+00  0.20169757989E-01 0.  0.
         14    1    1    2    0    0  0.35846707512E-01 -0.21748308536E-01 -0.31140352109E-01  0.52227357707E-01  0.00000000000E+00 0.  1.
     999901    1    1    2    0    0  0.20569136903E-01 -0.66827856976E-01  0.10743891151E-01  0.88283887718E+00  0.88000000000E+00 0. -1.
        -11    1    3    3    0    0 -0.18806394478E-01  0.30891524503E-01  0.16868191191E-01  0.39909444426E-01  0.51100000000E-03 0.  1.
         11    1    3    3    0    0 -0.37609449937E-01  0.57684641009E-01  0.35282697661E-02  0.68954320688E-01  0.51100000000E-03 0. -1.
</event>
<event>
 8    1  0.1054086E+005  0.1043930E+01  0.7957747E-01            NaN
         13   -1    0    0    0    0  0.00000000000E+00  0.00000000000E+00  0.74505805969E-08  0.10566000000E+00  0.10566000000E+00 0. -1.
     999900   -1    0    0    0    0 -0.00000000000E+00 -0.00000000000E+00 -0.74505805969E-08  0.93827000000E+00  0.93827000000E+00 0. -1.
     999902    2    1    2    0    0  0.40933085434E-02  0.15106481452E-01  0.21827628987E-01  0.10170709914E+01  0.10167162806E+01 0.  0.
     999903    2    3    3    0    0  0.10752658064E+00  0.58758547687E-01  0.38389027948E-01  0.12978398900E+00  0.18858257159E-01 0.  0.
         14    1    1    2    0    0 -0.40933085434E-02 -0.15106481452E-01 -0.21827628987E-01  0.26859008617E-01  0.00000000000E+00 0.  1.
     999901    1    3    3    0    0 -0.10343327210E+00 -0.43652066234E-01 -0.16561398960E-01  0.88728700238E+00  0.88000000000E+00 0.  1.
        -11    1    4    4    0    0  0.78989611035E-01  0.50746856551E-01  0.33799636803E-01  0.99786164724E-01  0.51100000000E-03 0.  1.
         11    1    4    4    0    0  0.28536969607E-01  0.80116911352E-02  0.45893911451E-02  0.29997824275E-01  0.51100000000E-03 0. -1.
</event>
<event>
 8    1  0.1054086E+005  0.1043930E+01  0.7957747E-01            NaN
         13   -1    0    0    0    0  0.00000000000E+00  0.00000000000E+00  0.74505805969E-08  0.10566000000E+00  0.10566000000E+00 0.  1.
     999900   -1    0    0    0    0 -0.00000000000E+00 -0.00000000000E+00 -0.74505805969E-08  0.93827000000E+00  0.93827000000E+00 0. -1.
     999902    2    1    2    0    0 -0.21954838889E-01  0.62738119465E-02 -0.81798472985E-02  0.10196754011E+01  0.10193868932E+01 0.  0.
     999903    2    3    3    0    0 -0.65917846546E-01  0.11160728794E+00  0.16121162335E-01  0.13197138156E+00  0.18846868718E-01 0.  0.
         14    1    1    2    0    0  0.21954838889E-01 -0.62738119465E-02  0.81798472985E-02  0.24254598921E-01  0.00000000000E+00 0.  1.
     999901    1    3    3    0    0  0.43963007656E-01 -0.10533347599E+00 -0.24301009634E-01  0.88770401952E+00  0.88000000000E+00 0. -1.
        -11    1    4    4    0    0 -0.43720682738E-01  0.73859245745E-01  0.19597784172E-01  0.88039880432E-01  0.51100000000E-03 0. -1.
         11    1    4    4    0    0 -0.22197163808E-01  0.37748042194E-01 -0.34766218371E-02  0.43931501124E-01  0.51100000000E-03 0.  1.
</event>
<event>
 8    1  0.1054086E+005  0.1043930E+01  0.7957747E-01            NaN
         13   -1    0    0    0    0  0.00000000000E+00  0.00000000000E+00  0.74505805969E-08  0.10566000000E+00  0.10566000000E+00 0. -1.
     999900   -1    0    0    0    0 -0.00000000000E+00 -0.00000000000E+00 -0.74505805969E-08  0.93827000000E+00  0.93827000000E+00 0. -1.
     999902    2    1    2    0    0 -0.83375178807E-02 -0.17126967014E-01 -0.17622688788E-01  0.10179799256E+01  0.10176491156E+01 0.  0.
     999903    2    3    3    0    0 -0.91006209837E-01 -0.45371657908E-01 -0.80973082394E-01  0.13138805352E+00  0.19117085681E-01 0.  0.
         14    1    1    2    0    0  0.83375178807E-02  0.17126967014E-01  0.17622688788E-01  0.25950074443E-01  0.00000000000E+00 0. -1.
     999901    1    3    3    0    0  0.82668691956E-01  0.28244690894E-01  0.63350393606E-01  0.88659187204E+00  0.88000000000E+00 0.  1.
        -11    1    4    4    0    0 -0.64848035869E-01 -0.29180972576E-01 -0.66594899353E-01  0.97426580856E-01  0.51100000000E-03 0. -1.
         11    1    4    4    0    0 -0.26158173968E-01 -0.16190685332E-01 -0.14378183041E-01  0.33961472662E-01  0.51100000000E-03 0.  1.
</event>
<event>
 8    1  0.1054086E+005  0.1043930E+01  0.7957747E-01            NaN
         13   -1    0    0    0    0  0.00000000000E+00  0.00000000000E+00  0.74505805969E-08  0.10566000000E+00  0.10566000000E+00 0.  1.
     999900   -1    0    0    0    0 -0.00000000000E+00 -0.00000000000E+00 -0.74505805969E-08  0.93827000000E+00  0.93827000000E+00 0. -1.
     999902    2    1    2    0    0  0.13395420416E-01  0.10643254419E-01  0.11810368936E-01  0.10231405564E+01  0.10229293216E+01 0.  0.
     999903    2    3    3    0    0  0.22417359661E-01  0.45514016555E-01  0.12391444850E+00  0.13529783937E+00  0.19407500450E-01 0.  0.
         14    1    1    2    0    0 -0.13395420416E-01 -0.10643254419E-01 -0.11810368936E-01  0.20789443647E-01  0.00000000000E+00 0. -1.
     999901    1    3    3    0    0 -0.90219392445E-02 -0.34870762136E-01 -0.11210407957E+00  0.88784271698E+00  0.88000000000E+00 0. -1.
        -11    1    4    4    0    0  0.12537830630E-01  0.11072944919E-01  0.24923908415E-01  0.30021153171E-01  0.51100000000E-03 0. -1.
         11    1    4    4    0    0  0.98795290310E-02  0.34441071636E-01  0.98990540089E-01  0.10527668620E+00  0.51100000000E-03 0.  1.
</event>
<event>
 8    1  0.1054086E+005  0.1043930E+01  0.7957747E-01            NaN
         13   -1    0    0    0    0  0.00000000000E+00  0.00000000000E+00  0.74505805969E-08  0.10566000000E+00  0.10566000000E+00 0.  1.
     999900   -1    0    0    0    0 -0.00000000000E+00 -0.00000000000E+00 -0.74505805969E-08  0.93827000000E+00  0.93827000000E+00 0. -1.
     999902    2    1    2    0    0 -0.62425270163E-02  0.19693006002E-01 -0.73117089679E-02  0.10220155135E+01  0.10217805367E+01 0.  0.
     999903    2    3    3    0    0  0.45699212645E-01  0.93185942156E-02 -0.12270782940E+00  0.13290256382E+00  0.20751526210E-01 0.  0.
         14    1    1    2    0    0  0.62425270163E-02 -0.19693006002E-01  0.73117089679E-02  0.21914486464E-01  0.00000000000E+00 0.  1.
     999901    1    3    3    0    0 -0.51941739661E-01  0.10374411786E-01  0.11539612043E+00  0.88911294971E+00  0.88000000000E+00 0.  1.
        -11    1    4    4    0    0  0.83505075437E-02 -0.25511749276E-02 -0.45317546249E-01  0.46153879455E-01  0.51100000000E-03 0. -1.
         11    1    4    4    0    0  0.37348705101E-01  0.11869769143E-01 -0.77390283151E-01  0.86748684367E-01  0.51100000000E-03 0.  1.
</event>
<event>
 8    1  0.1054086E+005  0.1043930E+01  0.7957747E-01            NaN
         13   -1    0    0    0    0  0.00000000000E+00  0.00000000000E+00  0.74505805969E-08  0.10566000000E+00  0.10566000000E+00 0. -1.
     999900   -1    0    0    0    0 -0.00000000000E+00 -0.00000000000E+00 -0.74505805969E-08  0.93827000000E+00  0.93827000000E+00 0. -1.
     999902    2    1    2    0    0  0.23141938490E-01 -0.34903621499E-02  0.71865865403E-03  0.10205152949E+01  0.10202466460E+01 0.  0.
     999903    2    3    3    0    0  0.23483538088E-01  0.12341054545E+00 -0.30601403082E-01  0.13086092194E+00  0.20161739280E-01 0.  0.
         14    1    1    2    0    0 -0.23141938490E-01  0.34903621499E-02 -0.71865865403E-03  0.23414705108E-01  0.00000000000E+00 0.  1.
     999901    1    3    3    0    0 -0.34159959792E-03 -0.12690090760E+00  0.31320061736E-01  0.88965437295E+00  0.88000000000E+00 0. -1.
        -11    1    4    4    0    0  0.11946642592E-01  0.31303255616E-01 -0.15070298096E-01  0.36742224852E-01  0.51100000000E-03 0. -1.
         11    1    4    4    0    0  0.11536895496E-01  0.92107289838E-01 -0.15531104986E-01  0.94118697091E-01  0.51100000000E-03 0.  1.
</event>
<event>
 8    1  0.1054086E+005  0.1043930E+01  0.7957747E-01            NaN
         13   -1    0    0    0    0  0.00000000000E+00  0.00000000000E+00  0.74505805969E-08  0.10566000000E+00  0.10566000000E+00 0.  1.
     999900   -1    0    0    0    0 -0.00000000000E+00 -0.00000000000E+00 -0.74505805969E-08  0.93827000000E+00  0.93827000000E+00 0.  1.
     999902    2    1    2    0    0 -0.16541094432E-01  0.11434864450E-01  0.12190375765E-01  0.10204147030E+01  0.10201437139E+01 0.  0.
     999903    2    3    3    0    0 -0.12742938895E+00  0.32758352710E-01 -0.14702602737E-02  0.13309428854E+00  0.20014223319E-01 0.  0.
         14    1    1    2    0    0  0.16541094432E-01 -0.11434864450E-01 -0.12190375765E-01  0.23515296964E-01  0.00000000000E+00 0.  1.
     999901    1    3    3    0    0  0.11088829452E+00 -0.21323488260E-01  0.13660636039E-01  0.88732041450E+00  0.88000000000E+00 0.  1.
        -11    1    4    4    0    0 -0.86947276617E-01  0.27431904736E-01 -0.88376044339E-02  0.91600778827E-01  0.51100000000E-03 0.  1.
         11    1    4    4    0    0 -0.40482112332E-01  0.53264479736E-02  0.73673441602E-02  0.41493509708E-01  0.51100000000E-03 0. -1.
</event>
<event>
 8    1  0.1054086E+005  0.1043930E+01  0.7957747E-01            NaN
         13   -1    0    0    0    0  0.00000000000E+00  0.00000000000E+00  0.74505805969E-08  0.10566000000E+00  0.10566000000E+00 0. -1.
     999900   -1    0    0    0    0 -0.00000000000E+00 -0.00000000000E+00 -0.74505805969E-08  0.93827000000E+00  0.93827000000E+00 0. -1.
     999902    2    1    2    0    0 -0.19382810495E-01  0.12708677448E-01  0.82331435632E-02  0.10193334865E+01  0.10190366864E+01 0.  0.
     999903    2    3    3    0    0  0.20808506411E-01  0.73378796059E-02 -0.12482331333E+00  0.12840800802E+00  0.20516299745E-01 0.  0.
         14    1    1    2    0    0  0.19382810495E-01 -0.12708677448E-01 -0.82331435632E-02  0.24596513535E-01  0.00000000000E+00 0. -1.
     999901    1    3    3    0    0 -0.40191316906E-01  0.53707978424E-02  0.13305645690E+00  0.89092547845E+00  0.88000000000E+00 0.  1.
        -11    1    4    4    0    0  0.24375354953E-01  0.86212223874E-02 -0.11487326190E+00  0.11774808205E+00  0.51100000000E-03 0. -1.
         11    1    4    4    0    0 -0.35668485421E-02 -0.12833427816E-02 -0.99500514306E-02  0.10659925970E-01  0.51100000000E-03 0.  1.
</event>
<event>
 8    1  0.1054086E+005  0.1043930E+01  0.7957747E-01            NaN
         13   -1    0    0    0    0  0.00000000000E+00  0.00000000000E+00  0.74505805969E-08  0.10566000000E+00  0.10566000000E+00 0.  1.
     999900   -1    0    0    0    0 -0.00000000000E+00 -0.00000000000E+00 -0.74505805969E-08  0.93827000000E+00  0.93827000000E+00 0. -1.
     999902    2    1    2    0    0  0.23796340899E-01 -0.27170862761E-02 -0.19758534709E-02  0.10198976802E+01  0.10196144986E+01 0.  0.
     999903    2    3    3    0    0  0.47550468446E-01  0.11916269065E+00 -0.17503699520E-01  0.13104445688E+00  0.20136441836E-01 0.  0.
         14    1    1    2    0    0 -0.23796340899E-01  0.27170862761E-02  0.19758534709E-02  0.24032319800E-01  0.00000000000E+00 0. -1.
     999901    1    3    3    0    0 -0.23754127546E-01 -0.12187977693E+00  0.15527846049E-01  0.88885322332E+00  0.88000000000E+00 0.  1.
        -11    1    4    4    0    0  0.23611478131E-01  0.51146194552E-01 -0.17313774276E-01  0.58936092654E-01  0.51100000000E-03 0.  1.
         11    1    4    4    0    0  0.23938990314E-01  0.68016496100E-01 -0.18992524426E-03  0.72108364228E-01  0.51100000000E-03 0. -1.
</event>
<event>
 8    1  0.1054086E+005  0.1043930E+01  0.7957747E-01            NaN
         13   -1    0    0    0    0  0.00000000000E+00  0.00000000000E+00  0.74505805969E-08  0.10566000000E+00  0.10566000000E+00 0.  1.
     999900   -1    0    0    0    0 -0.00000000000E+00 -0.00000000000E+00 -0.74505805969E-08  0.93827000000E+00  0.93827000000E+00 0.  1.
     999902    2    1    2    0    0  0.10518704195E-01  0.12285952567E-01  0.15102755654E-01  0.10218012631E+01  0.10215616184E+01 0.  0.
     999903    2    3    3    0    0  0.16431380517E-01 -0.12485008363E+00 -0.25782618936E-01  0.13022240174E+00  0.20870956554E-01 0.  0.
         14    1    1    2    0    0 -0.10518704195E-01 -0.12285952567E-01 -0.15102755654E-01  0.22128736899E-01  0.00000000000E+00 0. -1.
     999901    1    3    3    0    0 -0.59126763221E-02  0.13713603620E+00  0.40885374591E-01  0.89157886136E+00  0.88000000000E+00 0. -1.
        -11    1    4    4    0    0  0.70978471480E-03 -0.45614611376E-01 -0.67222325735E-03  0.45627947252E-01  0.51100000000E-03 0.  1.
         11    1    4    4    0    0  0.15721595803E-01 -0.79235472257E-01 -0.25110395679E-01  0.84594454490E-01  0.51100000000E-03 0. -1.
</event>
<event>
 8    1  0.1054086E+005  0.1043930E+01  0.7957747E-01            NaN
         13   -1    0    0    0    0  0.00000000000E+00  0.00000000000E+00  0.74505805969E-08  0.10566000000E+00  0.10566000000E+00 0. -1.
     999900   -1    0    0    0    0 -0.00000000000E+00 -0.00000000000E+00 -0.74505805969E-08  0.93827000000E+00  0.93827000000E+00 0.  1.
     999902    2    1    2    0    0 -0.94664470388E-02 -0.16658933500E-01 -0.14202600833E-01  0.10200794747E+01  0.10198006115E+01 0.  0.
     999903    2    3    3    0    0  0.46310400521E-02  0.12641330583E+00 -0.96986713632E-02  0.12840201613E+00  0.19779865957E-01 0.  0.
         14    1    1    2    0    0  0.94664470388E-02  0.16658933500E-01  0.14202600833E-01  0.23850525263E-01  0.00000000000E+00 0. -1.
     999901    1    3    3    0    0 -0.14097487091E-01 -0.14307223933E+00 -0.45039294701E-02  0.89167745861E+00  0.88000000000E+00 0.  1.
        -11    1    4    4    0    0 -0.12864102377E-02  0.10766047647E+00 -0.13016184148E-01  0.10845328587E+00  0.51100000000E-03 0.  1.
         11    1    4    4    0    0  0.59174502897E-02  0.18752829354E-01  0.33175127851E-02  0.19948730255E-01  0.51100000000E-03 0. -1.
</event>
<event>
 8    1  0.1054086E+005  0.1043930E+01  0.7957747E-01            NaN
         13   -1    0    0    0    0  0.00000000000E+00  0.00000000000E+00  0.74505805969E-08  0.10566000000E+00  0.10566000000E+00 0.  1.
     999900   -1    0    0    0    0 -0.00000000000E+00 -0.00000000000E+00 -0.74505805969E-08  0.93827000000E+00  0.93827000000E+00 0.  1.
     999902    2    1    2    0    0  0.41053937732E-02 -0.58564991426E-02 -0.22639878321E-01  0.10201872763E+01  0.10199109577E+01 0.  0.
     999903    2    3    3    0    0 -0.82198039898E-01  0.33988918076E-01 -0.95559118293E-01  0.13206951633E+00  0.19976179332E-01 0.  0.
         14    1    1    2    0    0 -0.41053937732E-02  0.58564991426E-02  0.22639878321E-01  0.23742723740E-01  0.00000000000E+00 0.  1.
     999901    1    3    3    0    0  0.86303433671E-01 -0.39845417219E-01  0.72919239973E-01  0.88811775993E+00  0.88000000000E+00 0. -1.
        -11    1    4    4    0    0 -0.47550705833E-01  0.93794473875E-02 -0.46614160227E-01  0.67247191117E-01  0.51100000000E-03 0.  1.
         11    1    4    4    0    0 -0.34647334064E-01  0.24609470688E-01 -0.48944958067E-01  0.64822325217E-01  0.51100000000E-03 0. -1.
</event>
<event>
 8    1  0.1054086E+005  0.1043930E+01  0.7957747E-01            NaN
         13   -1    0    0    0    0  0.00000000000E+00  0.00000000000E+00  0.74505805969E-08  0.10566000000E+00  0.10566000000E+00 0. -1.
     999900   -1    0    0    0    0 -0.00000000000E+00 -0.00000000000E+00 -0.74505805969E-08  0.93827000000E+00  0.93827000000E+00 0. -1.
     999902    2    1    2    0    0  0.10559970167E-01  0.11864506257E-01 -0.17140409886E-01  0.10205617923E+01  0.10202942217E+01 0.  0.
     999903    2    3    3    0    0 -0.75897266002E-01  0.97509423167E-01  0.38311442555E-01  0.13045797062E+00  0.16823580933E-01 0.  0.
         14    1    1    2    0    0 -0.10559970167E-01 -0.11864506257E-01  0.17140409886E-01  0.23368207670E-01  0.00000000000E+00 0. -1.
     999901    1    3    3    0    0  0.86457236169E-01 -0.85644916910E-01 -0.55451852441E-01  0.89010382171E+00  0.88000000000E+00 0.  1.
        -11    1    4    4    0    0 -0.46546641116E-01  0.70905237712E-01  0.30074601095E-01  0.89993806933E-01  0.51100000000E-03 0. -1.
         11    1    4    4    0    0 -0.29350624885E-01  0.26604185455E-01  0.82368414596E-02  0.40464163690E-01  0.51100000000E-03 0.  1.
</event>
<event>
 8    1  0.1054086E+005  0.1043930E+01  0.7957747E-01            NaN
         13   -1    0    0    0    0  0.00000000000E+00  0.00000000000E+00  0.74505805969E-08  0.10566000000E+00  0.10566000000E+00 0.  1.
     999900   -1    0    0    0    0 -0.00000000000E+00 -0.00000000000E+00 -0.74505805969E-08  0.93827000000E+00  0.93827000000E+00 0.  1.
     999902    2    1    2    0    0  0.17272971200E-01 -0.99808872190E-02  0.12783336344E-01  0.10202363863E+01  0.10199612231E+01 0.  0.
     999903    2    3    3    0    0 -0.40162849614E-01 -0.35744107226E-02  0.12371865829E+00  0.13139075169E+00  0.18204184107E-01 0.  0.
         14    1    1    2    0    0 -0.17272971200E-01  0.99808872190E-02 -0.12783336344E-01  0.23693613735E-01  0.00000000000E+00 0. -1.
     999901    1    3    3    0    0  0.57435820814E-01 -0.64064764963E-02 -0.11093532194E+00  0.88884563458E+00  0.88000000000E+00 0.  1.
        -11    1    4    4    0    0 -0.66436650484E-02 -0.57186148592E-02  0.44271638963E-01  0.45134022407E-01  0.51100000000E-03 0.  1.
         11    1    4    4    0    0 -0.33519184566E-01  0.21442041365E-02  0.79447019326E-01  0.86256729280E-01  0.51100000000E-03 0. -1.
</event>
<event>
 8    1  0.1054086E+005  0.1043930E+01  0.7957747E-01            NaN
         13   -1    0    0    0    0  0.00000000000E+00  0.00000000000E+00  0.74505805969E-08  0.10566000000E+00  0.10566000000E+00 0. -1.
     999900   -1    0    0    0    0 -0.00000000000E+00 -0.00000000000E+00 -0.74505805969E-08  0.93827000000E+00  0.93827000000E+00 0. -1.
     999902    2    1    2    0    0  0.41952347616E-02 -0.17510683694E-01 -0.15709600970E-01  0.10200340673E+01  0.10197541286E+01 0.  0.
     999903    2    3    3    0    0 -0.69286303076E-01 -0.10964514320E+00 -0.13516049558E-01  0.13217534726E+00  0.21563617692E-01 0.  0.
         14    1    1    2    0    0 -0.41952347616E-02  0.17510683694E-01  0.15709600970E-01  0.23895932725E-01  0.00000000000E+00 0.  1.
     999901    1    3    3    0    0  0.73481537838E-01  0.92134459504E-01 -0.21935514125E-02  0.88785872001E+00  0.88000000000E+00 0. -1.
        -11    1    4    4    0    0 -0.96605364802E-02 -0.32915530346E-01 -0.34876621636E-02  0.34484532930E-01  0.51100000000E-03 0.  1.
         11    1    4    4    0    0 -0.59625766596E-01 -0.76729612852E-01 -0.10028387394E-01  0.97690814335E-01  0.51100000000E-03 0. -1.
</event>
<event>
 8    1  0.1054086E+005  0.1043930E+01  0.7957747E-01            NaN
         13   -1    0    0    0    0  0.00000000000E+00  0.00000000000E+00  0.74505805969E-08  0.10566000000E+00  0.10566000000E+00 0.  1.
     999900   -1    0    0    0    0 -0.00000000000E+00 -0.00000000000E+00 -0.74505805969E-08  0.93827000000E+00  0.93827000000E+00 0.  1.
     999902    2    1    2    0    0  0.12777993663E-01  0.19239789906E-01 -0.72536711078E-02  0.10197212747E+01  0.10194338702E+01 0.  0.
     999903    2    3    3    0    0  0.12641655301E-01  0.86844562571E-01  0.95389138726E-01  0.13117978983E+00  0.20180683210E-01 0.  0.
         14    1    1    2    0    0 -0.12777993663E-01 -0.19239789906E-01  0.72536711078E-02  0.24208725332E-01  0.00000000000E+00 0. -1.
     999901    1    3    3    0    0  0.13633836236E-03 -0.67604772665E-01 -0.10264280983E+00  0.88854148484E+00  0.88000000000E+00 0.  1.
        -11    1    4    4    0    0  0.11005603446E-01  0.53259776566E-01  0.44951351876E-01  0.70559281909E-01  0.51100000000E-03 0.  1.
         11    1    4    4    0    0  0.16360518544E-02  0.33584786005E-01  0.50437786850E-01  0.60620507916E-01  0.51100000000E-03 0. -1.
</event>
<event>
 8    1  0.1054086E+005  0.1043930E+01  0.7957747E-01            NaN
         13   -1    0    0    0    0  0.00000000000E+00  0.00000000000E+00  0.74505805969E-08  0.10566000000E+00  0.10566000000E+00 0. -1.
     999900   -1    0    0    0    0 -0.00000000000E+00 -0.00000000000E+00 -0.74505805969E-08  0.93827000000E+00  0.93827000000E+00 0.  1.
     999902    2    1    2    0    0 -0.16590864423E-01  0.17890749728E-01  0.48754628858E-02  0.10190481623E+01  0.10187443503E+01 0.  0.
     999903    2    3    3    0    0 -0.73327833574E-01  0.47650627830E-01 -0.95484944256E-01  0.13102961221E+00  0.20095551424E-01 0.  0.
         14    1    1    2    0    0  0.16590864423E-01 -0.17890749728E-01 -0.48754628858E-02  0.24881837683E-01  0.00000000000E+00 0. -1.
     999901    1    3    3    0    0  0.56736969151E-01 -0.29759878102E-01  0.10036040714E+00  0.88801855011E+00  0.88000000000E+00 0. -1.
        -11    1    4    4    0    0 -0.26459578555E-01  0.26613336398E-01 -0.49185491526E-01  0.61869642549E-01  0.51100000000E-03 0. -1.
         11    1    4    4    0    0 -0.46868255019E-01  0.21037291432E-01 -0.46299452730E-01  0.69159969660E-01  0.51100000000E-03 0.  1.
</event>
<event>
 8    1  0.1054086E+005  0.1043930E+01  0.7957747E-01            NaN
         13   -1    0    0    0    0  0.00000000000E+00  0.00000000000E+00  0.74505805969E-08  0.10566000000E+00  0.10566000000E+00 0.  1.
     999900   -1    0    0    0    0 -0.00000000000E+00 -0.00000000000E+00 -0.74505805969E-08  0.93827000000E+00  0.93827000000E+00 0. -1.
     999902    2    1    2    0    0 -0.80663713320E-02 -0.20338103152E-01 -0.94109142159E-02  0.10201125675E+01  0.10198344867E+01 0.  0.
     999903    2    3    3    0    0 -0.12646541494E+00 -0.29735743386E-02  0.27872146765E-01  0.13123131160E+00  0.21034668019E-01 0.  0.
         14    1    1    2    0    0  0.80663713320E-02  0.20338103152E-01  0.94109142159E-02  0.23817432537E-01  0.00000000000E+00 0. -1.
     999901    1    3    3    0    0  0.11839904361E+00 -0.17364528813E-01 -0.37283060981E-01  0.88888125586E+00  0.88000000000E+00 0. -1.
        -11    1    4    4    0    0 -0.77610778773E-01  0.56691774014E-02  0.98335243941E-02  0.78438076705E-01  0.51100000000E-03 0.  1.
         11    1    4    4    0    0 -0.48854636167E-01 -0.86427517400E-02  0.18038622371E-01  0.52793234895E-01  0.51100000000E-03 0. -1.
</event>
<event>
 8    1  0.1054086E+005  0.1043930E+01  0.7957747E-01            NaN
         13   -1    0    0    0    0  0.00000000000E+00  0.00000000000E+00  0.74505805969E-08  0.10566000000E+00  0.10566000000E+00 0. -1.
     999900   -1    0    0    0    0 -0.00000000000E+00 -0.00000000000E+00 -0.74505805969E-08  0.93827000000E+00  0.93827000000E+00 0.  1.
     999902    2    1    2    0    0 -0.23639121478E-01  0.51706727094E-02 -0.42552146627E-02  0.10193606945E+01  0.10190645587E+01 0.  0.
     999903    2    3    3    0    0 -0.12635855443E+00 -0.67373971541E-02 -0.33531002156E-01  0.13282239541E+00  0.22485191076E-01 0.  0.
         14    1    1    2    0    0  0.23639121478E-01 -0.51706727094E-02  0.42552146627E-02  0.24569305491E-01  0.00000000000E+00 0.  1.
     999901    1    3    3    0    0  0.10271943296E+00  0.11908069864E-01  0.29275787493E-01  0.88653829910E+00  0.88000000000E+00 0. -1.
        -11    1    4    4    0    0 -0.95057470254E-01 -0.90724663766E-02 -0.34179362279E-01  0.10142347965E+00  0.51100000000E-03 0.  1.
         11    1    4    4    0    0 -0.31301084180E-01  0.23350692225E-02  0.64836012322E-03  0.31398915761E-01  0.51100000000E-03 0. -1.
</event>
<event>
 8    1  0.1054086E+005  0.1043930E+01  0.7957747E-01            NaN
         13   -1    0    0    0    0  0.00000000000E+00  0.00000000000E+00  0.74505805969E-08  0.10566000000E+00  0.10566000000E+00 0. -1.
     999900   -1    0    0    0    0 -0.00000000000E+00 -0.00000000000E+00 -0.74505805969E-08  0.93827000000E+00  0.93827000000E+00 0. -1.
     999902    2    1    2    0    0 -0.93519777363E-02 -0.45998399163E-02 -0.22397869639E-01  0.10192261019E+01  0.10189266727E+01 0.  0.
     999903    2    3    3    0    0  0.57834147349E-01  0.13482376996E-01  0.10986337895E+00  0.12662653895E+00  0.20922601280E-01 0.  0.
         14    1    1    2    0    0  0.93519777363E-02  0.45998399163E-02  0.22397869639E-01  0.24703898057E-01  0.00000000000E+00 0. -1.
     999901    1    3    3    0    0 -0.67186125085E-01 -0.18082216913E-01 -0.13226124859E+00  0.89259956299E+00  0.88000000000E+00 0. -1.
        -11    1    4    4    0    0  0.44526868908E-01  0.95100953567E-02  0.62908786030E-01  0.77658614778E-01  0.51100000000E-03 0. -1.
         11    1    4    4    0    0  0.13307278441E-01  0.39722816397E-02  0.46954592918E-01  0.48967924175E-01  0.51100000000E-03 0.  1.
</event>
<event>
 8    1  0.1054086E+005  0.1043930E+01  0.7957747E-01            NaN
         13   -1    0    0    0    0  0.00000000000E+00  0.00000000000E+00  0.74505805969E-08  0.10566000000E+00  0.10566000000E+00 0. -1.
     999900   -1    0    0    0    0 -0.00000000000E+00 -0.00000000000E+00 -0.74505805969E-08  0.93827000000E+00  0.93827000000E+00 0.  1.
     999902    2    1    2    0    0  0.21194980395E-01 -0.47450448306E-03  0.10164290991E-01  0.10204190417E+01  0.10201481537E+01 0.  0.
     999903    2    3    3    0    0  0.88946465753E-01  0.19466772820E-02 -0.94876035886E-01  0.13158295099E+00  0.19933576801E-01 0.  0.
         14    1    1    2    0    0 -0.21194980395E-01  0.47450448306E-03 -0.10164290991E-01  0.23510958291E-01  0.00000000000E+00 0.  1.
     999901    1    3    3    0    0 -0.67751485358E-01 -0.24211817651E-02  0.10504032688E+00  0.88883609072E+00  0.88000000000E+00 0. -1.
        -11    1    4    4    0    0  0.62301719737E-02 -0.45474245082E-03 -0.16318752040E-01  0.17480978882E-01  0.51100000000E-03 0.  1.
         11    1    4    4    0    0  0.82716293779E-01  0.24014197329E-02 -0.78557283845E-01  0.11410197211E+00  0.51100000000E-03 0. -1.
</event>
<event>
 8    1  0.1054086E+005  0.1043930E+01  0.7957747E-01            NaN
         13   -1    0    0    0    0  0.00000000000E+00  0.00000000000E+00  0.74505805969E-08  0.10566000000E+00  0.10566000000E+00 0. -1.
     999900   -1    0    0    0    0 -0.00000000000E+00 -0.00000000000E+00 -0.74505805969E-08  0.93827000000E+00  0.93827000000E+00 0.  1.
     999902    2    1    2    0    0  0.57186386800E-02 -0.17119853435E-01 -0.15774677283E-01  0.10199585033E+01  0.10196767703E+01 0.  0.
     999903    2    3    3    0    0  0.10839896955E+00 -0.71415656221E-01  0.11683299712E-01  0.13190150906E+00  0.20272544127E-01 0.  0.
         14    1    1    2    0    0 -0.57186386800E-02  0.17119853435E-01  0.15774677283E-01  0.23971496686E-01  0.00000000000E+00 0. -1.
     999901    1    3    3    0    0 -0.10268033087E+00  0.54295802786E-01 -0.27457976995E-01  0.88805699426E+00  0.88000000000E+00 0. -1.
        -11    1    4    4    0    0  0.73617022352E-01 -0.53348102697E-01 -0.28669471614E-03  0.90916606603E-01  0.51100000000E-03 0.  1.
         11    1    4    4    0    0  0.34781947202E-01 -0.18067553524E-01  0.11969994428E-01  0.40984902454E-01  0.51100000000E-03 0. -1.
</event>
<event>
 8    1  0.1054086E+005  0.1043930E+01  0.7957747E-01            NaN
         13   -1    0    0    0    0  0.00000000000E+00  0.00000000000E+00  0.74505805969E-08  0.10566000000E+00  0.10566000000E+00 0. -1.
     999900   -1    0    0    0    0 -0.00000000000E+00 -0.00000000000E+00 -0.74505805969E-08  0.93827000000E+00  0.93827000000E+00 0. -1.
     999902    2    1    2    0    0 -0.16195200607E-01  0.97224371261E-02 -0.15025363653E-01  0.10197934746E+01  0.10195078023E+01 0.  0.
     999903    2    3    3    0    0 -0.11655722423E+00 -0.46377723913E-01  0.32182920435E-01  0.13105932651E+00  0.20107881622E-01 0.  0.
         14    1    1    2    0    0  0.16195200607E-01 -0.97224371261E-02  0.15025363653E-01  0.24136525418E-01  0.00000000000E+00 0.  1.
     999901    1    3    3    0    0  0.10036202362E+00  0.56100161039E-01 -0.47208284088E-01  0.88873414807E+00  0.88000000000E+00 0.  1.
        -11    1    4    4    0    0 -0.40401292739E-01 -0.10051105473E-01  0.28694160981E-02  0.41734683969E-01  0.51100000000E-03 0. -1.
         11    1    4    4    0    0 -0.76155931490E-01 -0.36326618441E-01  0.29313504337E-01  0.89324642546E-01  0.51100000000E-03 0.  1.
</event>
<event>
 8    1  0.1054086E+005  0.1043930E+01  0.7957747E-01            NaN
         13   -1    0    0    0    0  0.00000000000E+00  0.00000000000E+00  0.74505805969E-08  0.10566000000E+00  0.10566000000E+00 0.  1.
     999900   -1    0    0    0    0 -0.00000000000E+00 -0.00000000000E+00 -0.74505805969E-08  0.93827000000E+00  0.93827000000E+00 0.  1.
     999902    2    1    2    0    0 -0.19218248433E-03  0.20386121296E-01  0.12188872603E-01  0.10201771162E+01  0.10199005583E+01 0.  0.
     999903    2    3    3    0    0 -0.72345881696E-01  0.10947489541E+00  0.37774897375E-02  0.13270107854E+00  0.19406892897E-01 0.  0.
         14    1    1    2    0    0  0.19218248433E-03 -0.20386121296E-01 -0.12188872603E-01  0.23752883845E-01  0.00000000000E+00 0.  1.
     999901    1    3    3    0    0  0.72153699211E-01 -0.89088774118E-01  0.84113828656E-02  0.88747603762E+00  0.88000000000E+00 0.  1.
        -11    1    4    4    0    0 -0.43733025846E-01  0.52538957449E-01  0.80592847229E-02  0.68834096136E-01  0.51100000000E-03 0. -1.
         11    1    4    4    0    0 -0.28612855849E-01  0.56935937965E-01 -0.42817949854E-02  0.63866982402E-01  0.51100000000E-03 0.  1.
</event>
<event>
 8    1  0.1054086E+005  0.1043930E+01  0.7957747E-01            NaN
         13   -1    0    0    0    0  0.00000000000E+00  0.00000000000E+00  0.74505805969E-08  0.10566000000E+00  0.10566000000E+00 0.  1.
     999900   -1    0    0    0    0 -0.00000000000E+00 -0.00000000000E+00 -0.74505805969E-08  0.93827000000E+00  0.93827000000E+00 0.  1.
     999902    2    1    2    0    0  0.16569185743E-01 -0.17406922296E-01  0.15399162890E-02  0.10198486752E+01  0.10195643237E+01 0.  0.
     999903    2    3    3    0    0 -0.51276641912E-01 -0.89839160100E-01  0.77864555544E-01  0.13098707974E+00  0.19858432836E-01 0.  0.
         14    1    1    2    0    0 -0.16569185743E-01  0.17406922296E-01 -0.15399162890E-02  0.24081324760E-01  0.00000000000E+00 0.  1.
     999901    1    3    3    0    0  0.67845827655E-01  0.72432237803E-01 -0.76324639255E-01  0.88886159550E+00  0.88000000000E+00 0.  1.
        -11    1    4    4    0    0 -0.37447371957E-01 -0.56360899495E-01  0.60684179173E-01  0.90893824770E-01  0.51100000000E-03 0. -1.
         11    1    4    4    0    0 -0.13829269954E-01 -0.33478260604E-01  0.17180376371E-01  0.40093254966E-01  0.51100000000E-03 0.  1.
</event>
<event>
 8    1  0.1054086E+005  0.1043930E+01  0.7957747E-01            NaN
         13   -1    0    0    0    0  0.00000000000E+00  0.00000000000E+00  0.74505805969E-08  0.10566000000E+00  0.10566000000E+00 0. -1.
     999900   -1    0    0    0    0 -0.00000000000E+00 -0.00000000000E+00 -0.74505805969E-08  0.93827000000E+00  0.93827000000E+00 0. -1.
     999902    2    1    2    0    0  0.20026236940E-01 -0.12468366712E-01 -0.18828272189E-02  0.10202645109E+01  0.10199900082E+01 0.  0.
     999903    2    3    3    0    0  0.11503945989E+00 -0.64684102829E-01  0.40708367041E-02  0.13359126686E+00  0.20296412995E-01 0.  0.
         14    1    1    2    0    0 -0.20026236940E-01  0.12468366712E-01  0.18828272189E-02  0.23665489067E-01  0.00000000000E+00 0.  1.
     999901    1    3    3    0    0 -0.95013222950E-01  0.52215736117E-01 -0.59536639230E-02  0.88667324407E+00  0.88000000000E+00 0. -1.
        -11    1    4    4    0    0  0.29112401824E-01 -0.68437509160E-02  0.22220082747E-02  0.29992787605E-01  0.51100000000E-03 0. -1.
         11    1    4    4    0    0  0.85927058066E-01 -0.57840351913E-01  0.18488284294E-02  0.10359847926E+00  0.51100000000E-03 0.  1.
</event>
<event>
 8    1  0.1054086E+005  0.1043930E+01  0.7957747E-01            NaN
         13   -1    0    0    0    0  0.00000000000E+00  0.00000000000E+00  0.74505805969E-08  0.10566000000E+00  0.10566000000E+00 0.  1.
     999900   -1    0    0    0    0 -0.00000000000E+00 -0.00000000000E+00 -0.74505805969E-08  0.93827000000E+00  0.93827000000E+00 0. -1.
     999902    2    1    2    0    0  0.54968958679E-02  0.21257706845E-01  0.83649691778E-02  0.10204336455E+01  0.10201630979E+01 0.  0.
     999903    2    3    3    0    0  0.50462796624E-01  0.48216389302E-01  0.11118428441E+00  0.13289744098E+00  0.20699533273E-01 0.  0.
         14    1    1    2    0    0 -0.54968958679E-02 -0.21257706845E-01 -0.83649691778E-02  0.23496354480E-01  0.00000000000E+00 0. -1.
     999901    1    3    3    0    0 -0.44965900756E-01 -0.26958682456E-01 -0.10281931523E+00  0.88753620454E+00  0.88000000000E+00 0. -1.
        -11    1    4    4    0    0  0.37045422415E-01  0.29158152153E-01  0.57417609922E-01  0.74294038852E-01  0.51100000000E-03 0.  1.
         11    1    4    4    0    0  0.13417374209E-01  0.19058237149E-01  0.53766674489E-01  0.58603402124E-01  0.51100000000E-03 0. -1.
</event>
<event>
 8    1  0.1054086E+005  0.1043930E+01  0.7957747E-01            NaN
         13   -1    0    0    0    0  0.00000000000E+00  0.00000000000E+00  0.74505805969E-08  0.10566000000E+00  0.10566000000E+00 0. -1.
     999900   -1    0    0    0    0 -0.00000000000E+00 -0.00000000000E+00 -0.74505805969E-08  0.93827000000E+00  0.93827000000E+00 0.  1.
     999902    2    1    2    0    0  0.28510105034E-02  0.19400696192E-01  0.13887560899E-01  0.10199012751E+01  0.10196181792E+01 0.  0.
     999903    2    3    3    0    0 -0.93566450833E-01 -0.16765522047E-01  0.87251569987E-01  0.13086438044E+00  0.21837723160E-01 0.  0.
         14    1    1    2    0    0 -0.28510105034E-02 -0.19400696192E-01 -0.13887560899E-01  0.24028724921E-01  0.00000000000E+00 0.  1.
     999901    1    3    3    0    0  0.96417461336E-01  0.36166218240E-01 -0.73364009088E-01  0.88903689463E+00  0.88000000000E+00 0.  1.
        -11    1    4    4    0    0 -0.33798666243E-01 -0.16661788443E-01  0.31225679567E-01  0.48941487711E-01  0.51100000000E-03 0. -1.
         11    1    4    4    0    0 -0.59767784590E-01 -0.10373360481E-03  0.56025890419E-01  0.81922892733E-01  0.51100000000E-03 0.  1.
</event>
<event>
 8    1  0.1054086E+005  0.1043930E+01  0.7957747E-01            NaN
         13   -1    0    0    0    0  0.00000000000E+00  0.00000000000E+00  0.74505805969E-08  0.10566000000E+00  0.10566000000E+00 0.  1.
     999900   -1    0    0    0    0 -0.00000000000E+00 -0.00000000000E+00 -0.74505805969E-08  0.93827000000E+00  0.93827000000E+00 0.  1.
     999902    2    1    2    0    0 -0.18203877122E-01  0.12108147704E-01  0.85289185839E-02  0.10204623449E+01  0.10201924654E+01 0.  0.
     999903    2    3    3    0    0  0.49577678192E-01 -0.10043257657E+00  0.60882899811E-01  0.12917075783E+00  0.20825671110E-01 0.  0.
         14    1    1    2    0    0  0.18203877122E-01 -0.12108147704E-01 -0.85289185839E-02  0.23467655087E-01  0.00000000000E+00 0. -1.
     999901    1    3    3    0    0 -0.67781555314E-01  0.11254072427E+00 -0.52353981227E-01  0.89129158709E+00  0.88000000000E+00 0.  1.
        -11    1    4    4    0    0  0.30297818000E-01 -0.47060292587E-01  0.39586061667E-01  0.68556154452E-01  0.51100000000E-03 0. -1.
         11    1    4    4    0    0  0.19279860192E-01 -0.53372283981E-01  0.21296838144E-01  0.60614603375E-01  0.51100000000E-03 0.  1.
</event>
<event>
 8    1  0.1054086E+005  0.1043930E+01  0.7957747E-01            NaN
         13   -1    0    0    0    0  0.00000000000E+00  0.00000000000E+00  0.74505805969E-08  0.10566000000E+00  0.10566000000E+00 0.  1.
     999900   -1    0    0    0    0 -0.00000000000E+00 -0.00000000000E+00 -0.74505805969E-08  0.93827000000E+00  0.93827000000E+00 0. -1.
     999902    2    1    2    0    0  0.21296215785E-01  0.90300902217E-02 -0.61115789903E-02  0.10200046424E+01  0.10197240057E+01 0.  0.
     999903    2    3    3    0    0  0.11856199713E+00  0.33683571441E-01 -0.46844760190E-01  0.13336626159E+00  0.20014945032E-01 0.  0.
         14    1    1    2    0    0 -0.21296215785E-01 -0.90300902217E-02  0.61115789903E-02  0.23925357551E-01  0.00000000000E+00 0.  1.
     999901    1    3    3    0    0 -0.97265781348E-01 -0.24653481219E-01  0.40733181200E-01  0.88663838086E+00  0.88000000000E+00 0.  1.
        -11    1    4    4    0    0  0.29191745240E-01  0.11250790459E-03 -0.14233268317E-01  0.32481035946E-01  0.51100000000E-03 0. -1.
         11    1    4    4    0    0  0.89370251893E-01  0.33571063536E-01 -0.32611491874E-01  0.10088522565E+00  0.51100000000E-03 0.  1.
</event>
<event>
 8    1  0.1054086E+005  0.1043930E+01  0.7957747E-01            NaN
         13   -1    0    0    0    0  0.00000000000E+00  0.00000000000E+00  0.74505805969E-08  0.10566000000E+00  0.10566000000E+00 0. -1.
     999900   -1    0    0    0    0 -0.00000000000E+00 -0.00000000000E+00 -0.74505805969E-08  0.93827000000E+00  0.93827000000E+00 0. -1.
     999902    2    1    2    0    0  0.21677559163E-01  0.55645065350E-02 -0.36086327955E-02  0.10212605815E+01  0.10210089484E+01 0.  0.
     999903    2    3    3    0    0  0.66182271447E-01  0.79687343126E-02 -0.11337197313E+00  0.13332227249E+00  0.21863903382E-01 0.  0.
         14    1    1    2    0    0 -0.21677559163E-01 -0.55645065350E-02  0.36086327955E-02  0.22669418495E-01  0.00000000000E+00 0. -1.
     999901    1    3    3    0    0 -0.44504712283E-01 -0.24042277777E-02  0.10976334034E+00  0.88793830901E+00  0.88000000000E+00 0.  1.
        -11    1    4    4    0    0  0.37558891536E-01  0.91563491842E-03 -0.43477544854E-01  0.57463612384E-01  0.51100000000E-03 0. -1.
         11    1    4    4    0    0  0.28623379911E-01  0.70530993942E-02 -0.69894428276E-01  0.75858660110E-01  0.51100000000E-03 0.  1.
</event>
<event>
 8    1  0.1054086E+005  0.1043930E+01  0.7957747E-01            NaN
         13   -1    0    0    0    0  0.00000000000E+00  0.00000000000E+00  0.74505805969E-08  0.10566000000E+00  0.10566000000E+00 0.  1.
     999900   -1    0    0    0    0 -0.00000000000E+00 -0.00000000000E+00 -0.74505805969E-08  0.93827000000E+00  0.93827000000E+00 0.  1.
     999902    2    1    2    0    0 -0.48028093328E-02  0.21721023142E-01  0.45691327975E-02  0.10212199406E+01  0.10209673943E+01 0.  0.
     999903    2    3    3    0    0 -0.49790030440E-01  0.20628732331E-01 -0.11853021707E+00  0.13151297024E+00  0.18483972841E-01 0.  0.
         14    1    1    2    0    0  0.48028093328E-02 -0.21721023142E-01 -0.45691327975E-02  0.22710059408E-01  0.00000000000E+00 0. -1.
     999901    1    3    3    0    0  0.44987221107E-01  0.10922908110E-02  0.12309934987E+00  0.88970697036E+00  0.88000000000E+00 0. -1.
        -11    1    4    4    0    0 -0.13795293431E-01  0.79842083970E-02 -0.18340996176E-01  0.24304546207E-01  0.51100000000E-03 0.  1.
         11    1    4    4    0    0 -0.35994737010E-01  0.12644523934E-01 -0.10018922090E+00  0.10720842403E+00  0.51100000000E-03 0. -1.
</event>
<event>
 8    1  0.1054086E+005  0.1043930E+01  0.7957747E-01            NaN
         13   -1    0    0    0    0  0.00000000000E+00  0.00000000000E+00  0.74505805969E-08  0.10566000000E+00  0.10566000000E+00 0. -1.
     999900   -1    0    0    0    0 -0.00000000000E+00 -0.00000000000E+00 -0.74505805969E-08  0.93827000000E+00  0.93827000000E+00 0.  1.
     999902    2    1    2    0    0 -0.17596296031E-01  0.87854316045E-02 -0.13037814456E-01  0.10203334314E+01  0.10200605439E+01 0.  0.
     999903    2    3    3    0    0  0.36565005135E-01  0.11384669064E+00  0.48032199121E-01  0.13033294758E+00  0.19532447434E-01 0.  0.
         14    1    1    2    0    0  0.17596296031E-01 -0.87854316045E-02  0.13037814456E-01  0.23596568570E-01  0.00000000000E+00 0. -1.
     999901    1    3    3    0    0 -0.54161301166E-01 -0.10506125903E+00 -0.61070013577E-01  0.89000048385E+00  0.88000000000E+00 0.  1.
        -11    1    4    4    0    0  0.26614891447E-01  0.56121493820E-01  0.19007116608E-01  0.64957725622E-01  0.51100000000E-03 0. -1.
         11    1    4    4    0    0  0.99501136878E-02  0.57725196819E-01  0.29025082513E-01  0.65375221958E-01  0.51100000000E-03 0.  1.
</event>
<event>
 8    1  0.1054086E+005  0.1043930E+01  0.7957747E-01            NaN
         13   -1    0    0    0    0  0.00000000000E+00  0.00000000000E+00  0.74505805969E-08  0.10566000000E+00  0.10566000000E+00 0.  1.
     999900   -1    0    0    0    0 -0.00000000000E+00 -0.00000000000E+00 -0.74505805969E-08  0.93827000000E+00  0.93827000000E+00 0.  1.
     999902    2    1    2    0    0  0.31785370195E-02  0.11895124498E-01 -0.17654343744E-01  0.10224062239E+01  0.10221796387E+01 0.  0.
     999903    2    3    3    0    0  0.10710722374E+00 -0.51279592223E-01 -0.56874687430E-01  0.13317596569E+00  0.19988842202E-01 0.  0.
         14    1    1    2    0    0 -0.31785370195E-02 -0.11895124498E-01  0.17654343744E-01  0.21523776096E-01  0.00000000000E+00 0.  1.
     999901    1    3    3    0    0 -0.10392868672E+00  0.63174716721E-01  0.39220343687E-01  0.88923025821E+00  0.88000000000E+00 0.  1.
        -11    1    4    4    0    0  0.63673264052E-01 -0.19525834017E-01 -0.30491574392E-01  0.73249846273E-01  0.51100000000E-03 0.  1.
         11    1    4    4    0    0  0.43433959688E-01 -0.31753758205E-01 -0.26383113038E-01  0.59926119422E-01  0.51100000000E-03 0. -1.
</event>
<event>
 8    1  0.1054086E+005  0.1043930E+01  0.7957747E-01            NaN
         13   -1    0    0    0    0  0.00000000000E+00  0.00000000000E+00  0.74505805969E-08  0.10566000000E+00  0.10566000000E+00 0.  1.
     999900   -1    0    0    0    0 -0.00000000000E+00 -0.00000000000E+00 -0.74505805969E-08  0.93827000000E+00  0.93827000000E+00 0. -1.
     999902    2    1    2    0    0  0.13081802487E-01  0.99526338670E-02  0.17381269244E-01  0.10200072703E+01  0.10197266959E+01 0.  0.
     999903    2    3    3    0    0 -0.70710431723E-01 -0.58868858593E-02 -0.10414849173E+00  0.12757155174E+00  0.19823519011E-01 0.  0.
         14    1    1    2    0    0 -0.13081802487E-01 -0.99526338670E-02 -0.17381269244E-01  0.23922729730E-01  0.00000000000E+00 0. -1.
     999901    1    3    3    0    0  0.83792234209E-01  0.15839519726E-01  0.12152976097E+00  0.89243571853E+00  0.88000000000E+00 0.  1.
        -11    1    4    4    0    0 -0.94733458823E-02 -0.63848851610E-02 -0.25045499046E-01  0.27532693006E-01  0.51100000000E-03 0. -1.
         11    1    4    4    0    0 -0.61237085840E-01  0.49799930174E-03 -0.79102992681E-01  0.10003885874E+00  0.51100000000E-03 0.  1.
</event>
<event>
 7    1  0.1054086E+005  0.1043930E+01  0.7957747E-01            NaN
         13   -1    0    0    0    0  0.00000000000E+00  0.00000000000E+00  0.74505805969E-08  0.10566000000E+00  0.10566000000E+00 0.  1.
     999900   -1    0    0    0    0 -0.00000000000E+00 -0.00000000000E+00 -0.74505805969E-08  0.93827000000E+00  0.93827000000E+00 0.  1.
     999903    2    1    2    0    0 -0.11271243064E+00  0.36093175067E-02 -0.31788894445E-01  0.11889756226E+00  0.20223187421E-01 0.  0.
         14    1    1    2    0    0  0.20003469318E-01 -0.33604196829E-01  0.11486275427E-02  0.39124163563E-01  0.00000000000E+00 0. -1.
     999901    1    1    2    0    0  0.92708961317E-01  0.29994879322E-01  0.30640266902E-01  0.88590827417E+00  0.88000000000E+00 0. -1.
        -11    1    3    3    0    0 -0.53300411167E-01  0.76704163662E-02 -0.23555243557E-01  0.58778225031E-01  0.51100000000E-03 0. -1.
         11    1    3    3    0    0 -0.59412019468E-01 -0.40610988595E-02 -0.82336508881E-02  0.60119337232E-01  0.51100000000E-03 0.  1.
</event>
<event>
 8    1  0.1054086E+005  0.1043930E+01  0.7957747E-01            NaN
         13   -1    0    0    0    0  0.00000000000E+00  0.00000000000E+00  0.74505805969E-08  0.10566000000E+00  0.10566000000E+00 0.  1.
     999900   -1    0    0    0    0 -0.00000000000E+00 -0.00000000000E+00 -0.74505805969E-08  0.93827000000E+00  0.93827000000E+00 0.  1.
     999902    2    1    2    0    0  0.20224995805E-01 -0.62511858058E-03  0.14176207078E-01  0.10192236025E+01  0.10189241119E+01 0.  0.
     999903    2    3    3    0    0 -0.11327913424E+00 -0.14492823376E-01  0.54529383778E-01  0.12813211181E+00  0.20054430880E-01 0.  0.
         14    1    1    2    0    0 -0.20224995805E-01  0.62511858058E-03 -0.14176207078E-01  0.24706397464E-01  0.00000000000E+00 0.  1.
     999901    1    3    3    0    0  0.13350413005E+00  0.13867704795E-01 -0.40353176700E-01  0.89109149073E+00  0.88000000000E+00 0. -1.
        -11    1    4    4    0    0 -0.73078171621E-01 -0.13079443002E-01  0.25406661962E-01  0.78468150161E-01  0.51100000000E-03 0.  1.
         11    1    4    4    0    0 -0.40200962619E-01 -0.14133803737E-02  0.29122721816E-01  0.49663961648E-01  0.51100000000E-03 0. -1.
</event>
<event>
 8    1  0.1054086E+005  0.1043930E+01  0.7957747E-01            NaN
         13   -1    0    0    0    0  0.00000000000E+00  0.00000000000E+00  0.74505805969E-08  0.10566000000E+00  0.10566000000E+00 0.  1.
     999900   -1    0    0    0    0 -0.00000000000E+00 -0.00000000000E+00 -0.74505805969E-08  0.93827000000E+00  0.93827000000E+00 0.  1.
     999902    2    1    2    0    0  0.15112742170E-01 -0.11199988566E-01 -0.13614147700E-01  0.10207097559E+01  0.10204456017E+01 0.  0.
     999903    2    3    3    0    0  0.85765272517E-01  0.33753126873E-02 -0.10021760042E+00  0.13352072445E+00  0.20424047522E-01 0.  0.
         14    1    1    2    0    0 -0.15112742170E-01  0.11199988566E-01  0.13614147700E-01  0.23220244128E-01  0.00000000000E+00 0. -1.
     999901    1    3    3    0    0 -0.70652530346E-01 -0.14575301253E-01  0.86603452725E-01  0.88718903142E+00  0.88000000000E+00 0. -1.
        -11    1    4    4    0    0  0.47358631560E-01 -0.31933721008E-02 -0.68162289222E-01  0.83062605315E-01  0.51100000000E-03 0.  1.
         11    1    4    4    0    0  0.38406640956E-01  0.65686847881E-02 -0.32055311202E-01  0.50458119135E-01  0.51100000000E-03 0. -1.
</event>
<event>
 8    1  0.1054086E+005  0.1043930E+01  0.7957747E-01            NaN
         13   -1    0    0    0    0  0.00000000000E+00  0.00000000000E+00  0.74505805969E-08  0.10566000000E+00  0.10566000000E+00 0. -1.
     999900   -1    0    0    0    0 -0.00000000000E+00 -0.00000000000E+00 -0.74505805969E-08  0.93827000000E+00  0.93827000000E+00 0.  1.
     999902    2    1    2    0    0 -0.27536079803E-02 -0.18231615296E-01  0.15983394742E-03  0.10254909192E+01  0.10253251317E+01 0.  0.
     999903    2    3    3    0    0 -0.21728920012E-01  0.11500520734E+00 -0.60308053391E-01  0.13320818445E+00  0.20224129659E-01 0.  0.
         14    1    1    2    0    0  0.27536079803E-02  0.18231615296E-01 -0.15983394742E-03  0.18439080783E-01  0.00000000000E+00 0. -1.
     999901    1    3    3    0    0  0.18975312031E-01 -0.13323682263E+00  0.60467887339E-01  0.89228273477E+00  0.88000000000E+00 0. -1.
        -11    1    4    4    0    0 -0.13753528810E-02  0.51954385088E-01 -0.32858559361E-01  0.61490615298E-01  0.51100000000E-03 0. -1.
         11    1    4    4    0    0 -0.20353567131E-01  0.63050822247E-01 -0.27449494030E-01  0.71717569148E-01  0.51100000000E-03 0.  1.
</event>
<event>
 8    1  0.1054086E+005  0.1043930E+01  0.7957747E-01            NaN
         13   -1    0    0    0    0  0.00000000000E+00  0.00000000000E+00  0.74505805969E-08  0.10566000000E+00  0.10566000000E+00 0. -1.
     999900   -1    0    0    0    0 -0.00000000000E+00 -0.00000000000E+00 -0.74505805969E-08  0.93827000000E+00  0.93827000000E+00 0.  1.
     999902    2    1    2    0    0  0.15086832880E-01  0.12246475905E-02  0.17622077858E-01  0.10206996338E+01  0.10204352466E+01 0.  0.
     999903    2    3    3    0    0 -0.12253694764E+00 -0.24941088783E-01  0.24778803303E-01  0.12959011778E+00  0.23286220985E-01 0.  0.
         14    1    1    2    0    0 -0.15086832880E-01 -0.12246475905E-02 -0.17622077858E-01  0.23230366250E-01  0.00000000000E+00 0.  1.
     999901    1    3    3    0    0  0.13762378052E+00  0.26165736374E-01 -0.71567254448E-02  0.89110951597E+00  0.88000000000E+00 0.  1.
        -11    1    4    4    0    0 -0.11512111344E+00 -0.28900816343E-01  0.24284552804E-01  0.12115332670E+00  0.51100000000E-03 0. -1.
         11    1    4    4    0    0 -0.74158341985E-02  0.39597275595E-02  0.49425049899E-03  0.84367910820E-02  0.51100000000E-03 0.  1.
</event>
<event>
 8    1  0.1054086E+005  0.1043930E+01  0.7957747E-01            NaN
         13   -1    0    0    0    0  0.00000000000E+00  0.00000000000E+00  0.74505805969E-08  0.10566000000E+00  0.10566000000E+00 0. -1.
     999900   -1    0    0    0    0 -0.00000000000E+00 -0.00000000000E+00 -0.74505805969E-08  0.93827000000E+00  0.93827000000E+00 0. -1.
     999902    2    1    2    0    0  0.11403787114E-01 -0.21319601427E-01 -0.17130408902E-02  0.10196914713E+01  0.10194033502E+01 0.  0.
     999903    2    3    3    0    0 -0.18057193947E-01 -0.82672307195E-01 -0.98810577989E-01  0.13173874978E+00  0.20755607430E-01 0.  0.
         14    1    1    2    0    0 -0.11403787114E-01  0.21319601427E-01  0.17130408902E-02  0.24238528723E-01  0.00000000000E+00 0. -1.
     999901    1    3    3    0    0  0.29460981061E-01  0.61352705768E-01  0.97097537099E-01  0.88795272150E+00  0.88000000000E+00 0.  1.
        -11    1    4    4    0    0 -0.19986733425E-01 -0.54025877250E-01 -0.74074132904E-01  0.93837642831E-01  0.51100000000E-03 0.  1.
         11    1    4    4    0    0  0.19295394777E-02 -0.28646429945E-01 -0.24736445085E-01  0.37901106945E-01  0.51100000000E-03 0. -1.
</event>
<event>
 8    1  0.1054086E+005  0.1043930E+01  0.7957747E-01            NaN
         13   -1    0    0    0    0  0.00000000000E+00  0.00000000000E+00  0.74505805969E-08  0.10566000000E+00  0.10566000000E+00 0. -1.
     999900   -1    0    0    0    0 -0.00000000000E+00 -0.00000000000E+00 -0.74505805969E-08  0.93827000000E+00  0.93827000000E+00 0. -1.
     999902    2    1    2    0    0  0.10717138963E-01 -0.20836912776E-01  0.34097432519E-02  0.10202517325E+01  0.10199769298E+01 0.  0.
     999903    2    3    3    0    0 -0.25093810484E-01  0.75871575418E-01  0.99342525930E-01  0.12905138772E+00  0.19978186430E-01 0.  0.
         14    1    1    2    0    0 -0.10717138963E-01  0.20836912776E-01 -0.34097432519E-02  0.23678267476E-01  0.00000000000E+00 0. -1.
     999901    1    3    3    0    0  0.35810949447E-01 -0.96708488194E-01 -0.95932782678E-01  0.89120034481E+00  0.88000000000E+00 0. -1.
        -11    1    4    4    0    0 -0.80170767938E-02  0.50665682942E-02  0.10234448482E-01  0.13962402778E-01  0.51100000000E-03 0. -1.
         11    1    4    4    0    0 -0.17076733690E-01  0.70805007124E-01  0.89108077448E-01  0.11508898494E+00  0.51100000000E-03 0.  1.
</event>
<event>
 8    1  0.1054086E+005  0.1043930E+01  0.7957747E-01            NaN
         13   -1    0    0    0    0  0.00000000000E+00  0.00000000000E+00  0.74505805969E-08  0.10566000000E+00  0.10566000000E+00 0.  1.
     999900   -1    0    0    0    0 -0.00000000000E+00 -0.00000000000E+00 -0.74505805969E-08  0.93827000000E+00  0.93827000000E+00 0. -1.
     999902    2    1    2    0    0  0.14550079761E-01  0.19091360503E-01 -0.48163837662E-03  0.10199213174E+01  0.10196386991E+01 0.  0.
     999903    2    3    3    0    0 -0.38277281827E-01  0.12433913034E+00  0.10061268943E-01  0.13201424109E+00  0.20029005975E-01 0.  0.
         14    1    1    2    0    0 -0.14550079761E-01 -0.19091360503E-01  0.48163837662E-03  0.24008682646E-01  0.00000000000E+00 0. -1.
     999901    1    3    3    0    0  0.52827361588E-01 -0.10524776983E+00 -0.10542907319E-01  0.88790707627E+00  0.88000000000E+00 0.  1.
        -11    1    4    4    0    0 -0.29060486302E-01  0.11130645283E+00  0.45822681959E-02  0.11512991188E+00  0.51100000000E-03 0.  1.
         11    1    4    4    0    0 -0.92167955250E-02  0.13032677503E-01  0.54790007466E-02  0.16884329209E-01  0.51100000000E-03 0. -1.
</event>
<event>
 8    1  0.1054086E+005  0.1043930E+01  0.7957747E-01            NaN
         13   -1    0    0    0    0  0.00000000000E+00  0.00000000000E+00  0.74505805969E-08  0.10566000000E+00  0.10566000000E+00 0.  1.
     999900   -1    0    0    0    0 -0.00000000000E+00 -0.00000000000E+00 -0.74505805969E-08  0.93827000000E+00  0.93827000000E+00 0.  1.
     999902    2    1    2    0    0  0.90008822943E-02 -0.14130067791E-01 -0.17142332849E-01  0.10199605554E+01  0.10196788712E+01 0.  0.
     999903    2    3    3    0    0 -0.33921704478E-01  0.58509571316E-01  0.10594753512E+00  0.12739684273E+00  0.20761102288E-01 0.  0.
         14    1    1    2    0    0 -0.90008822943E-02  0.14130067791E-01  0.17142332849E-01  0.23969444578E-01  0.00000000000E+00 0.  1.
     999901    1    3    3    0    0  0.42922586773E-01 -0.72639639107E-01 -0.12308986797E+00  0.89256371270E+00  0.88000000000E+00 0.  1.
        -11    1    4    4    0    0 -0.13036765650E-01  0.35129186761E-01  0.72110715267E-01  0.81266434636E-01  0.51100000000E-03 0. -1.
         11    1    4    4    0    0 -0.20884938828E-01  0.23380384555E-01  0.33836819853E-01  0.46130408090E-01  0.51100000000E-03 0.  1.
</event>
<event>
 8    1  0.1054086E+005  0.1043930E+01  0.7957747E-01            NaN
         13   -1    0    0    0    0  0.00000000000E+00  0.00000000000E+00  0.74505805969E-08  0.10566000000E+00  0.10566000000E+00 0. -1.
     999900   -1    0    0    0    0 -0.00000000000E+00 -0.00000000000E+00 -0.74505805969E-08  0.93827000000E+00  0.93827000000E+00 0. -1.
     999902    2    1    2    0    0 -0.86828951381E-02  0.19806291573E-01 -0.11156733165E-01  0.10195957741E+01  0.10193053458E+01 0.  0.
     999903    2    3    3    0    0 -0.53957719260E-01  0.96307769513E-01 -0.71677156109E-01  0.13304909887E+00  0.19437748451E-01 0.  0.
         14    1    1    2    0    0  0.86828951381E-02 -0.19806291573E-01  0.11156733165E-01  0.24334225871E-01  0.00000000000E+00 0. -1.
     999901    1    3    3    0    0  0.45274824122E-01 -0.76501477940E-01  0.60520422944E-01  0.88654667526E+00  0.88000000000E+00 0. -1.
        -11    1    4    4    0    0 -0.19408025088E-01  0.27363568977E-01 -0.31816121175E-01  0.46238112338E-01  0.51100000000E-03 0.  1.
         11    1    4    4    0    0 -0.34549694173E-01  0.68944200536E-01 -0.39861034934E-01  0.86810986528E-01  0.51100000000E-03 0. -1.
</event>
<event>
 8    1  0.1054086E+005  0.1043930E+01  0.7957747E-01            NaN
         13   -1    0    0    0    0  0.00000000000E+00  0.00000000000E+00  0.74505805969E-08  0.10566000000E+00  0.10566000000E+00 0.  1.
     999900   -1    0    0    0    0 -0.00000000000E+00 -0.00000000000E+00 -0.74505805969E-08  0.93827000000E+00  0.93827000000E+00 0. -1.
     999902    2    1    2    0    0  0.23354523479E-01 -0.52229074091E-02  0.40987638358E-02  0.10196501237E+01  0.10193610069E+01 0.  0.
     999903    2    3    3    0    0  0.75658169524E-01 -0.52039144831E-01  0.93273983166E-01  0.13236231738E+00  0.19685423967E-01 0.  0.
         14    1    1    2    0    0 -0.23354523479E-01  0.52229074091E-02 -0.40987638358E-02  0.24279876312E-01  0.00000000000E+00 0. -1.
     999901    1    3    3    0    0 -0.52303646045E-01  0.46816237422E-01 -0.89175219330E-01  0.88728780631E+00  0.88000000000E+00 0. -1.
        -11    1    4    4    0    0  0.32187307275E-01 -0.16826703927E-01  0.25005930065E-01  0.44098961145E-01  0.51100000000E-03 0. -1.
         11    1    4    4    0    0  0.43470862249E-01 -0.35212440904E-01  0.68268053101E-01  0.88263356238E-01  0.51100000000E-03 0.  1.
</event>
<event>
 8    1  0.1054086E+005  0.1043930E+01  0.7957747E-01            NaN
         13   -1    0    0    0    0  0.00000000000E+00  0.00000000000E+00  0.74505805969E-08  0.10566000000E+00  0.10566000000E+00 0. -1.
     999900   -1    0    0    0    0 -0.00000000000E+00 -0.00000000000E+00 -0.74505805969E-08  0.93827000000E+00  0.93827000000E+00 0.  1.
     999902    2    1    2    0    0 -0.69039184692E-02  0.37365508198E-02  0.21744736861E-01  0.10208116202E+01  0.10205498050E+01 0.  0.
     999903    2    3    3    0    0  0.11306403242E+00 -0.49414220729E-01 -0.33227876299E-01  0.12938618759E+00  0.20284307641E-01 0.  0.
         14    1    1    2    0    0  0.69039184692E-02 -0.37365508198E-02 -0.21744736861E-01  0.23118379774E-01  0.00000000000E+00 0.  1.
     999901    1    3    3    0    0 -0.11996795089E+00  0.53150771549E-01  0.54972613160E-01  0.89142543264E+00  0.88000000000E+00 0. -1.
        -11    1    4    4    0    0  0.67610383355E-01 -0.37840689775E-01 -0.14224131178E-01  0.78776067234E-01  0.51100000000E-03 0. -1.
         11    1    4    4    0    0  0.45453649069E-01 -0.11573530954E-01 -0.19003745121E-01  0.50610120352E-01  0.51100000000E-03 0.  1.
</event>
<event>
 8    1  0.1054086E+005  0.1043930E+01  0.7957747E-01            NaN
         13   -1    0    0    0    0  0.00000000000E+00  0.00000000000E+00  0.74505805969E-08  0.10566000000E+00  0.10566000000E+00 0. -1.
     999900   -1    0    0    0    0 -0.00000000000E+00 -0.00000000000E+00 -0.74505805969E-08  0.93827000000E+00  0.93827000000E+00 0. -1.
     999902    2    1    2    0    0  0.12494697507E-01  0.29686946441E-02  0.19147531331E-01  0.10208744460E+01  0.10206140681E+01 0.  0.
     999903    2    3    3    0    0  0.30052810554E-01 -0.43551514928E-01  0.12108520588E+00  0.13359562471E+00  0.19653447132E-01 0.  0.
         14    1    1    2    0    0 -0.12494697507E-01 -0.29686946441E-02 -0.19147531331E-01  0.23055553989E-01  0.00000000000E+00 0.  1.
     999901    1    3    3    0    0 -0.17558113047E-01  0.46520209573E-01 -0.10193767455E+00  0.88727882130E+00  0.88000000000E+00 0. -1.
        -11    1    4    4    0    0  0.20061256631E-01 -0.13249583482E-01  0.60861519951E-01  0.65439981753E-01  0.51100000000E-03 0.  1.
         11    1    4    4    0    0  0.99915539228E-02 -0.30301931446E-01  0.60223685930E-01  0.68155642959E-01  0.51100000000E-03 0. -1.
</event>
<event>
 8    1  0.1054086E+005  0.1043930E+01  0.7957747E-01            NaN
         13   -1    0    0    0    0  0.00000000000E+00  0.00000000000E+00  0.74505805969E-08  0.10566000000E+00  0.10566000000E+00 0. -1.
     999900   -1    0    0    0    0 -0.00000000000E+00 -0.00000000000E+00 -0.74505805969E-08  0.93827000000E+00  0.93827000000E+00 0. -1.
     999902    2    1    2    0    0  0.54829280143E-02 -0.22855492981E-01 -0.84184002584E-02  0.10189639126E+01  0.10186580140E+01 0.  0.
     999903    2    3    3    0    0 -0.53054539530E-01  0.38123849971E-01  0.10710836397E+00  0.12739700614E+00  0.22126532470E-01 0.  0.
         14    1    1    2    0    0 -0.54829280143E-02  0.22855492981E-01  0.84184002584E-02  0.24966087437E-01  0.00000000000E+00 0. -1.
     999901    1    3    3    0    0  0.58537467544E-01 -0.60979342952E-01 -0.11552676423E+00  0.89156690642E+00  0.88000000000E+00 0.  1.
        -11    1    4    4    0    0 -0.39371838706E-01  0.33014730723E-01  0.65206309274E-01  0.83019503841E-01  0.51100000000E-03 0. -1.
         11    1    4    4    0    0 -0.13682700824E-01  0.51091192475E-02  0.41902054699E-01  0.44377502300E-01  0.51100000000E-03 0.  1.
</event>
<event>
 8    1  0.1054086E+005  0.1043930E+01  0.7957747E-01            NaN
         13   -1    0    0    0    0  0.00000000000E+00  0.00000000000E+00  0.74505805969E-08  0.10566000000E+00  0.10566000000E+00 0.  1.
     999900   -1    0    0    0    0 -0.00000000000E+00 -0.00000000000E+00 -0.74505805969E-08  0.93827000000E+00  0.93827000000E+00 0. -1.
     999902    2    1    2    0    0 -0.89211420010E-04 -0.22982543724E-01  0.41023295128E-02  0.10205840286E+01  0.10203169728E+01 0.  0.
     999903    2    3    3    0    0  0.31612609844E-01 -0.85435108565E-02  0.12587955315E+00  0.13151531169E+00  0.19449077839E-01 0.  0.
         14    1    1    2    0    0  0.89211420010E-04  0.22982543724E-01 -0.41023295128E-02  0.23345971432E-01  0.00000000000E+00 0. -1.
     999901    1    3    3    0    0 -0.31701821264E-01 -0.14439032867E-01 -0.12177722363E+00  0.88906871688E+00  0.88000000000E+00 0. -1.
        -11    1    4    4    0    0  0.23168440879E-01 -0.11007371601E-01  0.63032783194E-01  0.68053888651E-01  0.51100000000E-03 0. -1.
         11    1    4    4    0    0  0.84441689645E-02  0.24638607442E-02  0.62846769952E-01  0.63461423035E-01  0.51100000000E-03 0.  1.
</event>
<event>
 8    1  0.1054086E+005  0.1043930E+01  0.7957747E-01            NaN
         13   -1    0    0    0    0  0.00000000000E+00  0.00000000000E+00  0.74505805969E-08  0.10566000000E+00  0.10566000000E+00 0. -1.
     999900   -1    0    0    0    0 -0.00000000000E+00 -0.00000000000E+00 -0.74505805969E-08  0.93827000000E+00  0.93827000000E+00 0.  1.
     999902    2    1    2    0    0  0.22238551781E-01  0.50067739918E-02 -0.21293167058E-01  0.10127367325E+01  0.10122562272E+01 0.  0.
     999903    2    3    3    0    0  0.52001002231E-01  0.10918530111E+00  0.23988683337E-01  0.12493640874E+00  0.20201858562E-01 0.  0.
         14    1    1    2    0    0 -0.22238551781E-01 -0.50067739918E-02  0.21293167058E-01  0.31193267454E-01  0.00000000000E+00 0. -1.
     999901    1    3    3    0    0 -0.29762450450E-01 -0.10417852712E+00 -0.45281850395E-01  0.88780032380E+00  0.88000000000E+00 0.  1.
        -11    1    4    4    0    0  0.32745925912E-01  0.87357808806E-01  0.21344413440E-01  0.95705420585E-01  0.51100000000E-03 0. -1.
         11    1    4    4    0    0  0.19255076318E-01  0.21827492306E-01  0.26442698970E-02  0.29230988158E-01  0.51100000000E-03 0.  1.
</event>
<event>
 8    1  0.1054086E+005  0.1043930E+01  0.7957747E-01            NaN
         13   -1    0    0    0    0  0.00000000000E+00  0.00000000000E+00  0.74505805969E-08  0.10566000000E+00  0.10566000000E+00 0. -1.
     999900   -1    0    0    0    0 -0.00000000000E+00 -0.00000000000E+00 -0.74505805969E-08  0.93827000000E+00  0.93827000000E+00 0. -1.
     999902    2    1    2    0    0 -0.22122477326E-02  0.16877792309E-01 -0.16514461016E-01  0.10202133110E+01  0.10199376053E+01 0.  0.
     999903    2    3    3    0    0 -0.10087264020E+00  0.60969199735E-01 -0.57940113066E-01  0.13263570321E+00  0.18510543095E-01 0.  0.
         14    1    1    2    0    0  0.22122477326E-02 -0.16877792309E-01  0.16514461016E-01  0.23716688974E-01  0.00000000000E+00 0. -1.
     999901    1    3    3    0    0  0.98660392470E-01 -0.44091407426E-01  0.41425652050E-01  0.88757760782E+00  0.88000000000E+00 0. -1.
        -11    1    4    4    0    0 -0.58540351005E-01  0.35994656391E-01 -0.23547842974E-01  0.72645371596E-01  0.51100000000E-03 0. -1.
         11    1    4    4    0    0 -0.42332289197E-01  0.24974543344E-01 -0.34392270092E-01  0.59990331612E-01  0.51100000000E-03 0.  1.
</event>
<event>
 8    1  0.1054086E+005  0.1043930E+01  0.7957747E-01            NaN
         13   -1    0    0    0    0  0.00000000000E+00  0.00000000000E+00  0.74505805969E-08  0.10566000000E+00  0.10566000000E+00 0.  1.
     999900   -1    0    0    0    0 -0.00000000000E+00 -0.00000000000E+00 -0.74505805969E-08  0.93827000000E+00  0.93827000000E+00 0.  1.
     999902    2    1    2    0    0 -0.17811292322E-01  0.14878280800E-01  0.39072565457E-02  0.10203955141E+01  0.10201240773E+01 0.  0.
     999903    2    3    3    0    0  0.67230155525E-01  0.10874496307E+00  0.21231873401E-01  0.13115811932E+00  0.20156860122E-01 0.  0.
         14    1    1    2    0    0  0.17811292322E-01 -0.14878280800E-01 -0.39072565457E-02  0.23534485919E-01  0.00000000000E+00 0. -1.
     999901    1    3    3    0    0 -0.85041447847E-01 -0.93866682272E-01 -0.17324616855E-01  0.88923739476E+00  0.88000000000E+00 0.  1.
        -11    1    4    4    0    0  0.65870386154E-01  0.10283563926E+00  0.16067266783E-01  0.12317668065E+00  0.51100000000E-03 0.  1.
         11    1    4    4    0    0  0.13597693707E-02  0.59093238132E-02  0.51646066180E-02  0.79814386667E-02  0.51100000000E-03 0. -1.
</event>
<event>
 8    1  0.1054086E+005  0.1043930E+01  0.7957747E-01            NaN
         13   -1    0    0    0    0  0.00000000000E+00  0.00000000000E+00  0.74505805969E-08  0.10566000000E+00  0.10566000000E+00 0.  1.
     999900   -1    0    0    0    0 -0.00000000000E+00 -0.00000000000E+00 -0.74505805969E-08  0.93827000000E+00  0.93827000000E+00 0. -1.
     999902    2    1    2    0    0  0.21608713882E-01  0.99192834893E-02 -0.99922163005E-03  0.10201323710E+01  0.10198547579E+01 0.  0.
     999903    2    3    3    0    0 -0.10491410840E+00  0.63278980774E-01 -0.23302884259E-01  0.12920435193E+00  0.33757082136E-01 0.  0.
         14    1    1    2    0    0 -0.21608713882E-01 -0.99192834893E-02  0.99922163005E-03  0.23797628967E-01  0.00000000000E+00 0.  1.
     999901    1    3    3    0    0  0.12652282228E+00 -0.53359697285E-01  0.22303662629E-01  0.89092801910E+00  0.88000000000E+00 0.  1.
        -11    1    4    4    0    0 -0.49794685413E-01  0.13556933429E-01 -0.18462566311E-01  0.54812668382E-01  0.51100000000E-03 0.  1.
         11    1    4    4    0    0 -0.55119422987E-01  0.49722047345E-01 -0.48403179479E-02  0.74391683550E-01  0.51100000000E-03 0. -1.
</event>
<event>
 8    1  0.1054086E+005  0.1043930E+01  0.7957747E-01            NaN
         13   -1    0    0    0    0  0.00000000000E+00  0.00000000000E+00  0.74505805969E-08  0.10566000000E+00  0.10566000000E+00 0. -1.
     999900   -1    0    0    0    0 -0.00000000000E+00 -0.00000000000E+00 -0.74505805969E-08  0.93827000000E+00  0.93827000000E+00 0.  1.
     999902    2    1    2    0    0  0.23451886220E-02  0.12101411475E-01  0.19349145436E-01  0.10209880407E+01  0.10207302512E+01 0.  0.
     999903    2    3    3    0    0  0.12092175261E+00 -0.30405812511E-01 -0.36169873157E-01  0.13028627966E+00  0.10939435776E-01 0.  0.
         14    1    1    2    0    0 -0.23451886220E-02 -0.12101411475E-01 -0.19349145436E-01  0.22941959343E-01  0.00000000000E+00 0.  1.
     999901    1    3    3    0    0 -0.11857656399E+00  0.42507223986E-01  0.55519018594E-01  0.89070176100E+00  0.88000000000E+00 0. -1.
        -11    1    4    4    0    0  0.72442348009E-01 -0.13013483143E-01 -0.23157020010E-01  0.77160567813E-01  0.51100000000E-03 0. -1.
         11    1    4    4    0    0  0.48479404600E-01 -0.17392329368E-01 -0.13012853148E-01  0.53125711847E-01  0.51100000000E-03 0.  1.
</event>
<event>
 8    1  0.1054086E+005  0.1043930E+01  0.7957747E-01            NaN
         13   -1    0    0    0    0  0.00000000000E+00  0.00000000000E+00  0.74505805969E-08  0.10566000000E+00  0.10566000000E+00 0.  1.
     999900   -1    0    0    0    0 -0.00000000000E+00 -0.00000000000E+00 -0.74505805969E-08  0.93827000000E+00  0.93827000000E+00 0. -1.
     999902    2    1    2    0    0  0.71513936795E-02  0.20496912388E-01 -0.11746364506E-01  0.10192471532E+01  0.10189482402E+01 0.  0.
     999903    2    3    3    0    0 -0.62505777438E-01 -0.28898181775E-01  0.10552937743E+00  0.12736958507E+00  0.18560295734E-01 0.  0.
         14    1    1    2    0    0 -0.71513936795E-02 -0.20496912388E-01  0.11746364506E-01  0.24682846839E-01  0.00000000000E+00 0.  1.
     999901    1    3    3    0    0  0.69657171117E-01  0.49395094163E-01 -0.11727574193E+00  0.89187756809E+00  0.88000000000E+00 0. -1.
        -11    1    4    4    0    0 -0.31725608692E-01 -0.70140125912E-02  0.38041188806E-01  0.50031028235E-01  0.51100000000E-03 0. -1.
         11    1    4    4    0    0 -0.30780168745E-01 -0.21884169184E-01  0.67488188622E-01  0.77338556835E-01  0.51100000000E-03 0.  1.
</event>
<event>
 8    1  0.1054086E+005  0.1043930E+01  0.7957747E-01            NaN
         13   -1    0    0    0    0  0.00000000000E+00  0.00000000000E+00  0.74505805969E-08  0.10566000000E+00  0.10566000000E+00 0. -1.
     999900   -1    0    0    0    0 -0.00000000000E+00 -0.00000000000E+00 -0.74505805969E-08  0.93827000000E+00  0.93827000000E+00 0. -1.
     999902    2    1    2    0    0  0.17221601971E-01 -0.12692682287E-01 -0.10784586504E-01  0.10199718059E+01  0.10196903892E+01 0.  0.
     999903    2    3    3    0    0 -0.81743837066E-01 -0.45758389504E-01  0.85383238417E-01  0.12860445758E+00  0.21746815824E-01 0.  0.
         14    1    1    2    0    0 -0.17221601971E-01  0.12692682287E-01  0.10784586504E-01  0.23958194092E-01  0.00000000000E+00 0. -1.
     999901    1    3    3    0    0  0.98965439036E-01  0.33065707217E-01 -0.96167824921E-01  0.89136734833E+00  0.88000000000E+00 0. -1.
        -11    1    4    4    0    0 -0.50151436226E-01 -0.15685341058E-01  0.46928135452E-01  0.70453583995E-01  0.51100000000E-03 0.  1.
         11    1    4    4    0    0 -0.31592400839E-01 -0.30073048446E-01  0.38455102965E-01  0.58150873585E-01  0.51100000000E-03 0. -1.
</event>
<event>
 8    1  0.1054086E+005  0.1043930E+01  0.7957747E-01            NaN
         13   -1    0    0    0    0  0.00000000000E+00  0.00000000000E+00  0.74505805969E-08  0.10566000000E+00  0.10566000000E+00 0. -1.
     999900   -1    0    0    0    0 -0.00000000000E+00 -0.00000000000E+00 -0.74505805969E-08  0.93827000000E+00  0.93827000000E+00 0. -1.
     999902    2    1    2    0    0  0.22176021054E-01 -0.50665663824E-02 -0.31771885964E-02  0.10209617495E+01  0.10207033621E+01 0.  0.
     999903    2    3    3    0    0  0.37947978770E-01 -0.11939771238E+00  0.37957593058E-01  0.13247289988E+00  0.20308311536E-01 0.  0.
         14    1    1    2    0    0 -0.22176021054E-01  0.50665663824E-02  0.31771885964E-02  0.22968250523E-01  0.00000000000E+00 0.  1.
     999901    1    3    3    0    0 -0.15771957716E-01  0.11433114600E+00 -0.41134781654E-01  0.88848884960E+00  0.88000000000E+00 0.  1.
        -11    1    4    4    0    0  0.22254052414E-01 -0.85454044561E-01  0.18149365569E-01  0.90151523405E-01  0.51100000000E-03 0. -1.
         11    1    4    4    0    0  0.15693926356E-01 -0.33943667820E-01  0.19808227488E-01  0.42321376475E-01  0.51100000000E-03 0.  1.
</event>
<event>
 8    1  0.1054086E+005  0.1043930E+01  0.7957747E-01            NaN
         13   -1    0    0    0    0  0.00000000000E+00  0.00000000000E+00  0.74505805969E-08  0.10566000000E+00  0.10566000000E+00 0.  1.
     999900   -1    0    0    0    0 -0.00000000000E+00 -0.00000000000E+00 -0.74505805969E-08  0.93827000000E+00  0.93827000000E+00 0.  1.
     999902    2    1    2    0    0 -0.33287049569E-03 -0.11075345899E-01 -0.21428537263E-01  0.10198062296E+01  0.10195208628E+01 0.  0.
     999903    2    3    3    0    0 -0.66087489208E-01 -0.10827007368E+00 -0.30648725561E-01  0.13196868991E+00  0.19657712328E-01 0.  0.
         14    1    1    2    0    0  0.33287049569E-03  0.11075345899E-01  0.21428537263E-01  0.24123770410E-01  0.00000000000E+00 0.  1.
     999901    1    3    3    0    0  0.65754618712E-01  0.97194727781E-01  0.92201882980E-02  0.88783753968E+00  0.88000000000E+00 0. -1.
        -11    1    4    4    0    0 -0.35481462635E-01 -0.41117098259E-01 -0.17052340307E-01  0.56926210052E-01  0.51100000000E-03 0. -1.
         11    1    4    4    0    0 -0.30606026573E-01 -0.67152975421E-01 -0.13596385254E-01  0.75042479859E-01  0.51100000000E-03 0.  1.
</event>
<event>
 8    1  0.1054086E+005  0.1043930E+01  0.7957747E-01            NaN
         13   -1    0    0    0    0  0.00000000000E+00  0.00000000000E+00  0.74505805969E-08  0.10566000000E+00  0.10566000000E+00 0. -1.
     999900   -1    0    0    0    0 -0.00000000000E+00 -0.00000000000E+00 -0.74505805969E-08  0.93827000000E+00  0.93827000000E+00 0.  1.
     999902    2    1    2    0    0  0.15980957951E-01 -0.14928721832E-01  0.11329516830E-01  0.10193004303E+01  0.10190028221E+01 0.  0.
     999903    2    3    3    0    0 -0.70781045924E-01  0.13215557626E-02  0.10659495239E+00  0.12976840723E+00  0.21578986717E-01 0.  0.
         14    1    1    2    0    0 -0.15980957951E-01  0.14928721832E-01 -0.11329516830E-01  0.24629569711E-01  0.00000000000E+00 0. -1.
     999901    1    3    3    0    0  0.86762003875E-01 -0.16250277594E-01 -0.95265435560E-01  0.88953202306E+00  0.88000000000E+00 0.  1.
        -11    1    4    4    0    0 -0.22424982831E-01  0.76218589889E-02  0.48050392495E-01  0.53573070935E-01  0.51100000000E-03 0.  1.
         11    1    4    4    0    0 -0.48356063093E-01 -0.63003032263E-02  0.58544559895E-01  0.76195336293E-01  0.51100000000E-03 0. -1.
</event>
<event>
 8    1  0.1054086E+005  0.1043930E+01  0.7957747E-01            NaN
         13   -1    0    0    0    0  0.00000000000E+00  0.00000000000E+00  0.74505805969E-08  0.10566000000E+00  0.10566000000E+00 0. -1.
     999900   -1    0    0    0    0 -0.00000000000E+00 -0.00000000000E+00 -0.74505805969E-08  0.93827000000E+00  0.93827000000E+00 0.  1.
     999902    2    1    2    0    0  0.12912725498E-02  0.10709540435E-01  0.21012145090E-01  0.10203106884E+01  0.10200372684E+01 0.  0.
     999903    2    3    3    0    0  0.46641815028E-01 -0.40327144084E-01 -0.11054950836E+00  0.12791510145E+00  0.18421235611E-01 0.  0.
         14    1    1    2    0    0 -0.12912725498E-02 -0.10709540435E-01 -0.21012145090E-01  0.23619311641E-01  0.00000000000E+00 0.  1.
     999901    1    3    3    0    0 -0.45350542479E-01  0.51036684519E-01  0.13156165345E+00  0.89239558691E+00  0.88000000000E+00 0. -1.
        -11    1    4    4    0    0  0.74148240644E-04 -0.28255451971E-02 -0.87880915900E-03  0.30037693254E-02  0.51100000000E-03 0.  1.
         11    1    4    4    0    0  0.46567666788E-01 -0.37501598887E-01 -0.10967069920E+00  0.12491133213E+00  0.51100000000E-03 0. -1.
</event>
<event>
 8    1  0.1054086E+005  0.1043930E+01  0.7957747E-01            NaN
         13   -1    0    0    0    0  0.00000000000E+00  0.00000000000E+00  0.74505805969E-08  0.10566000000E+00  0.10566000000E+00 0.  1.
     999900   -1    0    0    0    0 -0.00000000000E+00 -0.00000000000E+00 -0.74505805969E-08  0.93827000000E+00  0.93827000000E+00 0.  1.
     999902    2    1    2    0    0 -0.13096537261E-01  0.44062563505E-02 -0.18003664932E-01  0.10212349271E+01  0.10209827178E+01 0.  0.
     999903    2    3    3    0    0 -0.69578640107E-01  0.74251728643E-01 -0.85038617974E-01  0.13412596937E+00  0.20092355445E-01 0.  0.
         14    1    1    2    0    0  0.13096537261E-01 -0.44062563505E-02  0.18003664932E-01  0.22695072907E-01  0.00000000000E+00 0.  1.
     999901    1    3    3    0    0  0.56482102846E-01 -0.69845472292E-01  0.67034953042E-01  0.88710895772E+00  0.88000000000E+00 0. -1.
        -11    1    4    4    0    0 -0.18006301760E-01  0.33316848897E-01 -0.31397602443E-01  0.49196645045E-01  0.51100000000E-03 0. -1.
         11    1    4    4    0    0 -0.51572338347E-01  0.40934879745E-01 -0.53641015531E-01  0.84929324327E-01  0.51100000000E-03 0.  1.
</event>
<event>
 8    1  0.1054086E+005  0.1043930E+01  0.7957747E-01            NaN
         13   -1    0    0    0    0  0.00000000000E+00  0.00000000000E+00  0.74505805969E-08  0.10566000000E+00  0.10566000000E+00 0.  1.
     999900   -1    0    0    0    0 -0.00000000000E+00 -0.00000000000E+00 -0.74505805969E-08  0.93827000000E+00  0.93827000000E+00 0. -1.
     999902    2    1    2    0    0  0.13480892902E-01 -0.13220329116E-01 -0.13858541679E-01  0.10205084127E+01  0.10202396040E+01 0.  0.
     999903    2    3    3    0    0  0.12358237013E+00 -0.29489220352E-01  0.31297247133E-01  0.13234961078E+00  0.19866692530E-01 0.  0.
         14    1    1    2    0    0 -0.13480892902E-01  0.13220329116E-01  0.13858541679E-01  0.23421587326E-01  0.00000000000E+00 0.  1.
     999901    1    3    3    0    0 -0.11010147723E+00  0.16268891235E-01 -0.45155788812E-01  0.88815880189E+00  0.88000000000E+00 0.  1.
        -11    1    4    4    0    0  0.50928543383E-01 -0.19847413893E-01  0.19925388520E-01  0.58180053266E-01  0.51100000000E-03 0.  1.
         11    1    4    4    0    0  0.72653826750E-01 -0.96418064593E-02  0.11371858613E-01  0.74169557519E-01  0.51100000000E-03 0. -1.
</event>
<event>
 8    1  0.1054086E+005  0.1043930E+01  0.7957747E-01            NaN
         13   -1    0    0    0    0  0.00000000000E+00  0.00000000000E+00  0.74505805969E-08  0.10566000000E+00  0.10566000000E+00 0.  1.
     999900   -1    0    0    0    0 -0.00000000000E+00 -0.00000000000E+00 -0.74505805969E-08  0.93827000000E+00  0.93827000000E+00 0. -1.
     999902    2    1    2    0    0  0.75562644683E-02 -0.84533844896E-02 -0.20606907309E-01  0.10204097647E+01  0.10201386603E+01 0.  0.
     999903    2    3    3    0    0  0.90640600921E-02 -0.79829667023E-01 -0.10475840146E+00  0.13351725644E+00  0.19939964096E-01 0.  0.
         14    1    1    2    0    0 -0.75562644683E-02  0.84533844896E-02  0.20606907309E-01  0.23520235350E-01  0.00000000000E+00 0. -1.
     999901    1    3    3    0    0 -0.15077956238E-02  0.71376282533E-01  0.84151494150E-01  0.88689250821E+00  0.88000000000E+00 0.  1.
        -11    1    4    4    0    0  0.50999513963E-02 -0.76977849222E-01 -0.10198516064E+00  0.12787819551E+00  0.51100000000E-03 0. -1.
         11    1    4    4    0    0  0.39641086958E-02 -0.28518178005E-02 -0.27732408220E-02  0.56390609303E-02  0.51100000000E-03 0.  1.
</event>
<event>
 8    1  0.1408695E+005  0.1043930E+01  0.7957747E-01            NaN
         13   -1    0    0    0    0  0.00000000000E+00  0.00000000000E+00  0.74505805969E-08  0.10566000000E+00  0.10566000000E+00 0.  1.
     999900   -1    0    0    0    0 -0.00000000000E+00 -0.00000000000E+00 -0.74505805969E-08  0.93827000000E+00  0.93827000000E+00 0.  1.
     999902    2    1    2    0    0 -0.27955329974E-01  0.13154831228E-01  0.19757452990E-02  0.10129710978E+01  0.10124978969E+01 0.  0.
     999903    2    3    3    0    0  0.89597221411E-01  0.31599489655E-01  0.73739096013E-01  0.12206774370E+00  0.20901912365E-01 0.  0.
         14    1    1    2    0    0  0.27955329974E-01 -0.13154831228E-01 -0.19757452990E-02  0.30958902243E-01  0.00000000000E+00 0. -1.
     999901    1    3    3    0    0 -0.11755255139E+00 -0.18444658427E-01 -0.71763350714E-01  0.89090335406E+00  0.88000000000E+00 0.  1.
        -11    1    4    4    0    0  0.64196811226E-01  0.26117686137E-01  0.63922967210E-01  0.94285581923E-01  0.51100000000E-03 0. -1.
         11    1    4    4    0    0  0.25400410185E-01  0.54818035179E-02  0.98161288029E-02  0.27782161778E-01  0.51100000000E-03 0.  1.
</event>
<event>
 8    1  0.1054086E+005  0.1043930E+01  0.7957747E-01            NaN
         13   -1    0    0    0    0  0.00000000000E+00  0.00000000000E+00  0.74505805969E-08  0.10566000000E+00  0.10566000000E+00 0. -1.
     999900   -1    0    0    0    0 -0.00000000000E+00 -0.00000000000E+00 -0.74505805969E-08  0.93827000000E+00  0.93827000000E+00 0.  1.
     999902    2    1    2    0    0 -0.11171728770E-01 -0.38596000796E-02 -0.20205172910E-01  0.10205216030E+01  0.10202531006E+01 0.  0.
     999903    2    3    3    0    0 -0.34677945808E-01  0.81577757591E-01 -0.96709091977E-01  0.13276885932E+00  0.20431130062E-01 0.  0.
         14    1    1    2    0    0  0.11171728770E-01  0.38596000796E-02  0.20205172910E-01  0.23408396973E-01  0.00000000000E+00 0. -1.
     999901    1    3    3    0    0  0.23506217038E-01 -0.85437357670E-01  0.76503919066E-01  0.88775274371E+00  0.88000000000E+00 0. -1.
        -11    1    4    4    0    0  0.17310956604E-02  0.12200629810E-01 -0.16956624184E-01  0.20967600833E-01  0.51100000000E-03 0. -1.
         11    1    4    4    0    0 -0.36409041468E-01  0.69377127780E-01 -0.79752467792E-01  0.11180125849E+00  0.51100000000E-03 0.  1.
</event>
<event>
 8    1  0.1054086E+005  0.1043930E+01  0.7957747E-01            NaN
         13   -1    0    0    0    0  0.00000000000E+00  0.00000000000E+00  0.74505805969E-08  0.10566000000E+00  0.10566000000E+00 0. -1.
     999900   -1    0    0    0    0 -0.00000000000E+00 -0.00000000000E+00 -0.74505805969E-08  0.93827000000E+00  0.93827000000E+00 0.  1.
     999902    2    1    2    0    0 -0.17927317928E-01 -0.10202578001E-01  0.11654984878E-01  0.10202378072E+01  0.10199626774E+01 0.  0.
     999903    2    3    3    0    0 -0.77132173457E-01 -0.64958002176E-01  0.85171886183E-01  0.13349765015E+00  0.19961417039E-01 0.  0.
         14    1    1    2    0    0  0.17927317928E-01  0.10202578001E-01 -0.11654984878E-01  0.23692192775E-01  0.00000000000E+00 0.  1.
     999901    1    3    3    0    0  0.59204855529E-01  0.54755424175E-01 -0.73516901304E-01  0.88674015708E+00  0.88000000000E+00 0.  1.
        -11    1    4    4    0    0 -0.50119782283E-02 -0.10429309279E-01  0.15515512782E-01  0.19361887194E-01  0.51100000000E-03 0. -1.
         11    1    4    4    0    0 -0.72120195229E-01 -0.54528692897E-01  0.69656373401E-01  0.11413576295E+00  0.51100000000E-03 0.  1.
</event>
<event>
 8    1  0.1054086E+005  0.1043930E+01  0.7957747E-01            NaN
         13   -1    0    0    0    0  0.00000000000E+00  0.00000000000E+00  0.74505805969E-08  0.10566000000E+00  0.10566000000E+00 0.  1.
     999900   -1    0    0    0    0 -0.00000000000E+00 -0.00000000000E+00 -0.74505805969E-08  0.93827000000E+00  0.93827000000E+00 0.  1.
     999902    2    1    2    0    0  0.13526495158E-01 -0.27409826090E-02 -0.16708767579E-01  0.10222583141E+01  0.10220285704E+01 0.  0.
     999903    2    3    3    0    0 -0.70043822400E-01 -0.10923766086E+00 -0.12085202128E-01  0.13189495128E+00  0.20278620659E-01 0.  0.
         14    1    1    2    0    0 -0.13526495158E-01  0.27409826090E-02  0.16708767579E-01  0.21671685927E-01  0.00000000000E+00 0.  1.
     999901    1    3    3    0    0  0.83570317558E-01  0.10649667825E+00 -0.46235654501E-02  0.89036336280E+00  0.88000000000E+00 0. -1.
        -11    1    4    4    0    0 -0.23075428884E-01 -0.34454464314E-01 -0.13375360622E-01  0.43574613276E-01  0.51100000000E-03 0.  1.
         11    1    4    4    0    0 -0.46968393516E-01 -0.74783196542E-01  0.12901584938E-02  0.88320338000E-01  0.51100000000E-03 0. -1.
</event>
<event>
 8    1  0.1054086E+005  0.1043930E+01  0.7957747E-01            NaN
         13   -1    0    0    0    0  0.00000000000E+00  0.00000000000E+00  0.74505805969E-08  0.10566000000E+00  0.10566000000E+00 0.  1.
     999900   -1    0    0    0    0 -0.00000000000E+00 -0.00000000000E+00 -0.74505805969E-08  0.93827000000E+00  0.93827000000E+00 0.  1.
     999902    2    1    2    0    0  0.65903252649E-02  0.20195552270E-01  0.13573701210E-01  0.10187201193E+01  0.10184081419E+01 0.  0.
     999903    2    3    3    0    0  0.41010363036E-01 -0.10998334567E+00  0.46524185736E-01  0.12786826919E+00  0.20189309233E-01 0.  0.
         14    1    1    2    0    0 -0.65903252649E-02 -0.20195552270E-01 -0.13573701210E-01  0.25209880665E-01  0.00000000000E+00 0. -1.
     999901    1    3    3    0    0 -0.34420037771E-01  0.13017889794E+00 -0.32950484526E-01  0.89085185014E+00  0.88000000000E+00 0. -1.
        -11    1    4    4    0    0  0.12871577909E-01 -0.22019077181E-01  0.27353403409E-02  0.25656587566E-01  0.51100000000E-03 0. -1.
         11    1    4    4    0    0  0.28138785127E-01 -0.87964268489E-01  0.43788845395E-01  0.10221168163E+00  0.51100000000E-03 0.  1.
</event>
<event>
 8    1  0.1054086E+005  0.1043930E+01  0.7957747E-01            NaN
         13   -1    0    0    0    0  0.00000000000E+00  0.00000000000E+00  0.74505805969E-08  0.10566000000E+00  0.10566000000E+00 0.  1.
     999900   -1    0    0    0    0 -0.00000000000E+00 -0.00000000000E+00 -0.74505805969E-08  0.93827000000E+00  0.93827000000E+00 0. -1.
     999902    2    1    2    0    0 -0.19506396364E-01 -0.60542380987E-02 -0.10745491795E-01  0.10208514625E+01  0.10205905593E+01 0.  0.
     999903    2    3    3    0    0 -0.11215340386E-01  0.25871536293E-01 -0.12785858439E+00  0.13248021516E+00  0.20200731629E-01 0.  0.
         14    1    1    2    0    0  0.19506396364E-01  0.60542380987E-02  0.10745491795E-01  0.23078537475E-01  0.00000000000E+00 0. -1.
     999901    1    3    3    0    0 -0.82910559776E-02 -0.31925774392E-01  0.11711309259E+00  0.88837124736E+00  0.88000000000E+00 0.  1.
        -11    1    4    4    0    0 -0.13060670630E-01  0.27406114210E-01 -0.99855235446E-01  0.10436956156E+00  0.51100000000E-03 0.  1.
         11    1    4    4    0    0  0.18453302440E-02 -0.15345779173E-02 -0.28003348942E-01  0.28110653604E-01  0.51100000000E-03 0. -1.
</event>
<event>
 8    1  0.1054086E+005  0.1043930E+01  0.7957747E-01            NaN
         13   -1    0    0    0    0  0.00000000000E+00  0.00000000000E+00  0.74505805969E-08  0.10566000000E+00  0.10566000000E+00 0.  1.
     999900   -1    0    0    0    0 -0.00000000000E+00 -0.00000000000E+00 -0.74505805969E-08  0.93827000000E+00  0.93827000000E+00 0.  1.
     999902    2    1    2    0    0 -0.13254521609E-01  0.19836054186E-01 -0.38872030524E-02  0.10197584933E+01  0.10194719824E+01 0.  0.
     999903    2    3    3    0    0 -0.12579163490E+00  0.79009961736E-03  0.32967812233E-01  0.13162244381E+00  0.20333012627E-01 0.  0.
         14    1    1    2    0    0  0.13254521609E-01 -0.19836054186E-01  0.38872030524E-02  0.24171506703E-01  0.00000000000E+00 0.  1.
     999901    1    3    3    0    0  0.11253711329E+00  0.19045954568E-01 -0.36855015286E-01  0.88813604949E+00  0.88000000000E+00 0.  1.
        -11    1    4    4    0    0 -0.11311149211E+00 -0.12238757572E-02  0.23179808299E-01  0.11546978891E+00  0.51100000000E-03 0. -1.
         11    1    4    4    0    0 -0.12680142793E-01  0.20139753745E-02  0.97880039343E-02  0.16152654892E-01  0.51100000000E-03 0.  1.
</event>
<event>
 8    1  0.1054086E+005  0.1043930E+01  0.7957747E-01            NaN
         13   -1    0    0    0    0  0.00000000000E+00  0.00000000000E+00  0.74505805969E-08  0.10566000000E+00  0.10566000000E+00 0. -1.
     999900   -1    0    0    0    0 -0.00000000000E+00 -0.00000000000E+00 -0.74505805969E-08  0.93827000000E+00  0.93827000000E+00 0.  1.
     999902    2    1    2    0    0  0.16467995367E-01 -0.16098073177E-01 -0.57389313089E-02  0.10201965181E+01  0.10199204172E+01 0.  0.
     999903    2    3    3    0    0  0.12801120544E+00 -0.29898478214E-01  0.12291490048E-02  0.13302072207E+00  0.20303053323E-01 0.  0.
         14    1    1    2    0    0 -0.16467995367E-01  0.16098073177E-01  0.57389313089E-02  0.23733481918E-01  0.00000000000E+00 0.  1.
     999901    1    3    3    0    0 -0.11154321007E+00  0.13800405037E-01 -0.69680803137E-02  0.88717579602E+00  0.88000000000E+00 0.  1.
        -11    1    4    4    0    0  0.29243085951E-01 -0.10584434925E-01  0.81158705980E-02  0.32145245608E-01  0.51100000000E-03 0. -1.
         11    1    4    4    0    0  0.98768119488E-01 -0.19314043288E-01 -0.68867215932E-02  0.10087547646E+00  0.51100000000E-03 0.  1.
</event>
<event>
 8    1  0.1054086E+005  0.1043930E+01  0.7957747E-01            NaN
         13   -1    0    0    0    0  0.00000000000E+00  0.00000000000E+00  0.74505805969E-08  0.10566000000E+00  0.10566000000E+00 0.  1.
     999900   -1    0    0    0    0 -0.00000000000E+00 -0.00000000000E+00 -0.74505805969E-08  0.93827000000E+00  0.93827000000E+00 0.  1.
     999902    2    1    2    0    0 -0.98569603621E-02  0.21192224003E-01 -0.28731267408E-02  0.10203816480E+01  0.10201098875E+01 0.  0.
     999903    2    3    3    0    0  0.61689835422E-01 -0.10602361277E+00  0.29535780870E-01  0.12777134644E+00  0.20162151698E-01 0.  0.
         14    1    1    2    0    0  0.98569603621E-02 -0.21192224003E-01  0.28731267408E-02  0.23548352024E-01  0.00000000000E+00 0. -1.
     999901    1    3    3    0    0 -0.71546795784E-01  0.12721583677E+00 -0.32408907611E-01  0.89261030153E+00  0.88000000000E+00 0. -1.
        -11    1    4    4    0    0  0.31050812676E-01 -0.58949225099E-01  0.25894708996E-01  0.71483992492E-01  0.51100000000E-03 0. -1.
         11    1    4    4    0    0  0.30639022746E-01 -0.47074387669E-01  0.36410718739E-02  0.56287353950E-01  0.51100000000E-03 0.  1.
</event>
<event>
 8    1  0.1054086E+005  0.1043930E+01  0.7957747E-01            NaN
         13   -1    0    0    0    0  0.00000000000E+00  0.00000000000E+00  0.74505805969E-08  0.10566000000E+00  0.10566000000E+00 0. -1.
     999900   -1    0    0    0    0 -0.00000000000E+00 -0.00000000000E+00 -0.74505805969E-08  0.93827000000E+00  0.93827000000E+00 0.  1.
     999902    2    1    2    0    0  0.22381541595E-01 -0.86690155147E-02  0.55316606389E-02  0.10192990336E+01  0.10190013913E+01 0.  0.
     999903    2    3    3    0    0  0.12406750206E+00 -0.41905272655E-01 -0.72342261354E-02  0.13272830820E+00  0.20388056007E-01 0.  0.
         14    1    1    2    0    0 -0.22381541595E-01  0.86690155147E-02 -0.55316606389E-02  0.24630966355E-01  0.00000000000E+00 0. -1.
     999901    1    3    3    0    0 -0.10168596046E+00  0.33236257140E-01  0.12765886774E-01  0.88657072544E+00  0.88000000000E+00 0. -1.
        -11    1    4    4    0    0  0.98573859264E-01 -0.24720584730E-01 -0.28433191975E-02  0.10166739214E+00  0.51100000000E-03 0. -1.
         11    1    4    4    0    0  0.25493642794E-01 -0.17184687924E-01 -0.43909069379E-02  0.31060916064E-01  0.51100000000E-03 0.  1.
</event>
<event>
 8    1  0.1054086E+005  0.1043930E+01  0.7957747E-01            NaN
         13   -1    0    0    0    0  0.00000000000E+00  0.00000000000E+00  0.74505805969E-08  0.10566000000E+00  0.10566000000E+00 0.  1.
     999900   -1    0    0    0    0 -0.00000000000E+00 -0.00000000000E+00 -0.74505805969E-08  0.93827000000E+00  0.93827000000E+00 0.  1.
     999902    2    1    2    0    0 -0.73136308954E-02 -0.17718397423E-01 -0.13422887792E-01  0.10205290444E+01  0.10202607146E+01 0.  0.
     999903    2    3    3    0    0  0.11201426316E+00  0.93436884288E-03 -0.64347084626E-01  0.13082103290E+00  0.20628309489E-01 0.  0.
         14    1    1    2    0    0  0.73136308954E-02  0.17718397423E-01  0.13422887792E-01  0.23400955553E-01  0.00000000000E+00 0.  1.
     999901    1    3    3    0    0 -0.11932789406E+00 -0.18652766265E-01  0.50924196834E-01  0.88970801155E+00  0.88000000000E+00 0. -1.
        -11    1    4    4    0    0  0.76609158267E-01  0.52944795711E-02 -0.53283745453E-01  0.93468782462E-01  0.51100000000E-03 0. -1.
         11    1    4    4    0    0  0.35405104894E-01 -0.43601107283E-02 -0.11063339172E-01  0.37352250438E-01  0.51100000000E-03 0.  1.
</event>
<event>
 8    1  0.1054086E+005  0.1043930E+01  0.7957747E-01            NaN
         13   -1    0    0    0    0  0.00000000000E+00  0.00000000000E+00  0.74505805969E-08  0.10566000000E+00  0.10566000000E+00 0.  1.
     999900   -1    0    0    0    0 -0.00000000000E+00 -0.00000000000E+00 -0.74505805969E-08  0.93827000000E+00  0.93827000000E+00 0. -1.
     999902    2    1    2    0    0 -0.11700414299E-01 -0.39461354111E-03  0.20577857328E-01  0.10202550422E+01  0.10199803172E+01 0.  0.
     999903    2    3    3    0    0  0.67250145286E-01 -0.10700612710E+00  0.25429715649E-01  0.13029844426E+00  0.18924081510E-01 0.  0.
         14    1    1    2    0    0  0.11700414299E-01  0.39461354111E-03 -0.20577857328E-01  0.23674957799E-01  0.00000000000E+00 0. -1.
     999901    1    3    3    0    0 -0.78950559585E-01  0.10661151356E+00 -0.48518583212E-02  0.88995659794E+00  0.88000000000E+00 0. -1.
        -11    1    4    4    0    0  0.37277671719E-01 -0.69801525741E-01  0.84114186812E-02  0.79579462739E-01  0.51100000000E-03 0. -1.
         11    1    4    4    0    0  0.29972473568E-01 -0.37204601361E-01  0.17018296968E-01  0.50718981524E-01  0.51100000000E-03 0.  1.
</event>
<event>
 8    1  0.1054086E+005  0.1043930E+01  0.7957747E-01            NaN
         13   -1    0    0    0    0  0.00000000000E+00  0.00000000000E+00  0.74505805969E-08  0.10566000000E+00  0.10566000000E+00 0. -1.
     999900   -1    0    0    0    0 -0.00000000000E+00 -0.00000000000E+00 -0.74505805969E-08  0.93827000000E+00  0.93827000000E+00 0.  1.
     999902    2    1    2    0    0  0.14064589632E-01 -0.18828756716E-01  0.32877829890E-02  0.10201993389E+01  0.10199233043E+01 0.  0.
     999903    2    3    3    0    0 -0.92396311051E-02  0.12607279139E+00  0.10554618691E-02  0.12804210575E+00  0.20345695694E-01 0.  0.
         14    1    1    2    0    0 -0.14064589632E-01  0.18828756716E-01 -0.32877829890E-02  0.23730661137E-01  0.00000000000E+00 0. -1.
     999901    1    3    3    0    0  0.23304220737E-01 -0.14490154810E+00  0.22323211199E-02  0.89215723312E+00  0.88000000000E+00 0.  1.
        -11    1    4    4    0    0 -0.49162173042E-02  0.42108745230E-01  0.97879535770E-02  0.43512995457E-01  0.51100000000E-03 0. -1.
         11    1    4    4    0    0 -0.43234138009E-02  0.83964046156E-01 -0.87324917079E-02  0.84529110288E-01  0.51100000000E-03 0.  1.
</event>
<event>
 8    1  0.1054086E+005  0.1043930E+01  0.7957747E-01            NaN
         13   -1    0    0    0    0  0.00000000000E+00  0.00000000000E+00  0.74505805969E-08  0.10566000000E+00  0.10566000000E+00 0.  1.
     999900   -1    0    0    0    0 -0.00000000000E+00 -0.00000000000E+00 -0.74505805969E-08  0.93827000000E+00  0.93827000000E+00 0.  1.
     999902    2    1    2    0    0 -0.19354745034E-01  0.54087788155E-02  0.16824963007E-01  0.10177204517E+01  0.10173829059E+01 0.  0.
     999903    2    3    3    0    0 -0.16955760358E-01  0.47788927719E-01  0.11851342104E+00  0.13084820909E+00  0.22462044302E-01 0.  0.
         14    1    1    2    0    0  0.19354745034E-01 -0.54087788155E-02 -0.16824963007E-01  0.26209548333E-01  0.00000000000E+00 0.  1.
     999901    1    3    3    0    0 -0.23989846761E-02 -0.42380148904E-01 -0.10168845804E+00  0.88687224257E+00  0.88000000000E+00 0.  1.
        -11    1    4    4    0    0 -0.12461540941E-02 -0.25809540917E-03  0.20683366643E-01  0.20728779269E-01  0.51100000000E-03 0.  1.
         11    1    4    4    0    0 -0.15709606264E-01  0.48047023129E-01  0.97830054399E-01  0.11011942983E+00  0.51100000000E-03 0. -1.
</event>
<event>
 8    1  0.1054086E+005  0.1043930E+01  0.7957747E-01            NaN
         13   -1    0    0    0    0  0.00000000000E+00  0.00000000000E+00  0.74505805969E-08  0.10566000000E+00  0.10566000000E+00 0.  1.
     999900   -1    0    0    0    0 -0.00000000000E+00 -0.00000000000E+00 -0.74505805969E-08  0.93827000000E+00  0.93827000000E+00 0.  1.
     999902    2    1    2    0    0  0.18305647349E-01  0.14160533659E-01  0.47440768995E-02  0.10203053581E+01  0.10200318133E+01 0.  0.
     999903    2    3    3    0    0  0.10388284353E+00 -0.88712838659E-02 -0.78434840320E-01  0.13195145713E+00  0.19718468652E-01 0.  0.
         14    1    1    2    0    0 -0.18305647349E-01 -0.14160533659E-01 -0.47440768995E-02  0.23624641881E-01  0.00000000000E+00 0. -1.
     999901    1    3    3    0    0 -0.85577196184E-01  0.23031817525E-01  0.83178917220E-01  0.88835390098E+00  0.88000000000E+00 0. -1.
        -11    1    4    4    0    0  0.49068793464E-01 -0.82221466369E-02 -0.26209532861E-01  0.56236562138E-01  0.51100000000E-03 0.  1.
         11    1    4    4    0    0  0.54814050069E-01 -0.64913722903E-03 -0.52225307460E-01  0.75714894996E-01  0.51100000000E-03 0. -1.
</event>
<event>
 8    1  0.1054086E+005  0.1043930E+01  0.7957747E-01            NaN
         13   -1    0    0    0    0  0.00000000000E+00  0.00000000000E+00  0.74505805969E-08  0.10566000000E+00  0.10566000000E+00 0. -1.
     999900   -1    0    0    0    0 -0.00000000000E+00 -0.00000000000E+00 -0.74505805969E-08  0.93827000000E+00  0.93827000000E+00 0. -1.
     999902    2    1    2    0    0  0.18368731486E-01  0.53589863374E-02  0.13939880830E-01  0.10202561894E+01  0.10199814913E+01 0.  0.
     999903    2    3    3    0    0  0.71448869240E-01  0.10732230441E+00 -0.20008502833E-01  0.13213090994E+00  0.20861908741E-01 0.  0.
         14    1    1    2    0    0 -0.18368731486E-01 -0.53589863374E-02 -0.13939880830E-01  0.23673810604E-01  0.00000000000E+00 0.  1.
     999901    1    3    3    0    0 -0.53080137754E-01 -0.10196331807E+00  0.33948383663E-01  0.88812527946E+00  0.88000000000E+00 0.  1.
        -11    1    4    4    0    0  0.27086812052E-01  0.34422084503E-01 -0.16210325683E-01  0.46707719581E-01  0.51100000000E-03 0. -1.
         11    1    4    4    0    0  0.44362057188E-01  0.72900219907E-01 -0.37981771498E-02  0.85423190359E-01  0.51100000000E-03 0.  1.
</event>
<event>
 8    1  0.1054086E+005  0.1043930E+01  0.7957747E-01            NaN
         13   -1    0    0    0    0  0.00000000000E+00  0.00000000000E+00  0.74505805969E-08  0.10566000000E+00  0.10566000000E+00 0.  1.
     999900   -1    0    0    0    0 -0.00000000000E+00 -0.00000000000E+00 -0.74505805969E-08  0.93827000000E+00  0.93827000000E+00 0. -1.
     999902    2    1    2    0    0  0.17149555972E-02 -0.10313602615E-01 -0.21213363618E-01  0.10202800895E+01  0.10200059523E+01 0.  0.
     999903    2    3    3    0    0 -0.87019230714E-01  0.58840405180E-01 -0.76089153289E-01  0.13142274159E+00  0.21162182350E-01 0.  0.
         14    1    1    2    0    0 -0.17149555972E-02  0.10313602615E-01  0.21213363618E-01  0.23649910520E-01  0.00000000000E+00 0.  1.
     999901    1    3    3    0    0  0.88734186311E-01 -0.69154007795E-01  0.54875789671E-01  0.88885734789E+00  0.88000000000E+00 0. -1.
        -11    1    4    4    0    0 -0.31978094257E-01  0.27172421367E-01 -0.19144522573E-01  0.46127138008E-01  0.51100000000E-03 0.  1.
         11    1    4    4    0    0 -0.55041136457E-01  0.31667983813E-01 -0.56944630716E-01  0.85295603577E-01  0.51100000000E-03 0. -1.
</event>
<event>
 8    1  0.1054086E+005  0.1043930E+01  0.7957747E-01            NaN
         13   -1    0    0    0    0  0.00000000000E+00  0.00000000000E+00  0.74505805969E-08  0.10566000000E+00  0.10566000000E+00 0. -1.
     999900   -1    0    0    0    0 -0.00000000000E+00 -0.00000000000E+00 -0.74505805969E-08  0.93827000000E+00  0.93827000000E+00 0. -1.
     999902    2    1    2    0    0 -0.47200011411E-02  0.68486996647E-02 -0.16273853271E-01  0.10256537477E+01  0.10254909014E+01 0.  0.
     999903    2    3    3    0    0  0.72533989189E-01 -0.54327812922E-01 -0.99706602675E-01  0.13623159350E+00  0.20123359682E-01 0.  0.
         14    1    1    2    0    0  0.47200011411E-02 -0.68486996647E-02  0.16273853271E-01  0.18276252301E-01  0.00000000000E+00 0. -1.
     999901    1    3    3    0    0 -0.77253990330E-01  0.61176512587E-01  0.83432749404E-01  0.88942215420E+00  0.88000000000E+00 0. -1.
        -11    1    4    4    0    0  0.60437984250E-02 -0.60231482548E-03 -0.13570456972E-01  0.14876448030E-01  0.51100000000E-03 0.  1.
         11    1    4    4    0    0  0.66490190764E-01 -0.53725498097E-01 -0.86136145703E-01  0.12135514547E+00  0.51100000000E-03 0. -1.
</event>
<event>
 8    1  0.1054086E+005  0.1043930E+01  0.7957747E-01            NaN
         13   -1    0    0    0    0  0.00000000000E+00  0.00000000000E+00  0.74505805969E-08  0.10566000000E+00  0.10566000000E+00 0.  1.
     999900   -1    0    0    0    0 -0.00000000000E+00 -0.00000000000E+00 -0.74505805969E-08  0.93827000000E+00  0.93827000000E+00 0.  1.
     999902    2    1    2    0    0 -0.17259328778E-01 -0.16989817443E-01  0.13887056647E-01  0.10160124666E+01  0.10156288415E+01 0.  0.
     999903    2    3    3    0    0 -0.66841214100E-01 -0.25451764680E-01  0.10637681589E+00  0.12973693191E+00  0.20002607674E-01 0.  0.
         14    1    1    2    0    0  0.17259328778E-01  0.16989817443E-01 -0.13887056647E-01  0.27917533360E-01  0.00000000000E+00 0. -1.
     999901    1    3    3    0    0  0.49581885322E-01  0.84619472373E-02 -0.92489759244E-01  0.88627553473E+00  0.88000000000E+00 0.  1.
        -11    1    4    4    0    0 -0.42505305407E-01 -0.20936994723E-01  0.83608065911E-01  0.96102177614E-01  0.51100000000E-03 0.  1.
         11    1    4    4    0    0 -0.24335908693E-01 -0.45147699569E-02  0.22768749979E-01  0.33634754292E-01  0.51100000000E-03 0. -1.
</event>
<event>
 8    1  0.1054086E+005  0.1043930E+01  0.7957747E-01            NaN
         13   -1    0    0    0    0  0.00000000000E+00  0.00000000000E+00  0.74505805969E-08  0.10566000000E+00  0.10566000000E+00 0. -1.
     999900   -1    0    0    0    0 -0.00000000000E+00 -0.00000000000E+00 -0.74505805969E-08  0.93827000000E+00  0.93827000000E+00 0.  1.
     999902    2    1    2    0    0  0.18351126582E-03  0.20397706020E-01 -0.11912303583E-01  0.10203079115E+01  0.10200344265E+01 0.  0.
     999903    2    3    3    0    0 -0.14392984730E-01  0.13074336454E+00 -0.67444640460E-02  0.13328178724E+00  0.20434324928E-01 0.  0.
         14    1    1    2    0    0 -0.18351126582E-03 -0.20397706020E-01  0.11912303583E-01  0.23622088475E-01  0.00000000000E+00 0. -1.
     999901    1    3    3    0    0  0.14576495995E-01 -0.11034565852E+00 -0.51678395375E-02  0.88702612428E+00  0.88000000000E+00 0. -1.
        -11    1    4    4    0    0 -0.29646638645E-02  0.71550469756E-01 -0.12585959568E-01  0.72711253967E-01  0.51100000000E-03 0. -1.
         11    1    4    4    0    0 -0.11428320865E-01  0.59192894784E-01  0.58414955217E-02  0.60570533278E-01  0.51100000000E-03 0.  1.
</event>
<event>
 8    1  0.1054086E+005  0.1043930E+01  0.7957747E-01            NaN
         13   -1    0    0    0    0  0.00000000000E+00  0.00000000000E+00  0.74505805969E-08  0.10566000000E+00  0.10566000000E+00 0. -1.
     999900   -1    0    0    0    0 -0.00000000000E+00 -0.00000000000E+00 -0.74505805969E-08  0.93827000000E+00  0.93827000000E+00 0.  1.
     999902    2    1    2    0    0 -0.30653820549E-01 -0.10921722603E-01 -0.11980056535E-01  0.10092534590E+01  0.10086575643E+01 0.  0.
     999903    2    3    3    0    0 -0.40397774002E-01  0.44655028668E-01  0.10285398937E+00  0.12000063896E+00  0.13969913815E-01 0.  0.
         14    1    1    2    0    0  0.30653820549E-01  0.10921722603E-01  0.11980056535E-01  0.34676540968E-01  0.00000000000E+00 0.  1.
     999901    1    3    3    0    0  0.97439534529E-02 -0.55576751272E-01 -0.11483404590E+00  0.88925282007E+00  0.88000000000E+00 0.  1.
        -11    1    4    4    0    0 -0.36023244594E-01  0.37637145414E-01  0.77985273314E-01  0.93788020774E-01  0.51100000000E-03 0. -1.
         11    1    4    4    0    0 -0.43745294086E-02  0.70178832544E-02  0.24868716054E-01  0.26212618184E-01  0.51100000000E-03 0.  1.
</event>
<event>
 8    1  0.1054086E+005  0.1043930E+01  0.7957747E-01            NaN
         13   -1    0    0    0    0  0.00000000000E+00  0.00000000000E+00  0.74505805969E-08  0.10566000000E+00  0.10566000000E+00 0.  1.
     999900   -1    0    0    0    0 -0.00000000000E+00 -0.00000000000E+00 -0.74505805969E-08  0.93827000000E+00  0.93827000000E+00 0. -1.
     999902    2    1    2    0    0  0.93873182818E-02 -0.23335826201E-01  0.24188816408E-03  0.10187756557E+01  0.10184650684E+01 0.  0.
     999903    2    3    3    0    0 -0.15733264771E-01  0.37816901351E-01 -0.11970447561E+00  0.12818156745E+00  0.20583952596E-01 0.  0.
         14    1    1    2    0    0 -0.93873182818E-02  0.23335826201E-01 -0.24188816408E-03  0.25154344334E-01  0.00000000000E+00 0.  1.
     999901    1    3    3    0    0  0.25120583053E-01 -0.61152727552E-01  0.11994636378E+00  0.89059408821E+00  0.88000000000E+00 0.  1.
        -11    1    4    4    0    0  0.62312534484E-04  0.25722755882E-01 -0.61317262064E-01  0.66496103653E-01  0.51100000000E-03 0.  1.
         11    1    4    4    0    0 -0.15795577306E-01  0.12094145469E-01 -0.58387213548E-01  0.61685463798E-01  0.51100000000E-03 0. -1.
</event>
<event>
 8    1  0.1469366E+005  0.1043930E+01  0.7957747E-01            NaN
         13   -1    0    0    0    0  0.00000000000E+00  0.00000000000E+00  0.74505805969E-08  0.10566000000E+00  0.10566000000E+00 0.  1.
     999900   -1    0    0    0    0 -0.00000000000E+00 -0.00000000000E+00 -0.74505805969E-08  0.93827000000E+00  0.93827000000E+00 0.  1.
     999902    2    1    2    0    0 -0.19562337679E-01  0.11332024601E-01  0.16233625704E-01  0.10160978165E+01  0.10157165659E+01 0.  0.
     999903    2    3    3    0    0 -0.82786786116E-02 -0.41171054059E-01  0.11971706944E+00  0.12840827763E+00  0.19822129959E-01 0.  0.
         14    1    1    2    0    0  0.19562337679E-01 -0.11332024601E-01 -0.16233625704E-01  0.27832183539E-01  0.00000000000E+00 0. -1.
     999901    1    3    3    0    0 -0.11283659067E-01  0.52503078660E-01 -0.10348344373E+00  0.88768953884E+00  0.88000000000E+00 0.  1.
        -11    1    4    4    0    0  0.46608694590E-02 -0.82461283118E-02  0.41362316683E-01  0.42436124925E-01  0.51100000000E-03 0.  1.
         11    1    4    4    0    0 -0.12939548071E-01 -0.32924925747E-01  0.78354752755E-01  0.85972152701E-01  0.51100000000E-03 0. -1.
</event>
<event>
 8    1  0.1054086E+005  0.1043930E+01  0.7957747E-01            NaN
         13   -1    0    0    0    0  0.00000000000E+00  0.00000000000E+00  0.74505805969E-08  0.10566000000E+00  0.10566000000E+00 0. -1.
     999900   -1    0    0    0    0 -0.00000000000E+00 -0.00000000000E+00 -0.74505805969E-08  0.93827000000E+00  0.93827000000E+00 0.  1.
     999902    2    1    2    0    0 -0.14312291872E-01  0.10360018471E-01  0.18272498782E-01  0.10185123704E+01  0.10181951644E+01 0.  0.
     999903    2    3    3    0    0 -0.28748214449E-01 -0.12219309570E+00 -0.13633249431E-01  0.12789645955E+00  0.20347638827E-01 0.  0.
         14    1    1    2    0    0  0.14312291872E-01 -0.10360018471E-01 -0.18272498782E-01  0.25417629572E-01  0.00000000000E+00 0.  1.
     999901    1    3    3    0    0  0.14435922577E-01  0.13255311417E+00  0.31905748212E-01  0.89061591088E+00  0.88000000000E+00 0. -1.
        -11    1    4    4    0    0 -0.24455600923E-01 -0.61224022729E-01 -0.43455693959E-02  0.66072705938E-01  0.51100000000E-03 0. -1.
         11    1    4    4    0    0 -0.42926135261E-02 -0.60969072968E-01 -0.92876800347E-02  0.61823753614E-01  0.51100000000E-03 0.  1.
</event>
<event>
 8    1  0.1054086E+005  0.1043930E+01  0.7957747E-01            NaN
         13   -1    0    0    0    0  0.00000000000E+00  0.00000000000E+00  0.74505805969E-08  0.10566000000E+00  0.10566000000E+00 0.  1.
     999900   -1    0    0    0    0 -0.00000000000E+00 -0.00000000000E+00 -0.74505805969E-08  0.93827000000E+00  0.93827000000E+00 0. -1.
     999902    2    1    2    0    0  0.12292480815E-01  0.18637415380E-01  0.86035099871E-02  0.10200034724E+01  0.10197228080E+01 0.  0.
     999903    2    3    3    0    0 -0.26617381660E-01  0.83494337046E-01  0.97063001546E-01  0.13234054130E+00  0.20322482062E-01 0.  0.
         14    1    1    2    0    0 -0.12292480815E-01 -0.18637415380E-01 -0.86035099871E-02  0.23926527553E-01  0.00000000000E+00 0. -1.
     999901    1    3    3    0    0  0.38909862476E-01 -0.64856921666E-01 -0.88459491559E-01  0.88766293115E+00  0.88000000000E+00 0. -1.
        -11    1    4    4    0    0 -0.53508119519E-02  0.40814261044E-01  0.34741959771E-01  0.53867429703E-01  0.51100000000E-03 0.  1.
         11    1    4    4    0    0 -0.21266569709E-01  0.42680076002E-01  0.62321041775E-01  0.78473111597E-01  0.51100000000E-03 0. -1.
</event>
<event>
 8    1  0.1054086E+005  0.1043930E+01  0.7957747E-01            NaN
         13   -1    0    0    0    0  0.00000000000E+00  0.00000000000E+00  0.74505805969E-08  0.10566000000E+00  0.10566000000E+00 0. -1.
     999900   -1    0    0    0    0 -0.00000000000E+00 -0.00000000000E+00 -0.74505805969E-08  0.93827000000E+00  0.93827000000E+00 0. -1.
     999902    2    1    2    0    0 -0.12375285784E-01 -0.15147041475E-01 -0.11153165031E-01  0.10214139245E+01  0.10211657219E+01 0.  0.
     999903    2    3    3    0    0  0.82766934005E-01  0.78415048901E-02  0.97245484560E-01  0.12937649120E+00  0.19228563260E-01 0.  0.
         14    1    1    2    0    0  0.12375285784E-01  0.15147041475E-01  0.11153165031E-01  0.22516075455E-01  0.00000000000E+00 0. -1.
     999901    1    3    3    0    0 -0.95142219789E-01 -0.22988546365E-01 -0.10839864959E+00  0.89203743334E+00  0.88000000000E+00 0. -1.
        -11    1    4    4    0    0  0.14863982514E-01 -0.59636851785E-02  0.17346188111E-01  0.23614717446E-01  0.51100000000E-03 0. -1.
         11    1    4    4    0    0  0.67902951491E-01  0.13805190069E-01  0.79899296449E-01  0.10576177376E+00  0.51100000000E-03 0.  1.
</event>
<event>
 8    1  0.1054086E+005  0.1043930E+01  0.7957747E-01            NaN
         13   -1    0    0    0    0  0.00000000000E+00  0.00000000000E+00  0.74505805969E-08  0.10566000000E+00  0.10566000000E+00 0.  1.
     999900   -1    0    0    0    0 -0.00000000000E+00 -0.00000000000E+00 -0.74505805969E-08  0.93827000000E+00  0.93827000000E+00 0. -1.
     999902    2    1    2    0    0  0.81990973151E-02 -0.17060606030E-01 -0.14655391874E-01  0.10199911198E+01  0.10197101620E+01 0.  0.
     999903    2    3    3    0    0  0.18623922325E-01  0.12464012706E+00 -0.17213099491E-01  0.12859091976E+00  0.18902965234E-01 0.  0.
         14    1    1    2    0    0 -0.81990973151E-02  0.17060606030E-01  0.14655391874E-01  0.23938880214E-01  0.00000000000E+00 0. -1.
     999901    1    3    3    0    0 -0.10424825010E-01 -0.14170073309E+00  0.25577076163E-02  0.89140020002E+00  0.88000000000E+00 0.  1.
        -11    1    4    4    0    0  0.60693220422E-02  0.54026625101E-01 -0.16666846295E-01  0.56866139101E-01  0.51100000000E-03 0.  1.
         11    1    4    4    0    0  0.12554600283E-01  0.70613501960E-01 -0.54625319593E-03  0.71724780661E-01  0.51100000000E-03 0. -1.
</event>
<event>
 8    1  0.1054086E+005  0.1043930E+01  0.7957747E-01            NaN
         13   -1    0    0    0    0  0.00000000000E+00  0.00000000000E+00  0.74505805969E-08  0.10566000000E+00  0.10566000000E+00 0.  1.
     999900   -1    0    0    0    0 -0.00000000000E+00 -0.00000000000E+00 -0.74505805969E-08  0.93827000000E+00  0.93827000000E+00 0. -1.
     999902    2    1    2    0    0 -0.22033052556E-01 -0.95189510524E-02  0.53247553979E-02  0.10193450686E+01  0.10190485513E+01 0.  0.
     999903    2    3    3    0    0 -0.12448666363E+00  0.18816253545E-01  0.36137892587E-01  0.13241267222E+00  0.19395557839E-01 0.  0.
         14    1    1    2    0    0  0.22033052556E-01  0.95189510524E-02 -0.53247553979E-02  0.24584931445E-01  0.00000000000E+00 0. -1.
     999901    1    3    3    0    0  0.10245361108E+00 -0.28335204598E-01 -0.30813137189E-01  0.88693239633E+00  0.88000000000E+00 0. -1.
        -11    1    4    4    0    0 -0.93825231926E-01  0.22407617836E-01  0.25853659145E-01  0.99869656529E-01  0.51100000000E-03 0.  1.
         11    1    4    4    0    0 -0.30661431709E-01 -0.35913642903E-02  0.10284233442E-01  0.32543015693E-01  0.51100000000E-03 0. -1.
</event>
<event>
 8    1  0.1054086E+005  0.1043930E+01  0.7957747E-01            NaN
         13   -1    0    0    0    0  0.00000000000E+00  0.00000000000E+00  0.74505805969E-08  0.10566000000E+00  0.10566000000E+00 0.  1.
     999900   -1    0    0    0    0 -0.00000000000E+00 -0.00000000000E+00 -0.74505805969E-08  0.93827000000E+00  0.93827000000E+00 0.  1.
     999902    2    1    2    0    0 -0.16021288029E-01 -0.21309406415E-02 -0.17144508269E-01  0.10203682356E+01  0.10200961619E+01 0.  0.
     999903    2    3    3    0    0 -0.34381921121E-01  0.11428825466E+00 -0.52241182048E-01  0.13181755139E+00  0.20069980075E-01 0.  0.
         14    1    1    2    0    0  0.16021288029E-01  0.21309406415E-02  0.17144508269E-01  0.23561764406E-01  0.00000000000E+00 0.  1.
     999901    1    3    3    0    0  0.18360633092E-01 -0.11641919530E+00  0.35096673779E-01  0.88855068420E+00  0.88000000000E+00 0.  1.
        -11    1    4    4    0    0 -0.26154314173E-01  0.90954604008E-01 -0.32187782276E-01  0.99965506996E-01  0.51100000000E-03 0.  1.
         11    1    4    4    0    0 -0.82276069481E-02  0.23333650653E-01 -0.20053399773E-01  0.31852044398E-01  0.51100000000E-03 0. -1.
</event>
<event>
 8    1  0.1054086E+005  0.1043930E+01  0.7957747E-01            NaN
         13   -1    0    0    0    0  0.00000000000E+00  0.00000000000E+00  0.74505805969E-08  0.10566000000E+00  0.10566000000E+00 0. -1.
     999900   -1    0    0    0    0 -0.00000000000E+00 -0.00000000000E+00 -0.74505805969E-08  0.93827000000E+00  0.93827000000E+00 0. -1.
     999902    2    1    2    0    0 -0.22337195879E-01 -0.11066718258E-01 -0.18030653010E-02  0.10189365285E+01  0.10186299502E+01 0.  0.
     999903    2    3    3    0    0  0.84907021092E-02  0.78481802829E-01  0.98927370070E-01  0.12814142438E+00  0.20052797718E-01 0.  0.
         14    1    1    2    0    0  0.22337195879E-01  0.11066718258E-01  0.18030653010E-02  0.24993471492E-01  0.00000000000E+00 0. -1.
     999901    1    3    3    0    0 -0.30827897989E-01 -0.89548521087E-01 -0.10073043537E+00  0.89079510413E+00  0.88000000000E+00 0. -1.
        -11    1    4    4    0    0  0.12253167235E-02  0.54836252564E-01  0.79959663621E-01  0.96965586286E-01  0.51100000000E-03 0. -1.
         11    1    4    4    0    0  0.72653853856E-02  0.23645550265E-01  0.18967706449E-01  0.31175838097E-01  0.51100000000E-03 0.  1.
</event>
<event>
 8    1  0.1054086E+005  0.1043930E+01  0.7957747E-01            NaN
         13   -1    0    0    0    0  0.00000000000E+00  0.00000000000E+00  0.74505805969E-08  0.10566000000E+00  0.10566000000E+00 0. -1.
     999900   -1    0    0    0    0 -0.00000000000E+00 -0.00000000000E+00 -0.74505805969E-08  0.93827000000E+00  0.93827000000E+00 0. -1.
     999902    2    1    2    0    0 -0.15887606391E-01  0.30447232439E-02  0.12748479309E-01  0.10233336386E+01  0.10231263489E+01 0.  0.
     999903    2    3    3    0    0  0.11683039574E+00 -0.44098172696E-01  0.37549469949E-01  0.13178913058E+00  0.19089841323E-01 0.  0.
         14    1    1    2    0    0  0.15887606391E-01 -0.30447232439E-02 -0.12748479309E-01  0.20596361357E-01  0.00000000000E+00 0.  1.
     999901    1    3    3    0    0 -0.13271800213E+00  0.47142895940E-01 -0.24800990639E-01  0.89154450807E+00  0.88000000000E+00 0.  1.
        -11    1    4    4    0    0  0.17920589396E-01 -0.42358730106E-02  0.12448821419E-01  0.22233407750E-01  0.51100000000E-03 0.  1.
         11    1    4    4    0    0  0.98909806340E-01 -0.39862299686E-01  0.25100648530E-01  0.10955572283E+00  0.51100000000E-03 0. -1.
</event>
<event>
 8    1  0.1054086E+005  0.1043930E+01  0.7957747E-01            NaN
         13   -1    0    0    0    0  0.00000000000E+00  0.00000000000E+00  0.74505805969E-08  0.10566000000E+00  0.10566000000E+00 0.  1.
     999900   -1    0    0    0    0 -0.00000000000E+00 -0.00000000000E+00 -0.74505805969E-08  0.93827000000E+00  0.93827000000E+00 0. -1.
     999902    2    1    2    0    0 -0.11781940289E-01  0.20497621459E-01 -0.49905725266E-02  0.10197665479E+01  0.10194802302E+01 0.  0.
     999903    2    3    3    0    0 -0.91555819534E-01 -0.72205982070E-01 -0.53956234569E-01  0.12996012741E+00  0.19549617135E-01 0.  0.
         14    1    1    2    0    0  0.11781940289E-01 -0.20497621459E-01  0.49905725266E-02  0.24163452084E-01  0.00000000000E+00 0.  1.
     999901    1    3    3    0    0  0.79773879244E-01  0.92703603529E-01  0.48965662042E-01  0.88980642051E+00  0.88000000000E+00 0.  1.
        -11    1    4    4    0    0 -0.20187904439E-01 -0.10867662812E-01 -0.18246458499E-01  0.29306175960E-01  0.51100000000E-03 0. -1.
         11    1    4    4    0    0 -0.71367915095E-01 -0.61338319258E-01 -0.35709776070E-01  0.10065395145E+00  0.51100000000E-03 0.  1.
</event>
<event>
 8    1  0.1054086E+005  0.1043930E+01  0.7957747E-01            NaN
         13   -1    0    0    0    0  0.00000000000E+00  0.00000000000E+00  0.74505805969E-08  0.10566000000E+00  0.10566000000E+00 0. -1.
     999900   -1    0    0    0    0 -0.00000000000E+00 -0.00000000000E+00 -0.74505805969E-08  0.93827000000E+00  0.93827000000E+00 0. -1.
     999902    2    1    2    0    0 -0.52646599649E-02  0.22699470455E-01 -0.11765310665E-01  0.10178262620E+01  0.10174914714E+01 0.  0.
     999903    2    3    3    0    0  0.12392923029E+00  0.23149046890E-01 -0.13407918572E-01  0.12839163169E+00  0.20256019261E-01 0.  0.
         14    1    1    2    0    0  0.52646599649E-02 -0.22699470455E-01  0.11765310665E-01  0.26103738018E-01  0.00000000000E+00 0. -1.
     999901    1    3    3    0    0 -0.12919389025E+00 -0.44957643568E-03  0.16426079069E-02  0.88943463029E+00  0.88000000000E+00 0. -1.
        -11    1    4    4    0    0  0.50372861711E-01  0.18476098244E-01 -0.10184181429E-01  0.54614742292E-01  0.51100000000E-03 0.  1.
         11    1    4    4    0    0  0.73556368578E-01  0.46729486467E-02 -0.32237371428E-02  0.73776889400E-01  0.51100000000E-03 0. -1.
</event>
<event>
 8    1  0.1054086E+005  0.1043930E+01  0.7957747E-01            NaN
         13   -1    0    0    0    0  0.00000000000E+00  0.00000000000E+00  0.74505805969E-08  0.10566000000E+00  0.10566000000E+00 0. -1.
     999900   -1    0    0    0    0 -0.00000000000E+00 -0.00000000000E+00 -0.74505805969E-08  0.93827000000E+00  0.93827000000E+00 0.  1.
     999902    2    1    2    0    0 -0.63314381999E-02  0.18625792633E-01  0.12749532859E-01  0.10204873498E+01  0.10202180518E+01 0.  0.
     999903    2    3    3    0    0  0.12111628746E+00 -0.24297885607E-01 -0.30276245174E-01  0.12923172848E+00  0.22905158608E-01 0.  0.
         14    1    1    2    0    0  0.63314381999E-02 -0.18625792633E-01 -0.12749532859E-01  0.23442650213E-01  0.00000000000E+00 0.  1.
     999901    1    3    3    0    0 -0.12744772566E+00  0.42923678240E-01  0.43025778033E-01  0.89125562130E+00  0.88000000000E+00 0.  1.
        -11    1    4    4    0    0  0.72668845989E-01 -0.97697034192E-02 -0.73333566276E-02  0.73690213208E-01  0.51100000000E-03 0.  1.
         11    1    4    4    0    0  0.48447441475E-01 -0.14528182187E-01 -0.22942888547E-01  0.55541515275E-01  0.51100000000E-03 0. -1.
</event>
<event>
 8    1  0.1054086E+005  0.1043930E+01  0.7957747E-01            NaN
         13   -1    0    0    0    0  0.00000000000E+00  0.00000000000E+00  0.74505805969E-08  0.10566000000E+00  0.10566000000E+00 0.  1.
     999900   -1    0    0    0    0 -0.00000000000E+00 -0.00000000000E+00 -0.74505805969E-08  0.93827000000E+00  0.93827000000E+00 0.  1.
     999902    2    1    2    0    0  0.19914590531E-01 -0.38297222333E-02 -0.10137893827E-01  0.10212576693E+01  0.10210059709E+01 0.  0.
     999903    2    3    3    0    0 -0.10194763291E-01 -0.12292060306E+00  0.40133367825E-01  0.13130463074E+00  0.20415949318E-01 0.  0.
         14    1    1    2    0    0 -0.19914590531E-01  0.38297222333E-02  0.10137893827E-01  0.22672330706E-01  0.00000000000E+00 0.  1.
     999901    1    3    3    0    0  0.30109353822E-01  0.11909088082E+00 -0.50271261652E-01  0.88995303855E+00  0.88000000000E+00 0. -1.
        -11    1    4    4    0    0 -0.11767329301E-01 -0.97362443523E-01  0.39376085075E-01  0.10568184633E+00  0.51100000000E-03 0. -1.
         11    1    4    4    0    0  0.15725660104E-02 -0.25558159533E-01  0.75728275010E-03  0.25622784406E-01  0.51100000000E-03 0.  1.
</event>
<event>
 8    1  0.1054086E+005  0.1043930E+01  0.7957747E-01            NaN
         13   -1    0    0    0    0  0.00000000000E+00  0.00000000000E+00  0.74505805969E-08  0.10566000000E+00  0.10566000000E+00 0. -1.
     999900   -1    0    0    0    0 -0.00000000000E+00 -0.00000000000E+00 -0.74505805969E-08  0.93827000000E+00  0.93827000000E+00 0.  1.
     999902    2    1    2    0    0  0.35233596332E-02 -0.86569178628E-02  0.21207674872E-01  0.10207541125E+01  0.10204909781E+01 0.  0.
     999903    2    3    3    0    0  0.25489822756E-01  0.12351859410E+00 -0.21480973952E-01  0.12958902550E+00  0.20623024403E-01 0.  0.
         14    1    1    2    0    0 -0.35233596332E-02  0.86569178628E-02 -0.21207674872E-01  0.23175887545E-01  0.00000000000E+00 0.  1.
     999901    1    3    3    0    0 -0.21966463123E-01 -0.13217551197E+00  0.42688648824E-01  0.89116508695E+00  0.88000000000E+00 0. -1.
        -11    1    4    4    0    0  0.15651949181E-01  0.82980588876E-01 -0.45544299526E-02  0.84568112174E-01  0.51100000000E-03 0.  1.
         11    1    4    4    0    0  0.98378735748E-02  0.40538005226E-01 -0.16926543999E-01  0.45020913329E-01  0.51100000000E-03 0. -1.
</event>
<event>
 8    1  0.1054086E+005  0.1043930E+01  0.7957747E-01            NaN
         13   -1    0    0    0    0  0.00000000000E+00  0.00000000000E+00  0.74505805969E-08  0.10566000000E+00  0.10566000000E+00 0. -1.
     999900   -1    0    0    0    0 -0.00000000000E+00 -0.00000000000E+00 -0.74505805969E-08  0.93827000000E+00  0.93827000000E+00 0.  1.
     999902    2    1    2    0    0 -0.14527550262E-01  0.17398236794E-01 -0.74008779580E-02  0.10200863142E+01  0.10198076127E+01 0.  0.
     999903    2    3    3    0    0 -0.12351402633E+00  0.38780473970E-01 -0.22851124547E-01  0.13297078495E+00  0.19985392091E-01 0.  0.
         14    1    1    2    0    0  0.14527550262E-01 -0.17398236794E-01  0.74008779580E-02  0.23843685845E-01  0.00000000000E+00 0. -1.
     999901    1    3    3    0    0  0.10898647606E+00 -0.21382237177E-01  0.15450246589E-01  0.88711552920E+00  0.88000000000E+00 0. -1.
        -11    1    4    4    0    0 -0.50241790360E-01  0.26013122576E-01 -0.83380069568E-02  0.57190064922E-01  0.51100000000E-03 0. -1.
         11    1    4    4    0    0 -0.73272235967E-01  0.12767351394E-01 -0.14513117591E-01  0.75780720031E-01  0.51100000000E-03 0.  1.
</event>
<event>
 8    1  0.1054086E+005  0.1043930E+01  0.7957747E-01            NaN
         13   -1    0    0    0    0  0.00000000000E+00  0.00000000000E+00  0.74505805969E-08  0.10566000000E+00  0.10566000000E+00 0. -1.
     999900   -1    0    0    0    0 -0.00000000000E+00 -0.00000000000E+00 -0.74505805969E-08  0.93827000000E+00  0.93827000000E+00 0. -1.
     999902    2    1    2    0    0  0.16650854044E-01 -0.16640805033E-01 -0.12410820934E-01  0.10173180514E+01  0.10169699218E+01 0.  0.
     999903    2    3    3    0    0 -0.14250661716E-01 -0.97365905689E-01  0.79955171592E-01  0.12827197715E+00  0.19433726015E-01 0.  0.
         14    1    1    2    0    0 -0.16650854044E-01  0.16640805033E-01  0.12410820934E-01  0.26611948609E-01  0.00000000000E+00 0. -1.
     999901    1    3    3    0    0  0.30901515759E-01  0.80725100656E-01 -0.92365992526E-01  0.88904607424E+00  0.88000000000E+00 0. -1.
        -11    1    4    4    0    0 -0.59668119258E-03 -0.54373936173E-01  0.35525897376E-01  0.64955611526E-01  0.51100000000E-03 0.  1.
         11    1    4    4    0    0 -0.13653980523E-01 -0.42991969516E-01  0.44429274217E-01  0.63316365621E-01  0.51100000000E-03 0. -1.
</event>
<event>
 7    1  0.1054086E+005  0.1043930E+01  0.7957747E-01            NaN
         13   -1    0    0    0    0  0.00000000000E+00  0.00000000000E+00  0.74505805969E-08  0.10566000000E+00  0.10566000000E+00 0.  1.
     999900   -1    0    0    0    0 -0.00000000000E+00 -0.00000000000E+00 -0.74505805969E-08  0.93827000000E+00  0.93827000000E+00 0. -1.
     999902    2    1    2    0    0  0.16654920520E-01 -0.16294931683E-01 -0.12097375556E-01  0.10176762827E+01  0.10173375835E+01 0.  0.
         14    1    1    2    0    0 -0.16654920520E-01  0.16294931683E-01  0.12097375556E-01  0.26253717288E-01  0.00000000000E+00 0. -1.
     999901    1    3    3    0    0  0.61244779917E-01 -0.12421419957E+00  0.15965737493E-01  0.89097418325E+00  0.88000000000E+00 0. -1.
        -11    1    3    3    0    0 -0.25528693255E-01  0.23063595166E-01 -0.18878767389E-01  0.39246816182E-01  0.51100000000E-03 0.  1.
         11    1    3    3    0    0 -0.19061166142E-01  0.84855672721E-01 -0.91843456600E-02  0.87455283281E-01  0.51100000000E-03 0. -1.
</event>
<event>
 8    1  0.1054086E+005  0.1043930E+01  0.7957747E-01            NaN
         13   -1    0    0    0    0  0.00000000000E+00  0.00000000000E+00  0.74505805969E-08  0.10566000000E+00  0.10566000000E+00 0. -1.
     999900   -1    0    0    0    0 -0.00000000000E+00 -0.00000000000E+00 -0.74505805969E-08  0.93827000000E+00  0.93827000000E+00 0.  1.
     999902    2    1    2    0    0  0.92612612671E-02  0.62021366204E-02  0.21175111805E-01  0.10200004614E+01  0.10197197254E+01 0.  0.
     999903    2    3    3    0    0  0.99186861679E-01  0.81981060865E-01  0.22400008021E-01  0.13217696577E+00  0.20249988926E-01 0.  0.
         14    1    1    2    0    0 -0.92612612671E-02 -0.62021366204E-02 -0.21175111805E-01  0.23929538626E-01  0.00000000000E+00 0. -1.
     999901    1    3    3    0    0 -0.89925600412E-01 -0.75778924245E-01 -0.12248962162E-02  0.88782349560E+00  0.88000000000E+00 0.  1.
        -11    1    4    4    0    0  0.32971812147E-01  0.31539824944E-01 -0.12299139378E-02  0.45647286481E-01  0.51100000000E-03 0. -1.
         11    1    4    4    0    0  0.66215049532E-01  0.50441235921E-01  0.23629921959E-01  0.86529679293E-01  0.51100000000E-03 0.  1.
</event>
<event>
 8    1  0.1054086E+005  0.1043930E+01  0.7957747E-01            NaN
         13   -1    0    0    0    0  0.00000000000E+00  0.00000000000E+00  0.74505805969E-08  0.10566000000E+00  0.10566000000E+00 0. -1.
     999900   -1    0    0    0    0 -0.00000000000E+00 -0.00000000000E+00 -0.74505805969E-08  0.93827000000E+00  0.93827000000E+00 0.  1.
     999902    2    1    2    0    0  0.16157349863E-02 -0.18630224907E-01 -0.14731419894E-01  0.10201243156E+01  0.10198465123E+01 0.  0.
     999903    2    3    3    0    0 -0.63833440393E-01 -0.97392183271E-01  0.57480344899E-01  0.13124773266E+00  0.19027133391E-01 0.  0.
         14    1    1    2    0    0 -0.16157349863E-02  0.18630224907E-01  0.14731419894E-01  0.23805684442E-01  0.00000000000E+00 0. -1.
     999901    1    3    3    0    0  0.65449175379E-01  0.78761958364E-01 -0.72211764793E-01  0.88887658289E+00  0.88000000000E+00 0. -1.
        -11    1    4    4    0    0 -0.36214441982E-01 -0.38032269027E-01  0.25703009669E-01  0.58470891240E-01  0.51100000000E-03 0.  1.
         11    1    4    4    0    0 -0.27618998411E-01 -0.59359914244E-01  0.31777335230E-01  0.72776841424E-01  0.51100000000E-03 0. -1.
</event>
<event>
 8    1  0.1054086E+005  0.1043930E+01  0.7957747E-01            NaN
         13   -1    0    0    0    0  0.00000000000E+00  0.00000000000E+00  0.74505805969E-08  0.10566000000E+00  0.10566000000E+00 0. -1.
     999900   -1    0    0    0    0 -0.00000000000E+00 -0.00000000000E+00 -0.74505805969E-08  0.93827000000E+00  0.93827000000E+00 0. -1.
     999902    2    1    2    0    0 -0.15666892741E-01 -0.16806089001E-01 -0.51932876368E-02  0.10203743979E+01  0.10201024681E+01 0.  0.
     999903    2    3    3    0    0  0.91115690700E-02  0.11379977746E+00  0.55239786488E-01  0.12834075445E+00  0.19659735561E-01 0.  0.
         14    1    1    2    0    0  0.15666892741E-01  0.16806089001E-01  0.51932876368E-02  0.23555602139E-01  0.00000000000E+00 0. -1.
     999901    1    3    3    0    0 -0.24778461811E-01 -0.13060586646E+00 -0.60433074125E-01  0.89203364341E+00  0.88000000000E+00 0.  1.
        -11    1    4    4    0    0  0.10551027415E-01  0.26486973895E-01  0.13235581650E-01  0.31437647944E-01  0.51100000000E-03 0. -1.
         11    1    4    4    0    0 -0.14394583453E-02  0.87312803562E-01  0.42004204838E-01  0.96903106510E-01  0.51100000000E-03 0.  1.
</event>
<event>
 8    1  0.1054086E+005  0.1043930E+01  0.7957747E-01            NaN
         13   -1    0    0    0    0  0.00000000000E+00  0.00000000000E+00  0.74505805969E-08  0.10566000000E+00  0.10566000000E+00 0. -1.
     999900   -1    0    0    0    0 -0.00000000000E+00 -0.00000000000E+00 -0.74505805969E-08  0.93827000000E+00  0.93827000000E+00 0.  1.
     999902    2    1    2    0    0 -0.24695264194E-01 -0.44824479623E-02  0.78779872313E-02  0.10176238962E+01  0.10172838262E+01 0.  0.
     999903    2    3    3    0    0  0.23073191564E-01 -0.10509369355E+00 -0.61821771278E-01  0.12786971419E+00  0.30849243253E-01 0.  0.
         14    1    1    2    0    0  0.24695264194E-01  0.44824479623E-02 -0.78779872313E-02  0.26306103782E-01  0.00000000000E+00 0.  1.
     999901    1    3    3    0    0 -0.47768455758E-01  0.10061124559E+00  0.69699758509E-01  0.88975418203E+00  0.88000000000E+00 0. -1.
        -11    1    4    4    0    0  0.15327647137E-01 -0.74119003311E-01 -0.58702470012E-01  0.95785199927E-01  0.51100000000E-03 0.  1.
         11    1    4    4    0    0  0.77455444273E-02 -0.30974690241E-01 -0.31193012665E-02  0.32084514261E-01  0.51100000000E-03 0. -1.
</event>
<event>
 8    1  0.1054086E+005  0.1043930E+01  0.7957747E-01            NaN
         13   -1    0    0    0    0  0.00000000000E+00  0.00000000000E+00  0.74505805969E-08  0.10566000000E+00  0.10566000000E+00 0. -1.
     999900   -1    0    0    0    0 -0.00000000000E+00 -0.00000000000E+00 -0.74505805969E-08  0.93827000000E+00  0.93827000000E+00 0. -1.
     999902    2    1    2    0    0  0.81901264217E-02  0.20401446830E-01 -0.68048842636E-02  0.10209168808E+01  0.10206574714E+01 0.  0.
     999903    2    3    3    0    0  0.69818006815E-01 -0.88971537514E-01  0.59870697901E-01  0.12951008336E+00  0.19946745612E-01 0.  0.
         14    1    1    2    0    0 -0.81901264217E-02 -0.20401446830E-01  0.68048842636E-02  0.23013119158E-01  0.00000000000E+00 0. -1.
     999901    1    3    3    0    0 -0.61627880393E-01  0.10937298434E+00 -0.66675582165E-01  0.89140679749E+00  0.88000000000E+00 0. -1.
        -11    1    4    4    0    0  0.35680649698E-02 -0.12457155110E-01  0.26257040702E-02  0.13231297892E-01  0.51100000000E-03 0.  1.
         11    1    4    4    0    0  0.66249941845E-01 -0.76514382405E-01  0.57244993831E-01  0.11627878546E+00  0.51100000000E-03 0. -1.
</event>
<event>
 8    1  0.1054086E+005  0.1043930E+01  0.7957747E-01            NaN
         13   -1    0    0    0    0  0.00000000000E+00  0.00000000000E+00  0.74505805969E-08  0.10566000000E+00  0.10566000000E+00 0.  1.
     999900   -1    0    0    0    0 -0.00000000000E+00 -0.00000000000E+00 -0.74505805969E-08  0.93827000000E+00  0.93827000000E+00 0.  1.
     999902    2    1    2    0    0  0.82955869094E-02  0.14972944397E-01  0.15581384138E-01  0.10207829622E+01  0.10205204900E+01 0.  0.
     999903    2    3    3    0    0  0.44952447418E-01 -0.11996008255E+00 -0.27573955846E-03  0.12960279214E+00  0.19638323815E-01 0.  0.
         14    1    1    2    0    0 -0.82955869094E-02 -0.14972944397E-01 -0.15581384138E-01  0.23147037775E-01  0.00000000000E+00 0. -1.
     999901    1    3    3    0    0 -0.36656860509E-01  0.13493302695E+00  0.15857123697E-01  0.89118017009E+00  0.88000000000E+00 0.  1.
        -11    1    4    4    0    0  0.23696405428E-01 -0.79069637449E-01  0.74127026848E-02  0.82877840698E-01  0.51100000000E-03 0.  1.
         11    1    4    4    0    0  0.21256041990E-01 -0.40890445105E-01 -0.76884422433E-02  0.46724951440E-01  0.51100000000E-03 0. -1.
</event>
<event>
 8    1  0.1054086E+005  0.1043930E+01  0.7957747E-01            NaN
         13   -1    0    0    0    0  0.00000000000E+00  0.00000000000E+00  0.74505805969E-08  0.10566000000E+00  0.10566000000E+00 0. -1.
     999900   -1    0    0    0    0 -0.00000000000E+00 -0.00000000000E+00 -0.74505805969E-08  0.93827000000E+00  0.93827000000E+00 0. -1.
     999902    2    1    2    0    0  0.55556307148E-02  0.70265385523E-02 -0.21947079218E-01  0.10202253261E+01  0.10199499030E+01 0.  0.
     999903    2    3    3    0    0  0.17023472120E-01  0.49088500737E-01  0.11604727098E+00  0.12840518691E+00  0.17928843094E-01 0.  0.
         14    1    1    2    0    0 -0.55556307148E-02 -0.70265385523E-02  0.21947079218E-01  0.23704673861E-01  0.00000000000E+00 0. -1.
     999901    1    3    3    0    0 -0.11467841405E-01 -0.42061962185E-01 -0.13799435020E+00  0.89182013923E+00  0.88000000000E+00 0. -1.
        -11    1    4    4    0    0  0.20074415557E-01  0.46758793048E-01  0.11032326681E+00  0.12149424352E+00  0.51100000000E-03 0. -1.
         11    1    4    4    0    0 -0.30509434372E-02  0.23297076886E-02  0.57240041709E-02  0.69109433886E-02  0.51100000000E-03 0.  1.
</event>
<event>
 8    1  0.1054086E+005  0.1043930E+01  0.7957747E-01            NaN
         13   -1    0    0    0    0  0.00000000000E+00  0.00000000000E+00  0.74505805969E-08  0.10566000000E+00  0.10566000000E+00 0. -1.
     999900   -1    0    0    0    0 -0.00000000000E+00 -0.00000000000E+00 -0.74505805969E-08  0.93827000000E+00  0.93827000000E+00 0. -1.
     999902    2    1    2    0    0 -0.75859337012E-04  0.16214318048E-01  0.16919303083E-01  0.10204955663E+01  0.10202264593E+01 0.  0.
     999903    2    3    3    0    0 -0.51486977175E-01  0.88433329797E-02 -0.11572075424E+00  0.12904123814E+00  0.23048531875E-01 0.  0.
         14    1    1    2    0    0  0.75859337012E-04 -0.16214318048E-01 -0.16919303083E-01  0.23434433665E-01  0.00000000000E+00 0.  1.
     999901    1    3    3    0    0  0.51411117838E-01  0.73709850682E-02  0.13264005732E+00  0.89145432820E+00  0.88000000000E+00 0.  1.
        -11    1    4    4    0    0 -0.79890881014E-02  0.26594255334E-03 -0.43990186617E-01  0.44713464345E-01  0.51100000000E-03 0.  1.
         11    1    4    4    0    0 -0.43497889074E-01  0.85773904264E-02 -0.71730567620E-01  0.84327773791E-01  0.51100000000E-03 0. -1.
</event>
<event>
 8    1  0.1054086E+005  0.1043930E+01  0.7957747E-01            NaN
         13   -1    0    0    0    0  0.00000000000E+00  0.00000000000E+00  0.74505805969E-08  0.10566000000E+00  0.10566000000E+00 0. -1.
     999900   -1    0    0    0    0 -0.00000000000E+00 -0.00000000000E+00 -0.74505805969E-08  0.93827000000E+00  0.93827000000E+00 0. -1.
     999902    2    1    2    0    0  0.41312543181E-02  0.15084185119E-01  0.17497844538E-01  0.10204614153E+01  0.10201915142E+01 0.  0.
     999903    2    3    3    0    0  0.46937011794E-01 -0.53765624558E-01 -0.10493561033E+00  0.12829406554E+00  0.18816468251E-01 0.  0.
         14    1    1    2    0    0 -0.41312543181E-02 -0.15084185119E-01 -0.17497844538E-01  0.23468584670E-01  0.00000000000E+00 0.  1.
     999901    1    3    3    0    0 -0.42805757476E-01  0.68849809677E-01  0.12243345486E+00  0.89216734979E+00  0.88000000000E+00 0.  1.
        -11    1    4    4    0    0  0.21331562245E-01 -0.38403111159E-01 -0.63607744760E-01  0.77304856309E-01  0.51100000000E-03 0. -1.
         11    1    4    4    0    0  0.25605449548E-01 -0.15362513399E-01 -0.41327865566E-01  0.50989209229E-01  0.51100000000E-03 0.  1.
</event>
<event>
 8    1  0.1126670E+005  0.1043930E+01  0.7957747E-01            NaN
         13   -1    0    0    0    0  0.00000000000E+00  0.00000000000E+00  0.74505805969E-08  0.10566000000E+00  0.10566000000E+00 0.  1.
     999900   -1    0    0    0    0 -0.00000000000E+00 -0.00000000000E+00 -0.74505805969E-08  0.93827000000E+00  0.93827000000E+00 0.  1.
     999902    2    1    2    0    0  0.13695952878E-02 -0.11143188194E-01  0.20376008005E-01  0.10206656896E+01  0.10204005203E+01 0.  0.
     999903    2    3    3    0    0 -0.59328662218E-01  0.11045184535E+00  0.28889295600E-01  0.13019272165E+00  0.19901082135E-01 0.  0.
         14    1    1    2    0    0 -0.13695952878E-02  0.11143188194E-01 -0.20376008005E-01  0.23264310362E-01  0.00000000000E+00 0.  1.
     999901    1    3    3    0    0  0.60698257505E-01 -0.12159503354E+00 -0.85132875950E-02  0.89047296798E+00  0.88000000000E+00 0. -1.
        -11    1    4    4    0    0 -0.28658526630E-01  0.72353949038E-01  0.14079235110E-01  0.79087869312E-01  0.51100000000E-03 0.  1.
         11    1    4    4    0    0 -0.30670135587E-01  0.38097896309E-01  0.14810060490E-01  0.51104852342E-01  0.51100000000E-03 0. -1.
</event>
<event>
 8    1  0.1054086E+005  0.1043930E+01  0.7957747E-01            NaN
         13   -1    0    0    0    0  0.00000000000E+00  0.00000000000E+00  0.74505805969E-08  0.10566000000E+00  0.10566000000E+00 0. -1.
     999900   -1    0    0    0    0 -0.00000000000E+00 -0.00000000000E+00 -0.74505805969E-08  0.93827000000E+00  0.93827000000E+00 0. -1.
     999902    2    1    2    0    0  0.82328653014E-02 -0.22384885358E-01 -0.63530872284E-02  0.10192475187E+01  0.10189486148E+01 0.  0.
     999903    2    3    3    0    0  0.41779674264E-01 -0.73316327411E-01 -0.99905043497E-01  0.13218981560E+00  0.19295195941E-01 0.  0.
         14    1    1    2    0    0 -0.82328653014E-02  0.22384885358E-01  0.63530872284E-02  0.24682481255E-01  0.00000000000E+00 0. -1.
     999901    1    3    3    0    0 -0.33546808963E-01  0.50931442053E-01  0.93551956269E-01  0.88705770314E+00  0.88000000000E+00 0.  1.
        -11    1    4    4    0    0  0.35687828218E-01 -0.51236516613E-01 -0.82242970456E-01  0.10326165323E+00  0.51100000000E-03 0. -1.
         11    1    4    4    0    0  0.60918460459E-02 -0.22079810798E-01 -0.17662073041E-01  0.28928162372E-01  0.51100000000E-03 0.  1.
</event>
<event>
 8    1  0.1054086E+005  0.1043930E+01  0.7957747E-01            NaN
         13   -1    0    0    0    0  0.00000000000E+00  0.00000000000E+00  0.74505805969E-08  0.10566000000E+00  0.10566000000E+00 0.  1.
     999900   -1    0    0    0    0 -0.00000000000E+00 -0.00000000000E+00 -0.74505805969E-08  0.93827000000E+00  0.93827000000E+00 0.  1.
     999902    2    1    2    0    0 -0.86025814711E-02  0.12009072080E-01 -0.17691819196E-01  0.10208817314E+01  0.10206215198E+01 0.  0.
     999903    2    3    3    0    0 -0.23568102772E-02 -0.11397355950E+00 -0.60794875057E-01  0.13084324539E+00  0.20698096791E-01 0.  0.
         14    1    1    2    0    0  0.86025814711E-02 -0.12009072080E-01  0.17691819196E-01  0.23048268626E-01  0.00000000000E+00 0.  1.
     999901    1    3    3    0    0 -0.62457711940E-02  0.12598263158E+00  0.43103055861E-01  0.89003848599E+00  0.88000000000E+00 0. -1.
        -11    1    4    4    0    0 -0.94035247352E-02 -0.64006896755E-01 -0.26972266708E-01  0.70093319239E-01  0.51100000000E-03 0. -1.
         11    1    4    4    0    0  0.70467144580E-02 -0.49966662742E-01 -0.33822608350E-01  0.60749926146E-01  0.51100000000E-03 0.  1.
</event>
<event>
 8    1  0.1054086E+005  0.1043930E+01  0.7957747E-01            NaN
         13   -1    0    0    0    0  0.00000000000E+00  0.00000000000E+00  0.74505805969E-08  0.10566000000E+00  0.10566000000E+00 0. -1.
     999900   -1    0    0    0    0 -0.00000000000E+00 -0.00000000000E+00 -0.74505805969E-08  0.93827000000E+00  0.93827000000E+00 0. -1.
     999902    2    1    2    0    0 -0.16276874787E-01  0.18110554962E-01 -0.53940385876E-03  0.10195738958E+01  0.10192829388E+01 0.  0.
     999903    2    3    3    0    0 -0.67430175633E-01  0.75217757398E-01 -0.82974923327E-01  0.13240226214E+00  0.20999559614E-01 0.  0.
         14    1    1    2    0    0  0.16276874787E-01 -0.18110554962E-01  0.53940385876E-03  0.24356104171E-01  0.00000000000E+00 0. -1.
     999901    1    3    3    0    0  0.51153300846E-01 -0.57107202436E-01  0.82435519469E-01  0.88717163369E+00  0.88000000000E+00 0.  1.
        -11    1    4    4    0    0 -0.97169971475E-02  0.12643570422E-01 -0.24088250085E-01  0.28892643004E-01  0.51100000000E-03 0. -1.
         11    1    4    4    0    0 -0.57713178485E-01  0.62574186976E-01 -0.58886673243E-01  0.10350961913E+00  0.51100000000E-03 0.  1.
</event>
<event>
 8    1  0.1054086E+005  0.1043930E+01  0.7957747E-01            NaN
         13   -1    0    0    0    0  0.00000000000E+00  0.00000000000E+00  0.74505805969E-08  0.10566000000E+00  0.10566000000E+00 0. -1.
     999900   -1    0    0    0    0 -0.00000000000E+00 -0.00000000000E+00 -0.74505805969E-08  0.93827000000E+00  0.93827000000E+00 0. -1.
     999902    2    1    2    0    0 -0.48566342277E-02 -0.21958634292E-01 -0.69864300075E-02  0.10203805049E+01  0.10201087177E+01 0.  0.
     999903    2    3    3    0    0  0.45300678262E-01  0.74778031894E-01  0.91634683813E-01  0.12819226092E+00  0.19809971645E-01 0.  0.
         14    1    1    2    0    0  0.48566342277E-02  0.21958634292E-01  0.69864300075E-02  0.23549495116E-01  0.00000000000E+00 0. -1.
     999901    1    3    3    0    0 -0.50157312490E-01 -0.96736666186E-01 -0.98621113820E-01  0.89218824397E+00  0.88000000000E+00 0. -1.
        -11    1    4    4    0    0  0.55251730219E-02  0.21763640695E-02  0.11616812143E-01  0.13056628311E-01  0.51100000000E-03 0. -1.
         11    1    4    4    0    0  0.39775505240E-01  0.72601667824E-01  0.80017871670E-01  0.11513563261E+00  0.51100000000E-03 0.  1.
</event>
<event>
 8    1  0.1065733E+005  0.1043930E+01  0.7957747E-01            NaN
         13   -1    0    0    0    0  0.00000000000E+00  0.00000000000E+00  0.74505805969E-08  0.10566000000E+00  0.10566000000E+00 0. -1.
     999900   -1    0    0    0    0 -0.00000000000E+00 -0.00000000000E+00 -0.74505805969E-08  0.93827000000E+00  0.93827000000E+00 0. -1.
     999902    2    1    2    0    0 -0.12709474603E-01  0.79032245498E-02 -0.18434121193E-01  0.10201853474E+01  0.10199089834E+01 0.  0.
     999903    2    3    3    0    0  0.27025284199E-01  0.57508872266E-01 -0.11483356036E+00  0.13264243395E+00  0.19225824424E-01 0.  0.
         14    1    1    2    0    0  0.12709474603E-01 -0.79032245498E-02  0.18434121193E-01  0.23744652601E-01  0.00000000000E+00 0. -1.
     999901    1    3    3    0    0 -0.39734758802E-01 -0.49605647717E-01  0.96399439164E-01  0.88754291345E+00  0.88000000000E+00 0.  1.
        -11    1    4    4    0    0  0.27794558322E-01  0.40875507795E-01 -0.80200745655E-01  0.94211280293E-01  0.51100000000E-03 0. -1.
         11    1    4    4    0    0 -0.76927412294E-03  0.16633364472E-01 -0.34632814701E-01  0.38431153657E-01  0.51100000000E-03 0.  1.
</event>
<event>
 8    1  0.1054086E+005  0.1043930E+01  0.7957747E-01            NaN
         13   -1    0    0    0    0  0.00000000000E+00  0.00000000000E+00  0.74505805969E-08  0.10566000000E+00  0.10566000000E+00 0.  1.
     999900   -1    0    0    0    0 -0.00000000000E+00 -0.00000000000E+00 -0.74505805969E-08  0.93827000000E+00  0.93827000000E+00 0.  1.
     999902    2    1    2    0    0  0.17082665994E-01 -0.21797456876E-02 -0.15684611444E-01  0.10206367434E+01  0.10203709061E+01 0.  0.
     999903    2    3    3    0    0 -0.88288382065E-02 -0.12299186677E+00  0.37109946359E-01  0.13043775438E+00  0.20782492007E-01 0.  0.
         14    1    1    2    0    0 -0.17082665994E-01  0.21797456876E-02  0.15684611444E-01  0.23293256639E-01  0.00000000000E+00 0.  1.
     999901    1    3    3    0    0  0.25911504200E-01  0.12081212108E+00 -0.52794557802E-01  0.89019898898E+00  0.88000000000E+00 0.  1.
        -11    1    4    4    0    0 -0.97339092459E-03 -0.32904603484E-01  0.63739468564E-03  0.32929133200E-01  0.51100000000E-03 0. -1.
         11    1    4    4    0    0 -0.78554472819E-02 -0.90087263283E-01  0.36472551673E-01  0.97508621180E-01  0.51100000000E-03 0.  1.
</event>
<event>
 8    1  0.1054086E+005  0.1043930E+01  0.7957747E-01            NaN
         13   -1    0    0    0    0  0.00000000000E+00  0.00000000000E+00  0.74505805969E-08  0.10566000000E+00  0.10566000000E+00 0. -1.
     999900   -1    0    0    0    0 -0.00000000000E+00 -0.00000000000E+00 -0.74505805969E-08  0.93827000000E+00  0.93827000000E+00 0. -1.
     999902    2    1    2    0    0 -0.32727730804E-02  0.41897206180E-02 -0.24556426379E-01  0.10188046566E+01  0.10184947941E+01 0.  0.
     999903    2    3    3    0    0 -0.46709520639E-01  0.11765180135E+00  0.18374890856E-01  0.12942088525E+00  0.19707948819E-01 0.  0.
         14    1    1    2    0    0  0.32727730804E-02 -0.41897206180E-02  0.24556426379E-01  0.25125343361E-01  0.00000000000E+00 0. -1.
     999901    1    3    3    0    0  0.43436747559E-01 -0.11346208073E+00 -0.42931317235E-01  0.88938377138E+00  0.88000000000E+00 0. -1.
        -11    1    4    4    0    0 -0.28433041699E-01  0.86721471615E-01  0.61660224847E-02  0.91473124214E-01  0.51100000000E-03 0.  1.
         11    1    4    4    0    0 -0.18276478940E-01  0.30930329736E-01  0.12208868371E-01  0.37947761040E-01  0.51100000000E-03 0. -1.
</event>
<event>
 8    1  0.1054086E+005  0.1043930E+01  0.7957747E-01            NaN
         13   -1    0    0    0    0  0.00000000000E+00  0.00000000000E+00  0.74505805969E-08  0.10566000000E+00  0.10566000000E+00 0.  1.
     999900   -1    0    0    0    0 -0.00000000000E+00 -0.00000000000E+00 -0.74505805969E-08  0.93827000000E+00  0.93827000000E+00 0. -1.
     999902    2    1    2    0    0 -0.21651356526E-01 -0.96662538103E-02 -0.32025823763E-02  0.10200035662E+01  0.10197229039E+01 0.  0.
     999903    2    3    3    0    0 -0.11626815983E-01 -0.12440701203E+00 -0.37362411252E-01  0.13184095328E+00  0.19333900162E-01 0.  0.
         14    1    1    2    0    0  0.21651356526E-01  0.96662538103E-02  0.32025823763E-02  0.23926433834E-01  0.00000000000E+00 0.  1.
     999901    1    3    3    0    0 -0.10024540543E-01  0.11474075822E+00  0.34159828876E-01  0.88816261288E+00  0.88000000000E+00 0. -1.
        -11    1    4    4    0    0 -0.31845575297E-03 -0.42100769365E-01 -0.21434229361E-01  0.47246835921E-01  0.51100000000E-03 0.  1.
         11    1    4    4    0    0 -0.11308360230E-01 -0.82306242668E-01 -0.15928181891E-01  0.84594117364E-01  0.51100000000E-03 0. -1.
</event>
<event>
 8    1  0.1054086E+005  0.1043930E+01  0.7957747E-01            NaN
         13   -1    0    0    0    0  0.00000000000E+00  0.00000000000E+00  0.74505805969E-08  0.10566000000E+00  0.10566000000E+00 0.  1.
     999900   -1    0    0    0    0 -0.00000000000E+00 -0.00000000000E+00 -0.74505805969E-08  0.93827000000E+00  0.93827000000E+00 0. -1.
     999902    2    1    2    0    0  0.16948688082E-01 -0.74288968799E-02  0.17542518655E-01  0.10184312452E+01  0.10181119853E+01 0.  0.
     999903    2    3    3    0    0  0.12182695567E+00 -0.43172653342E-01 -0.66255710646E-02  0.13115385693E+00  0.21254431805E-01 0.  0.
         14    1    1    2    0    0 -0.16948688082E-01  0.74288968799E-02 -0.17542518655E-01  0.25498754819E-01  0.00000000000E+00 0. -1.
     999901    1    3    3    0    0 -0.10487826759E+00  0.35743756462E-01  0.24168089719E-01  0.88727738825E+00  0.88000000000E+00 0.  1.
        -11    1    4    4    0    0  0.88435676921E-01 -0.38291577307E-01 -0.11495811878E-01  0.97054256253E-01  0.51100000000E-03 0.  1.
         11    1    4    4    0    0  0.33391278750E-01 -0.48810760346E-02  0.48702408129E-02  0.34099600678E-01  0.51100000000E-03 0. -1.
</event>
<event>
 8    1  0.1054086E+005  0.1043930E+01  0.7957747E-01            NaN
         13   -1    0    0    0    0  0.00000000000E+00  0.00000000000E+00  0.74505805969E-08  0.10566000000E+00  0.10566000000E+00 0.  1.
     999900   -1    0    0    0    0 -0.00000000000E+00 -0.00000000000E+00 -0.74505805969E-08  0.93827000000E+00  0.93827000000E+00 0.  1.
     999902    2    1    2    0    0  0.10800495581E-01 -0.20520321649E-01  0.28046257255E-02  0.10205719129E+01  0.10203045767E+01 0.  0.
     999903    2    3    3    0    0 -0.63412779353E-01 -0.51484494826E-02  0.11216683536E+00  0.13056966715E+00  0.20478083588E-01 0.  0.
         14    1    1    2    0    0 -0.10800495581E-01  0.20520321649E-01 -0.28046257255E-02  0.23358087054E-01  0.00000000000E+00 0.  1.
     999901    1    3    3    0    0  0.74213274934E-01 -0.15371872166E-01 -0.10936220963E+00  0.89000224580E+00  0.88000000000E+00 0.  1.
        -11    1    4    4    0    0 -0.32347091115E-01  0.71406227182E-02  0.49729561386E-01  0.59754608132E-01  0.51100000000E-03 0.  1.
         11    1    4    4    0    0 -0.31065688238E-01 -0.12289072201E-01  0.62437273972E-01  0.70815059015E-01  0.51100000000E-03 0. -1.
</event>
<event>
 8    1  0.1054086E+005  0.1043930E+01  0.7957747E-01            NaN
         13   -1    0    0    0    0  0.00000000000E+00  0.00000000000E+00  0.74505805969E-08  0.10566000000E+00  0.10566000000E+00 0.  1.
     999900   -1    0    0    0    0 -0.00000000000E+00 -0.00000000000E+00 -0.74505805969E-08  0.93827000000E+00  0.93827000000E+00 0.  1.
     999902    2    1    2    0    0  0.24540661364E-01 -0.24499470103E-02  0.30809195351E-02  0.10190756570E+01  0.10187725243E+01 0.  0.
     999903    2    3    3    0    0  0.61684425775E-01 -0.36795120505E-01 -0.10684455900E+00  0.13079481121E+00  0.23079722188E-01 0.  0.
         14    1    1    2    0    0 -0.24540661364E-01  0.24499470103E-02 -0.30809195351E-02  0.24854342995E-01  0.00000000000E+00 0. -1.
     999901    1    3    3    0    0 -0.37143764412E-01  0.34345173495E-01  0.10992547853E+00  0.88828084580E+00  0.88000000000E+00 0. -1.
        -11    1    4    4    0    0  0.21856585420E-01 -0.26394678312E-01 -0.48018459869E-01  0.58995109785E-01  0.51100000000E-03 0.  1.
         11    1    4    4    0    0  0.39827840356E-01 -0.10400442193E-01 -0.58826099127E-01  0.71799701425E-01  0.51100000000E-03 0. -1.
</event>
<event>
 8    1  0.1054086E+005  0.1043930E+01  0.7957747E-01            NaN
         13   -1    0    0    0    0  0.00000000000E+00  0.00000000000E+00  0.74505805969E-08  0.10566000000E+00  0.10566000000E+00 0.  1.
     999900   -1    0    0    0    0 -0.00000000000E+00 -0.00000000000E+00 -0.74505805969E-08  0.93827000000E+00  0.93827000000E+00 0.  1.
     999902    2    1    2    0    0 -0.17421216533E-01 -0.10336327194E-01 -0.11389242396E-01  0.10206909534E+01  0.10204263663E+01 0.  0.
     999903    2    3    3    0    0 -0.35366528624E-02 -0.11455986560E+00 -0.63263966424E-01  0.13291490388E+00  0.22968924798E-01 0.  0.
         14    1    1    2    0    0  0.17421216533E-01  0.10336327194E-01  0.11389242396E-01  0.23239046618E-01  0.00000000000E+00 0.  1.
     999901    1    3    3    0    0 -0.13884563671E-01  0.10422353841E+00  0.51874724027E-01  0.88777604950E+00  0.88000000000E+00 0. -1.
        -11    1    4    4    0    0  0.50251039741E-02 -0.78712359176E-01 -0.51602802026E-01  0.94254959843E-01  0.51100000000E-03 0. -1.
         11    1    4    4    0    0 -0.85617568366E-02 -0.35847506428E-01 -0.11661164398E-01  0.38659944042E-01  0.51100000000E-03 0.  1.
</event>
<event>
 8    1  0.1054086E+005  0.1043930E+01  0.7957747E-01            NaN
         13   -1    0    0    0    0  0.00000000000E+00  0.00000000000E+00  0.74505805969E-08  0.10566000000E+00  0.10566000000E+00 0.  1.
     999900   -1    0    0    0    0 -0.00000000000E+00 -0.00000000000E+00 -0.74505805969E-08  0.93827000000E+00  0.93827000000E+00 0.  1.
     999902    2    1    2    0    0  0.20994116469E-01  0.10715821592E-01 -0.41361352517E-02  0.10199990708E+01  0.10197183018E+01 0.  0.
     999903    2    3    3    0    0  0.65463683238E-01 -0.81049154057E-01 -0.76985629962E-01  0.13112033776E+00  0.20280447677E-01 0.  0.
         14    1    1    2    0    0 -0.20994116469E-01 -0.10715821592E-01  0.41361352517E-02  0.23930929224E-01  0.00000000000E+00 0. -1.
     999901    1    3    3    0    0 -0.44469566769E-01  0.91764975649E-01  0.72849494710E-01  0.88887873301E+00  0.88000000000E+00 0. -1.
        -11    1    4    4    0    0  0.51287781552E-01 -0.71232919133E-01 -0.56726099603E-01  0.10451161085E+00  0.51100000000E-03 0. -1.
         11    1    4    4    0    0  0.14175901686E-01 -0.98162349234E-02 -0.20259530359E-01  0.26608726915E-01  0.51100000000E-03 0.  1.
</event>
<event>
 8    1  0.1054086E+005  0.1043930E+01  0.7957747E-01            NaN
         13   -1    0    0    0    0  0.00000000000E+00  0.00000000000E+00  0.74505805969E-08  0.10566000000E+00  0.10566000000E+00 0.  1.
     999900   -1    0    0    0    0 -0.00000000000E+00 -0.00000000000E+00 -0.74505805969E-08  0.93827000000E+00  0.93827000000E+00 0. -1.
     999902    2    1    2    0    0  0.10173827445E-01  0.19210209258E-01 -0.93966975242E-02  0.10202480062E+01  0.10199731160E+01 0.  0.
     999903    2    3    3    0    0 -0.60126256779E-01 -0.17019705821E-01 -0.11304516700E+00  0.13064263652E+00  0.19581919065E-01 0.  0.
         14    1    1    2    0    0 -0.10173827445E-01 -0.19210209258E-01  0.93966975242E-02  0.23681993771E-01  0.00000000000E+00 0.  1.
     999901    1    3    3    0    0  0.70300084224E-01  0.36229915079E-01  0.10364846948E+00  0.88960536971E+00  0.88000000000E+00 0.  1.
        -11    1    4    4    0    0 -0.13189898787E-01  0.43541203255E-02 -0.23108390034E-01  0.26966471863E-01  0.51100000000E-03 0. -1.
         11    1    4    4    0    0 -0.46936357992E-01 -0.21373826147E-01 -0.89936776968E-01  0.10367616466E+00  0.51100000000E-03 0.  1.
</event>
<event>
 8    1  0.1054086E+005  0.1043930E+01  0.7957747E-01            NaN
         13   -1    0    0    0    0  0.00000000000E+00  0.00000000000E+00  0.74505805969E-08  0.10566000000E+00  0.10566000000E+00 0.  1.
     999900   -1    0    0    0    0 -0.00000000000E+00 -0.00000000000E+00 -0.74505805969E-08  0.93827000000E+00  0.93827000000E+00 0.  1.
     999902    2    1    2    0    0  0.16880783401E-01 -0.51549653224E-02 -0.16209167324E-01  0.10199660349E+01  0.10196844810E+01 0.  0.
     999903    2    3    3    0    0 -0.79157814959E-01 -0.62273824967E-01 -0.80219019178E-01  0.13059365083E+00  0.21808751758E-01 0.  0.
         14    1    1    2    0    0 -0.16880783401E-01  0.51549653224E-02  0.16209167324E-01  0.23963965053E-01  0.00000000000E+00 0.  1.
     999901    1    3    3    0    0  0.96038598360E-01  0.57118859644E-01  0.64009851854E-01  0.88937238412E+00  0.88000000000E+00 0. -1.
        -11    1    4    4    0    0 -0.20246858032E-01 -0.27892209929E-01 -0.21801710172E-01  0.40785859343E-01  0.51100000000E-03 0.  1.
         11    1    4    4    0    0 -0.58910956928E-01 -0.34381615037E-01 -0.58417309006E-01  0.89807791484E-01  0.51100000000E-03 0. -1.
</event>
<event>
 8    1  0.1054086E+005  0.1043930E+01  0.7957747E-01            NaN
         13   -1    0    0    0    0  0.00000000000E+00  0.00000000000E+00  0.74505805969E-08  0.10566000000E+00  0.10566000000E+00 0.  1.
     999900   -1    0    0    0    0 -0.00000000000E+00 -0.00000000000E+00 -0.74505805969E-08  0.93827000000E+00  0.93827000000E+00 0.  1.
     999902    2    1    2    0    0  0.10233685761E-01  0.16252138519E-01 -0.13974293209E-01  0.10201783432E+01  0.10199018142E+01 0.  0.
     999903    2    3    3    0    0 -0.11010123223E+00 -0.24446941293E-01 -0.61342038176E-01  0.12979605964E+00  0.19084998663E-01 0.  0.
         14    1    1    2    0    0 -0.10233685761E-01 -0.16252138519E-01  0.13974293209E-01  0.23751656813E-01  0.00000000000E+00 0.  1.
     999901    1    3    3    0    0  0.12033491799E+00  0.40699079811E-01  0.47367744968E-01  0.89038228354E+00  0.88000000000E+00 0.  1.
        -11    1    4    4    0    0 -0.29425927649E-01 -0.41566628768E-02 -0.25700992230E-01  0.39293322421E-01  0.51100000000E-03 0.  1.
         11    1    4    4    0    0 -0.80675304582E-01 -0.20290278416E-01 -0.35641045946E-01  0.90502737222E-01  0.51100000000E-03 0. -1.
</event>
<event>
 8    1  0.1054086E+005  0.1043930E+01  0.7957747E-01            NaN
         13   -1    0    0    0    0  0.00000000000E+00  0.00000000000E+00  0.74505805969E-08  0.10566000000E+00  0.10566000000E+00 0.  1.
     999900   -1    0    0    0    0 -0.00000000000E+00 -0.00000000000E+00 -0.74505805969E-08  0.93827000000E+00  0.93827000000E+00 0. -1.
     999902    2    1    2    0    0  0.88595363301E-02  0.96079168381E-02  0.21172388999E-01  0.10190488122E+01  0.10187450163E+01 0.  0.
     999903    2    3    3    0    0 -0.49624834162E-02  0.95381492940E-01  0.89019406120E-01  0.13217149695E+00  0.20557103475E-01 0.  0.
         14    1    1    2    0    0 -0.88595363301E-02 -0.96079168381E-02 -0.21172388999E-01  0.24881187790E-01  0.00000000000E+00 0. -1.
     999901    1    3    3    0    0  0.13822019746E-01 -0.85773576102E-01 -0.67847017121E-01  0.88687731526E+00  0.88000000000E+00 0.  1.
        -11    1    4    4    0    0  0.33150056650E-02  0.41698781811E-01  0.50520587461E-01  0.65592442747E-01  0.51100000000E-03 0.  1.
         11    1    4    4    0    0 -0.82774890812E-02  0.53682711129E-01  0.38498818659E-01  0.66579054205E-01  0.51100000000E-03 0. -1.
</event>
<event>
 8    1  0.1054086E+005  0.1043930E+01  0.7957747E-01            NaN
         13   -1    0    0    0    0  0.00000000000E+00  0.00000000000E+00  0.74505805969E-08  0.10566000000E+00  0.10566000000E+00 0. -1.
     999900   -1    0    0    0    0 -0.00000000000E+00 -0.00000000000E+00 -0.74505805969E-08  0.93827000000E+00  0.93827000000E+00 0. -1.
     999902    2    1    2    0    0  0.10809512171E-01  0.18094548474E-01 -0.74899410684E-02  0.10215613287E+01  0.10213164010E+01 0.  0.
     999903    2    3    3    0    0  0.48874777196E-01 -0.15355701177E-01 -0.12090061036E+00  0.13283760139E+00  0.20107942531E-01 0.  0.
         14    1    1    2    0    0 -0.10809512171E-01 -0.18094548474E-01  0.74899410684E-02  0.22368671285E-01  0.00000000000E+00 0. -1.
     999901    1    3    3    0    0 -0.38065265025E-01  0.33450249651E-01  0.11341066929E+00  0.88872372733E+00  0.88000000000E+00 0.  1.
        -11    1    4    4    0    0  0.70912752753E-03 -0.49706266762E-02 -0.18842304047E-01  0.19506499794E-01  0.51100000000E-03 0. -1.
         11    1    4    4    0    0  0.48165649668E-01 -0.10385074500E-01 -0.10205830631E+00  0.11333110160E+00  0.51100000000E-03 0.  1.
</event>
<event>
 8    1  0.1054086E+005  0.1043930E+01  0.7957747E-01            NaN
         13   -1    0    0    0    0  0.00000000000E+00  0.00000000000E+00  0.74505805969E-08  0.10566000000E+00  0.10566000000E+00 0. -1.
     999900   -1    0    0    0    0 -0.00000000000E+00 -0.00000000000E+00 -0.74505805969E-08  0.93827000000E+00  0.93827000000E+00 0. -1.
     999902    2    1    2    0    0  0.21189047645E-01 -0.77582668730E-02  0.54984820537E-02  0.10207050188E+01  0.10204407556E+01 0.  0.
     999903    2    3    3    0    0 -0.32714077273E-01  0.32917931274E-01 -0.11911834799E+00  0.12936363962E+00  0.19798216550E-01 0.  0.
         14    1    1    2    0    0 -0.21189047645E-01  0.77582668730E-02 -0.54984820537E-02  0.23224981160E-01  0.00000000000E+00 0.  1.
     999901    1    3    3    0    0  0.53903124918E-01 -0.40676198147E-01  0.12461683004E+00  0.89134137922E+00  0.88000000000E+00 0.  1.
        -11    1    4    4    0    0 -0.26695830822E-01  0.18032404959E-01 -0.95593264328E-01  0.10087699598E+00  0.51100000000E-03 0. -1.
         11    1    4    4    0    0 -0.60182464513E-02  0.14885526315E-01 -0.23525083659E-01  0.28486643645E-01  0.51100000000E-03 0.  1.
</event>
<event>
 8    1  0.1054086E+005  0.1043930E+01  0.7957747E-01            NaN
         13   -1    0    0    0    0  0.00000000000E+00  0.00000000000E+00  0.74505805969E-08  0.10566000000E+00  0.10566000000E+00 0. -1.
     999900   -1    0    0    0    0 -0.00000000000E+00 -0.00000000000E+00 -0.74505805969E-08  0.93827000000E+00  0.93827000000E+00 0. -1.
     999902    2    1    2    0    0  0.40497581761E-02 -0.22507422261E-01  0.40041330520E-02  0.10207132457E+01  0.10204491718E+01 0.  0.
     999903    2    3    3    0    0 -0.10596132856E+00  0.49537294665E-02 -0.72550940891E-01  0.13014194963E+00  0.20516955045E-01 0.  0.
         14    1    1    2    0    0 -0.40497581761E-02  0.22507422261E-01 -0.40041330520E-02  0.23216754286E-01  0.00000000000E+00 0. -1.
     999901    1    3    3    0    0  0.11001108673E+00 -0.27461151727E-01  0.76555073943E-01  0.89057129608E+00  0.88000000000E+00 0.  1.
        -11    1    4    4    0    0 -0.10033500511E+00  0.45753453999E-03 -0.64274508454E-01  0.11915870151E+00  0.51100000000E-03 0. -1.
         11    1    4    4    0    0 -0.56263234493E-02  0.44961949265E-02 -0.82764324369E-02  0.10983248120E-01  0.51100000000E-03 0.  1.
</event>
<event>
 8    1  0.1054086E+005  0.1043930E+01  0.7957747E-01            NaN
         13   -1    0    0    0    0  0.00000000000E+00  0.00000000000E+00  0.74505805969E-08  0.10566000000E+00  0.10566000000E+00 0.  1.
     999900   -1    0    0    0    0 -0.00000000000E+00 -0.00000000000E+00 -0.74505805969E-08  0.93827000000E+00  0.93827000000E+00 0.  1.
     999902    2    1    2    0    0  0.21021630691E-01 -0.12860064285E-01 -0.61055622784E-02  0.10185416542E+01  0.10182251879E+01 0.  0.
     999903    2    3    3    0    0 -0.74197713169E-01 -0.18570244699E-01 -0.10091982717E+00  0.12832309992E+00  0.20781044945E-01 0.  0.
         14    1    1    2    0    0 -0.21021630691E-01  0.12860064285E-01  0.61055622784E-02  0.25388345772E-01  0.00000000000E+00 0.  1.
     999901    1    3    3    0    0  0.95219343861E-01  0.57101804138E-02  0.94814264894E-01  0.89021855431E+00  0.88000000000E+00 0. -1.
        -11    1    4    4    0    0 -0.11143631280E-01 -0.22522347268E-02 -0.51214145098E-02  0.12479707006E-01  0.51100000000E-03 0.  1.
         11    1    4    4    0    0 -0.63054081889E-01 -0.16318009972E-01 -0.95798412662E-01  0.11584339291E+00  0.51100000000E-03 0. -1.
</event>
<event>
 8    1  0.1054086E+005  0.1043930E+01  0.7957747E-01            NaN
         13   -1    0    0    0    0  0.00000000000E+00  0.00000000000E+00  0.74505805969E-08  0.10566000000E+00  0.10566000000E+00 0. -1.
     999900   -1    0    0    0    0 -0.00000000000E+00 -0.00000000000E+00 -0.74505805969E-08  0.93827000000E+00  0.93827000000E+00 0.  1.
     999902    2    1    2    0    0  0.73721609559E-02 -0.57226440947E-02 -0.22365462103E-01  0.10196954935E+01  0.10194074691E+01 0.  0.
     999903    2    3    3    0    0  0.11552035130E+00  0.49331592081E-01  0.26206052852E-01  0.13004039620E+00  0.21099523624E-01 0.  0.
         14    1    1    2    0    0 -0.73721609559E-02  0.57226440947E-02  0.22365462103E-01  0.24234506549E-01  0.00000000000E+00 0. -1.
     999901    1    3    3    0    0 -0.10814819034E+00 -0.55054236176E-01 -0.48571514954E-01  0.88965509725E+00  0.88000000000E+00 0.  1.
        -11    1    4    4    0    0  0.91709966137E-02  0.10750309512E-01  0.13060764629E-02  0.14200115852E-01  0.51100000000E-03 0.  1.
         11    1    4    4    0    0  0.10634935468E+00  0.38581282569E-01  0.24899976389E-01  0.11584028035E+00  0.51100000000E-03 0. -1.
</event>
<event>
 8    1  0.1054086E+005  0.1043930E+01  0.7957747E-01            NaN
         13   -1    0    0    0    0  0.00000000000E+00  0.00000000000E+00  0.74505805969E-08  0.10566000000E+00  0.10566000000E+00 0.  1.
     999900   -1    0    0    0    0 -0.00000000000E+00 -0.00000000000E+00 -0.74505805969E-08  0.93827000000E+00  0.93827000000E+00 0.  1.
     999902    2    1    2    0    0  0.15945723642E-01  0.17124401207E-01  0.12663428671E-01  0.10173241051E+01  0.10169761360E+01 0.  0.
     999903    2    3    3    0    0  0.11130628803E-01  0.49735494116E-01  0.11852429276E+00  0.13036683944E+00  0.18708142023E-01 0.  0.
         14    1    1    2    0    0 -0.15945723642E-01 -0.17124401207E-01 -0.12663428671E-01  0.26605894927E-01  0.00000000000E+00 0. -1.
     999901    1    3    3    0    0  0.48150948391E-02 -0.32611092909E-01 -0.10586086409E+00  0.88695726564E+00  0.88000000000E+00 0.  1.
        -11    1    4    4    0    0 -0.21160404223E-02  0.31352492422E-01  0.63295143154E-01  0.70668187156E-01  0.51100000000E-03 0.  1.
         11    1    4    4    0    0  0.13246669225E-01  0.18383001694E-01  0.55229149607E-01  0.59698652281E-01  0.51100000000E-03 0. -1.
</event>
<event>
 7    1  0.1631569E+005  0.1043930E+01  0.7957747E-01            NaN
         13   -1    0    0    0    0  0.00000000000E+00  0.00000000000E+00  0.74505805969E-08  0.10566000000E+00  0.10566000000E+00 0. -1.
     999900   -1    0    0    0    0 -0.00000000000E+00 -0.00000000000E+00 -0.74505805969E-08  0.93827000000E+00  0.93827000000E+00 0. -1.
     999903    2    1    2    0    0  0.75597230382E-01  0.19809540966E-01  0.15211858560E-01  0.81647958107E-01  0.18100532243E-01 0.  0.
         14    1    1    2    0    0  0.65755949064E-01  0.17885817348E-03  0.23783298591E-01  0.69925117943E-01  0.00000000000E+00 0. -1.
     999901    1    1    2    0    0 -0.14135317945E+00 -0.19988399139E-01 -0.38995157151E-01  0.89235692395E+00  0.88000000000E+00 0.  1.
        -11    1    3    3    0    0  0.35246097308E-01  0.22269792161E-02  0.12784591842E-01  0.37562663929E-01  0.51100000000E-03 0.  1.
         11    1    3    3    0    0  0.40351133074E-01  0.17582561750E-01  0.24272667178E-02  0.44085294178E-01  0.51100000000E-03 0. -1.
</event>
<event>
 8    1  0.1054086E+005  0.1043930E+01  0.7957747E-01            NaN
         13   -1    0    0    0    0  0.00000000000E+00  0.00000000000E+00  0.74505805969E-08  0.10566000000E+00  0.10566000000E+00 0.  1.
     999900   -1    0    0    0    0 -0.00000000000E+00 -0.00000000000E+00 -0.74505805969E-08  0.93827000000E+00  0.93827000000E+00 0.  1.
     999902    2    1    2    0    0 -0.12670298739E-01 -0.92357954775E-02 -0.18414700442E-01  0.10197445172E+01  0.10194576709E+01 0.  0.
     999903    2    3    3    0    0 -0.12182994557E+00  0.44156890336E-01 -0.49329168587E-02  0.13129172387E+00  0.20513812140E-01 0.  0.
         14    1    1    2    0    0  0.12670298739E-01  0.92357954775E-02  0.18414700442E-01  0.24185482848E-01  0.00000000000E+00 0.  1.
     999901    1    3    3    0    0  0.10915964683E+00 -0.53392685814E-01 -0.13481783583E-01  0.88845279328E+00  0.88000000000E+00 0.  1.
        -11    1    4    4    0    0 -0.10091745779E+00  0.33269282764E-01 -0.11312286078E-01  0.10686162735E+00  0.51100000000E-03 0.  1.
         11    1    4    4    0    0 -0.20912487779E-01  0.10887607572E-01  0.63793692193E-02  0.24430096528E-01  0.51100000000E-03 0. -1.
</event>
<event>
 8    1  0.1054086E+005  0.1043930E+01  0.7957747E-01            NaN
         13   -1    0    0    0    0  0.00000000000E+00  0.00000000000E+00  0.74505805969E-08  0.10566000000E+00  0.10566000000E+00 0. -1.
     999900   -1    0    0    0    0 -0.00000000000E+00 -0.00000000000E+00 -0.74505805969E-08  0.93827000000E+00  0.93827000000E+00 0.  1.
     999902    2    1    2    0    0  0.65713033859E-02 -0.22001086129E-01 -0.74799761063E-02  0.10197808828E+01  0.10194949088E+01 0.  0.
     999903    2    3    3    0    0  0.84351241198E-01 -0.86700991506E-01 -0.51280106954E-01  0.13290194633E+00  0.20027085419E-01 0.  0.
         14    1    1    2    0    0 -0.65713033859E-02  0.22001086129E-01  0.74799761063E-02  0.24149117201E-01  0.00000000000E+00 0. -1.
     999901    1    3    3    0    0 -0.77779937813E-01  0.64699905377E-01  0.43800130848E-01  0.88687893646E+00  0.88000000000E+00 0. -1.
        -11    1    4    4    0    0  0.27568137959E-01 -0.28807460665E-01 -0.69349110208E-02  0.40475006267E-01  0.51100000000E-03 0. -1.
         11    1    4    4    0    0  0.56783103239E-01 -0.57893530842E-01 -0.44345195933E-01  0.92426940067E-01  0.51100000000E-03 0.  1.
</event>
<event>
 8    1  0.1054086E+005  0.1043930E+01  0.7957747E-01            NaN
         13   -1    0    0    0    0  0.00000000000E+00  0.00000000000E+00  0.74505805969E-08  0.10566000000E+00  0.10566000000E+00 0.  1.
     999900   -1    0    0    0    0 -0.00000000000E+00 -0.00000000000E+00 -0.74505805969E-08  0.93827000000E+00  0.93827000000E+00 0. -1.
     999902    2    1    2    0    0 -0.20104754078E-01  0.33276538203E-02 -0.10971325805E-01  0.10207860071E+01  0.10205236048E+01 0.  0.
     999903    2    3    3    0    0  0.76939641155E-01  0.81254220040E-01 -0.63665081175E-01  0.13046763922E+00  0.21133046793E-01 0.  0.
         14    1    1    2    0    0  0.20104754078E-01 -0.33276538203E-02  0.10971325805E-01  0.23143992880E-01  0.00000000000E+00 0.  1.
     999901    1    3    3    0    0 -0.97044395233E-01 -0.77926566220E-01  0.52693755371E-01  0.89031836790E+00  0.88000000000E+00 0.  1.
        -11    1    4    4    0    0  0.31301271400E-01  0.41028935454E-01 -0.18999538206E-01  0.54994424342E-01  0.51100000000E-03 0. -1.
         11    1    4    4    0    0  0.45638369754E-01  0.40225284587E-01 -0.44665542970E-01  0.75473214876E-01  0.51100000000E-03 0.  1.
</event>
<event>
 8    1  0.1054086E+005  0.1043930E+01  0.7957747E-01            NaN
         13   -1    0    0    0    0  0.00000000000E+00  0.00000000000E+00  0.74505805969E-08  0.10566000000E+00  0.10566000000E+00 0.  1.
     999900   -1    0    0    0    0 -0.00000000000E+00 -0.00000000000E+00 -0.74505805969E-08  0.93827000000E+00  0.93827000000E+00 0.  1.
     999902    2    1    2    0    0 -0.42919270271E-02 -0.51587542749E-02 -0.23131880707E-01  0.10198443759E+01  0.10195599216E+01 0.  0.
     999903    2    3    3    0    0  0.28333339946E-01  0.14954599123E-01  0.12146515736E+00  0.12722057023E+00  0.20121402765E-01 0.  0.
         14    1    1    2    0    0  0.42919270271E-02  0.51587542749E-02  0.23131880707E-01  0.24085624101E-01  0.00000000000E+00 0.  1.
     999901    1    3    3    0    0 -0.32625266973E-01 -0.20113353398E-01 -0.14459703807E+00  0.89262380567E+00  0.88000000000E+00 0.  1.
        -11    1    4    4    0    0 -0.62577948857E-03  0.68419663366E-02  0.13674692078E-01  0.15312166004E-01  0.51100000000E-03 0.  1.
         11    1    4    4    0    0  0.28959119435E-01  0.81126327860E-02  0.10779046528E+00  0.11190840422E+00  0.51100000000E-03 0. -1.
</event>
<event>
 8    1  0.1054086E+005  0.1043930E+01  0.7957747E-01            NaN
         13   -1    0    0    0    0  0.00000000000E+00  0.00000000000E+00  0.74505805969E-08  0.10566000000E+00  0.10566000000E+00 0. -1.
     999900   -1    0    0    0    0 -0.00000000000E+00 -0.00000000000E+00 -0.74505805969E-08  0.93827000000E+00  0.93827000000E+00 0. -1.
     999902    2    1    2    0    0  0.11301730601E-01 -0.17738373901E-01 -0.98325941036E-02  0.10207123574E+01  0.10204482630E+01 0.  0.
     999903    2    3    3    0    0  0.55896455219E-01  0.81332916883E-01  0.81107336724E-01  0.12937971398E+00  0.20524454801E-01 0.  0.
         14    1    1    2    0    0 -0.11301730601E-01  0.17738373901E-01  0.98325941036E-02  0.23217642646E-01  0.00000000000E+00 0.  1.
     999901    1    3    3    0    0 -0.44594724618E-01 -0.99071290784E-01 -0.90939930828E-01  0.89133264337E+00  0.88000000000E+00 0. -1.
        -11    1    4    4    0    0  0.37785385407E-01  0.36978567892E-01  0.43717218260E-01  0.68604709219E-01  0.51100000000E-03 0. -1.
         11    1    4    4    0    0  0.18111069812E-01  0.44354348991E-01  0.37390118465E-01  0.60775004763E-01  0.51100000000E-03 0.  1.
</event>
<event>
 8    1  0.1054086E+005  0.1043930E+01  0.7957747E-01            NaN
         13   -1    0    0    0    0  0.00000000000E+00  0.00000000000E+00  0.74505805969E-08  0.10566000000E+00  0.10566000000E+00 0.  1.
     999900   -1    0    0    0    0 -0.00000000000E+00 -0.00000000000E+00 -0.74505805969E-08  0.93827000000E+00  0.93827000000E+00 0. -1.
     999902    2    1    2    0    0 -0.34063596100E-02 -0.35596818009E-02  0.75317273856E-02  0.10349299146E+01  0.10348907800E+01 0.  0.
     999903    2    3    3    0    0  0.36668931343E-01 -0.13228196085E+00  0.38651161966E-01  0.14411911913E+00  0.20815390547E-01 0.  0.
         14    1    1    2    0    0  0.34063596100E-02  0.35596818009E-02 -0.75317273856E-02  0.90000854289E-02  0.00000000000E+00 0. -1.
     999901    1    3    3    0    0 -0.40075290953E-01  0.12872227905E+00 -0.31119434580E-01  0.89081079544E+00  0.88000000000E+00 0. -1.
        -11    1    4    4    0    0  0.23808758090E-01 -0.63637024361E-01  0.27914879091E-01  0.73457670988E-01  0.51100000000E-03 0. -1.
         11    1    4    4    0    0  0.12860173253E-01 -0.68644936493E-01  0.10736282874E-01  0.70661448139E-01  0.51100000000E-03 0.  1.
</event>
<event>
 8    1  0.1054086E+005  0.1043930E+01  0.7957747E-01            NaN
         13   -1    0    0    0    0  0.00000000000E+00  0.00000000000E+00  0.74505805969E-08  0.10566000000E+00  0.10566000000E+00 0.  1.
     999900   -1    0    0    0    0 -0.00000000000E+00 -0.00000000000E+00 -0.74505805969E-08  0.93827000000E+00  0.93827000000E+00 0.  1.
     999902    2    1    2    0    0 -0.21076110092E-01  0.86876610496E-03  0.10273029448E-01  0.10204674276E+01  0.10201976663E+01 0.  0.
     999903    2    3    3    0    0  0.61671851160E-01  0.98980439404E-01  0.53646112555E-01  0.13009989117E+00  0.21154944586E-01 0.  0.
         14    1    1    2    0    0  0.21076110092E-01 -0.86876610496E-03 -0.10273029448E-01  0.23462572433E-01  0.00000000000E+00 0.  1.
     999901    1    3    3    0    0 -0.82747961252E-01 -0.98111673299E-01 -0.43373083107E-01  0.89036753640E+00  0.88000000000E+00 0.  1.
        -11    1    4    4    0    0  0.47875485819E-01  0.68365439988E-01  0.28683265992E-01  0.88254667843E-01  0.51100000000E-03 0. -1.
         11    1    4    4    0    0  0.13796365341E-01  0.30614999416E-01  0.24962846563E-01  0.41845223328E-01  0.51100000000E-03 0.  1.
</event>
<event>
 8    1  0.1054086E+005  0.1043930E+01  0.7957747E-01            NaN
         13   -1    0    0    0    0  0.00000000000E+00  0.00000000000E+00  0.74505805969E-08  0.10566000000E+00  0.10566000000E+00 0.  1.
     999900   -1    0    0    0    0 -0.00000000000E+00 -0.00000000000E+00 -0.74505805969E-08  0.93827000000E+00  0.93827000000E+00 0. -1.
     999902    2    1    2    0    0  0.62903691595E-02 -0.16256808908E-01  0.15891374119E-01  0.10203421143E+01  0.10200694299E+01 0.  0.
     999903    2    3    3    0    0  0.35707832996E-01  0.66625593028E-01 -0.10160250939E+00  0.12818759160E+00  0.19873845695E-01 0.  0.
         14    1    1    2    0    0 -0.62903691595E-02  0.16256808908E-01 -0.15891374119E-01  0.23587885692E-01  0.00000000000E+00 0.  1.
     999901    1    3    3    0    0 -0.29417463837E-01 -0.82882401936E-01  0.11749388350E+00  0.89215452271E+00  0.88000000000E+00 0.  1.
        -11    1    4    4    0    0  0.31254164259E-01  0.41253791692E-01 -0.75257512950E-01  0.91338121772E-01  0.51100000000E-03 0.  1.
         11    1    4    4    0    0  0.44536687369E-02  0.25371801336E-01 -0.26344996436E-01  0.36849469826E-01  0.51100000000E-03 0. -1.
</event>
<event>
 8    1  0.1054086E+005  0.1043930E+01  0.7957747E-01            NaN
         13   -1    0    0    0    0  0.00000000000E+00  0.00000000000E+00  0.74505805969E-08  0.10566000000E+00  0.10566000000E+00 0.  1.
     999900   -1    0    0    0    0 -0.00000000000E+00 -0.00000000000E+00 -0.74505805969E-08  0.93827000000E+00  0.93827000000E+00 0.  1.
     999902    2    1    2    0    0 -0.16168246848E-01  0.16002600775E-01 -0.70926010451E-02  0.10201014367E+01  0.10198230929E+01 0.  0.
     999903    2    3    3    0    0  0.19866443550E-01  0.10192048240E+00 -0.79443804565E-01  0.13223034364E+00  0.19775878841E-01 0.  0.
         14    1    1    2    0    0  0.16168246848E-01 -0.16002600775E-01  0.70926010451E-02  0.23828563265E-01  0.00000000000E+00 0.  1.
     999901    1    3    3    0    0 -0.36034690398E-01 -0.85917881628E-01  0.72351203520E-01  0.88787109309E+00  0.88000000000E+00 0. -1.
        -11    1    4    4    0    0  0.18832084759E-01  0.53236662589E-01 -0.35997915671E-01  0.66969401323E-01  0.51100000000E-03 0.  1.
         11    1    4    4    0    0  0.10343587914E-02  0.48683819814E-01 -0.43445888895E-01  0.65260942321E-01  0.51100000000E-03 0. -1.
</event>
<event>
 8    1  0.1054086E+005  0.1043930E+01  0.7957747E-01            NaN
         13   -1    0    0    0    0  0.00000000000E+00  0.00000000000E+00  0.74505805969E-08  0.10566000000E+00  0.10566000000E+00 0. -1.
     999900   -1    0    0    0    0 -0.00000000000E+00 -0.00000000000E+00 -0.74505805969E-08  0.93827000000E+00  0.93827000000E+00 0.  1.
     999902    2    1    2    0    0  0.13669109459E-01  0.15579498075E-02 -0.25553864680E-01  0.10149080814E+01  0.10144930467E+01 0.  0.
     999903    2    3    3    0    0 -0.87590282118E-02 -0.38921630545E-01 -0.12050854204E+00  0.12859097754E+00  0.20535746918E-01 0.  0.
         14    1    1    2    0    0 -0.13669109459E-01 -0.15579498075E-02  0.25553864680E-01  0.29021918632E-01  0.00000000000E+00 0. -1.
     999901    1    3    3    0    0  0.22428137670E-01  0.40479580353E-01  0.94954677356E-01  0.88631710383E+00  0.88000000000E+00 0. -1.
        -11    1    4    4    0    0 -0.13034213363E-01 -0.26362559807E-01 -0.62396357578E-01  0.68981460101E-01  0.51100000000E-03 0. -1.
         11    1    4    4    0    0  0.42751851513E-02 -0.12559070739E-01 -0.58112184458E-01  0.59609517440E-01  0.51100000000E-03 0.  1.
</event>
<event>
 8    1  0.1054086E+005  0.1043930E+01  0.7957747E-01            NaN
         13   -1    0    0    0    0  0.00000000000E+00  0.00000000000E+00  0.74505805969E-08  0.10566000000E+00  0.10566000000E+00 0.  1.
     999900   -1    0    0    0    0 -0.00000000000E+00 -0.00000000000E+00 -0.74505805969E-08  0.93827000000E+00  0.93827000000E+00 0. -1.
     999902    2    1    2    0    0 -0.18221324135E-02 -0.18305812912E-01 -0.13354805499E-01  0.10211973411E+01  0.10209442862E+01 0.  0.
     999903    2    3    3    0    0  0.11126263019E+00  0.60349631618E-01 -0.23940272020E-01  0.13041852755E+00  0.20356934685E-01 0.  0.
         14    1    1    2    0    0  0.18221324135E-02  0.18305812912E-01  0.13354805499E-01  0.22732658948E-01  0.00000000000E+00 0.  1.
     999901    1    3    3    0    0 -0.11308476261E+00 -0.78655444530E-01  0.10585466521E-01  0.89077881350E+00  0.88000000000E+00 0.  1.
        -11    1    4    4    0    0  0.78768236886E-01  0.34076352239E-01 -0.10207557473E-01  0.86429672420E-01  0.51100000000E-03 0.  1.
         11    1    4    4    0    0  0.32494393305E-01  0.26273279379E-01 -0.13732714547E-01  0.43988855128E-01  0.51100000000E-03 0. -1.
</event>
<event>
 8    1  0.1054086E+005  0.1043930E+01  0.7957747E-01            NaN
         13   -1    0    0    0    0  0.00000000000E+00  0.00000000000E+00  0.74505805969E-08  0.10566000000E+00  0.10566000000E+00 0. -1.
     999900   -1    0    0    0    0 -0.00000000000E+00 -0.00000000000E+00 -0.74505805969E-08  0.93827000000E+00  0.93827000000E+00 0. -1.
     999902    2    1    2    0    0  0.41380625881E-02  0.32837130127E-02  0.24787508880E-01  0.10185858305E+01  0.10182704784E+01 0.  0.
     999903    2    3    3    0    0  0.12782316356E+00 -0.91633171677E-03  0.11395430895E-01  0.12982546212E+00  0.19626358924E-01 0.  0.
         14    1    1    2    0    0 -0.41380625881E-02 -0.32837130127E-02 -0.24787508880E-01  0.25344169538E-01  0.00000000000E+00 0.  1.
     999901    1    3    3    0    0 -0.12368510097E+00  0.42000447295E-02  0.13392077985E-01  0.88876036834E+00  0.88000000000E+00 0. -1.
        -11    1    4    4    0    0  0.10526697594E+00  0.40835204760E-02  0.15090035536E-01  0.10642265575E+00  0.51100000000E-03 0.  1.
         11    1    4    4    0    0  0.22556187618E-01 -0.49998521928E-02 -0.36946046404E-02  0.23402806375E-01  0.51100000000E-03 0. -1.
</event>
<event>
 8    1  0.1054086E+005  0.1043930E+01  0.7957747E-01            NaN
         13   -1    0    0    0    0  0.00000000000E+00  0.00000000000E+00  0.74505805969E-08  0.10566000000E+00  0.10566000000E+00 0. -1.
     999900   -1    0    0    0    0 -0.00000000000E+00 -0.00000000000E+00 -0.74505805969E-08  0.93827000000E+00  0.93827000000E+00 0. -1.
     999902    2    1    2    0    0 -0.27202885929E-02  0.35292991479E-02 -0.24135790544E-01  0.10193863184E+01  0.10190908074E+01 0.  0.
     999903    2    3    3    0    0  0.35847200406E-01 -0.55675318945E-01 -0.11248219521E+00  0.13214467980E+00  0.20620602358E-01 0.  0.
         14    1    1    2    0    0  0.27202885929E-02 -0.35292991479E-02  0.24135790544E-01  0.24543681625E-01  0.00000000000E+00 0. -1.
     999901    1    3    3    0    0 -0.38567488999E-01  0.59204618093E-01  0.88346404669E-01  0.88724163858E+00  0.88000000000E+00 0.  1.
        -11    1    4    4    0    0  0.22070825612E-01 -0.36270470603E-01 -0.51914477080E-01  0.67067446891E-01  0.51100000000E-03 0. -1.
         11    1    4    4    0    0  0.13776374794E-01 -0.19404848342E-01 -0.60567718133E-01  0.65077232905E-01  0.51100000000E-03 0.  1.
</event>
<event>
 8    1  0.1054086E+005  0.1043930E+01  0.7957747E-01            NaN
         13   -1    0    0    0    0  0.00000000000E+00  0.00000000000E+00  0.74505805969E-08  0.10566000000E+00  0.10566000000E+00 0. -1.
     999900   -1    0    0    0    0 -0.00000000000E+00 -0.00000000000E+00 -0.74505805969E-08  0.93827000000E+00  0.93827000000E+00 0.  1.
     999902    2    1    2    0    0 -0.21737711732E-01  0.45035631637E-02 -0.29489939030E-02  0.10215356534E+01  0.10212901569E+01 0.  0.
     999903    2    3    3    0    0 -0.22626725886E-01  0.10897456566E+00  0.69079079206E-01  0.13243328362E+00  0.19473847633E-01 0.  0.
         14    1    1    2    0    0  0.21737711732E-01 -0.45035631637E-02  0.29489939030E-02  0.22394346553E-01  0.00000000000E+00 0.  1.
     999901    1    3    3    0    0  0.88901415428E-03 -0.10447100250E+00 -0.72028073109E-01  0.88910236982E+00  0.88000000000E+00 0.  1.
        -11    1    4    4    0    0  0.29516850317E-02  0.25573925102E-01  0.16239591680E-01  0.30442134429E-01  0.51100000000E-03 0. -1.
         11    1    4    4    0    0 -0.25578410918E-01  0.83400640561E-01  0.52839487526E-01  0.10199114919E+00  0.51100000000E-03 0.  1.
</event>
<event>
 8    1  0.1054086E+005  0.1043930E+01  0.7957747E-01            NaN
         13   -1    0    0    0    0  0.00000000000E+00  0.00000000000E+00  0.74505805969E-08  0.10566000000E+00  0.10566000000E+00 0.  1.
     999900   -1    0    0    0    0 -0.00000000000E+00 -0.00000000000E+00 -0.74505805969E-08  0.93827000000E+00  0.93827000000E+00 0. -1.
     999902    2    1    2    0    0  0.60948099439E-02 -0.15227133786E-01  0.16413866573E-01  0.10207259631E+01  0.10204621818E+01 0.  0.
     999903    2    3    3    0    0  0.76683164211E-01  0.88912761741E-01 -0.50620663430E-01  0.12925444826E+00  0.18933408425E-01 0.  0.
         14    1    1    2    0    0 -0.60948099439E-02  0.15227133786E-01 -0.16413866573E-01  0.23204036879E-01  0.00000000000E+00 0. -1.
     999901    1    3    3    0    0 -0.70588354267E-01 -0.10413989553E+00  0.67034530004E-01  0.89147151486E+00  0.88000000000E+00 0.  1.
        -11    1    4    4    0    0  0.16925929115E-01  0.91572002078E-02 -0.73607616048E-02  0.20610272304E-01  0.51100000000E-03 0.  1.
         11    1    4    4    0    0  0.59757235096E-01  0.79755561533E-01 -0.43259901826E-01  0.10864417595E+00  0.51100000000E-03 0. -1.
</event>
<event>
 8    1  0.1054086E+005  0.1043930E+01  0.7957747E-01            NaN
         13   -1    0    0    0    0  0.00000000000E+00  0.00000000000E+00  0.74505805969E-08  0.10566000000E+00  0.10566000000E+00 0. -1.
     999900   -1    0    0    0    0 -0.00000000000E+00 -0.00000000000E+00 -0.74505805969E-08  0.93827000000E+00  0.93827000000E+00 0.  1.
     999902    2    1    2    0    0 -0.18100012588E-01 -0.30907742855E-02  0.15008663838E-01  0.10202145339E+01  0.10199388569E+01 0.  0.
     999903    2    3    3    0    0  0.12196289821E-01 -0.97881596151E-01 -0.81232311199E-01  0.12939160475E+00  0.20345580524E-01 0.  0.
         14    1    1    2    0    0  0.18100012588E-01  0.30907742855E-02 -0.15008663838E-01  0.23715466084E-01  0.00000000000E+00 0. -1.
     999901    1    3    3    0    0 -0.30296302410E-01  0.94790821865E-01  0.96240975038E-01  0.89082292916E+00  0.88000000000E+00 0. -1.
        -11    1    4    4    0    0  0.11920641630E-01 -0.54459920192E-01 -0.56688591292E-01  0.79510012626E-01  0.51100000000E-03 0.  1.
         11    1    4    4    0    0  0.27564819105E-03 -0.43421675959E-01 -0.24543719907E-01  0.49881592125E-01  0.51100000000E-03 0. -1.
</event>
<event>
 8    1  0.1054086E+005  0.1043930E+01  0.7957747E-01            NaN
         13   -1    0    0    0    0  0.00000000000E+00  0.00000000000E+00  0.74505805969E-08  0.10566000000E+00  0.10566000000E+00 0.  1.
     999900   -1    0    0    0    0 -0.00000000000E+00 -0.00000000000E+00 -0.74505805969E-08  0.93827000000E+00  0.93827000000E+00 0.  1.
     999902    2    1    2    0    0 -0.21148464061E-01  0.10641713441E-01 -0.32512662581E-02  0.10200328385E+01  0.10197528707E+01 0.  0.
     999903    2    3    3    0    0 -0.12058056235E+00 -0.50103939757E-01 -0.16085148391E-01  0.13225950868E+00  0.13556136637E-01 0.  0.
         14    1    1    2    0    0  0.21148464061E-01 -0.10641713441E-01  0.32512662581E-02  0.23897161534E-01  0.00000000000E+00 0.  1.
     999901    1    3    3    0    0  0.99432098292E-01  0.60745653198E-01  0.12833882133E-01  0.88777332979E+00  0.88000000000E+00 0. -1.
        -11    1    4    4    0    0 -0.97125983464E-01 -0.44508224999E-01 -0.16680551084E-01  0.10813390154E+00  0.51100000000E-03 0.  1.
         11    1    4    4    0    0 -0.23454578889E-01 -0.55957147581E-02  0.59540269316E-03  0.24125607140E-01  0.51100000000E-03 0. -1.
</event>
<event>
 8    1  0.1054086E+005  0.1043930E+01  0.7957747E-01            NaN
         13   -1    0    0    0    0  0.00000000000E+00  0.00000000000E+00  0.74505805969E-08  0.10566000000E+00  0.10566000000E+00 0.  1.
     999900   -1    0    0    0    0 -0.00000000000E+00 -0.00000000000E+00 -0.74505805969E-08  0.93827000000E+00  0.93827000000E+00 0. -1.
     999902    2    1    2    0    0 -0.22198508418E-01 -0.11672754423E-02 -0.71530111437E-02  0.10205783004E+01  0.10203111120E+01 0.  0.
     999903    2    3    3    0    0 -0.96445811724E-02 -0.11788725879E+00  0.52212927685E-01  0.13079997386E+00  0.19799485171E-01 0.  0.
         14    1    1    2    0    0  0.22198508418E-01  0.11672754423E-02  0.71530111437E-02  0.23351699646E-01  0.00000000000E+00 0. -1.
     999901    1    3    3    0    0 -0.12553927245E-01  0.11671998335E+00 -0.59365938829E-01  0.88977832649E+00  0.88000000000E+00 0. -1.
        -11    1    4    4    0    0  0.35193809967E-02 -0.74030189152E-01  0.31160110818E-01  0.80399431439E-01  0.51100000000E-03 0. -1.
         11    1    4    4    0    0 -0.13163962169E-01 -0.43857069641E-01  0.21052816868E-01  0.50400542423E-01  0.51100000000E-03 0.  1.
</event>
<event>
 8    1  0.1054086E+005  0.1043930E+01  0.7957747E-01            NaN
         13   -1    0    0    0    0  0.00000000000E+00  0.00000000000E+00  0.74505805969E-08  0.10566000000E+00  0.10566000000E+00 0. -1.
     999900   -1    0    0    0    0 -0.00000000000E+00 -0.00000000000E+00 -0.74505805969E-08  0.93827000000E+00  0.93827000000E+00 0.  1.
     999902    2    1    2    0    0 -0.25220669458E-01  0.50318173708E-05  0.27041903866E-02  0.10185647711E+01  0.10182488881E+01 0.  0.
     999903    2    3    3    0    0  0.41951069557E-01  0.15725428865E-01 -0.11791978015E+00  0.12766111989E+00  0.19624108417E-01 0.  0.
         14    1    1    2    0    0  0.25220669458E-01 -0.50318173708E-05 -0.27041903866E-02  0.25365228934E-01  0.00000000000E+00 0. -1.
     999901    1    3    3    0    0 -0.67171739015E-01 -0.15720397048E-01  0.12062397054E+00  0.89090365117E+00  0.88000000000E+00 0. -1.
        -11    1    4    4    0    0 -0.14489235230E-02 -0.14710058180E-02 -0.70240437079E-02  0.73390427511E-02  0.51100000000E-03 0. -1.
         11    1    4    4    0    0  0.43399993080E-01  0.17196434683E-01 -0.11089573644E+00  0.12032207714E+00  0.51100000000E-03 0.  1.
</event>
<event>
 8    1  0.1054086E+005  0.1043930E+01  0.7957747E-01            NaN
         13   -1    0    0    0    0  0.00000000000E+00  0.00000000000E+00  0.74505805969E-08  0.10566000000E+00  0.10566000000E+00 0. -1.
     999900   -1    0    0    0    0 -0.00000000000E+00 -0.00000000000E+00 -0.74505805969E-08  0.93827000000E+00  0.93827000000E+00 0.  1.
     999902    2    1    2    0    0  0.17011069338E-01  0.13859660130E-01  0.76515448210E-02  0.10206918246E+01  0.10204272576E+01 0.  0.
     999903    2    3    3    0    0  0.12116890515E+00  0.50914461462E-01  0.16218462995E-01  0.13373336718E+00  0.18638374189E-01 0.  0.
         14    1    1    2    0    0 -0.17011069338E-01 -0.13859660130E-01 -0.76515448210E-02  0.23238175425E-01  0.00000000000E+00 0.  1.
     999901    1    3    3    0    0 -0.10415783581E+00 -0.37054801332E-01 -0.85669181743E-02  0.88695845740E+00  0.88000000000E+00 0.  1.
        -11    1    4    4    0    0  0.51844969761E-01  0.21830978388E-01 -0.23135592863E-02  0.56303696011E-01  0.51100000000E-03 0. -1.
         11    1    4    4    0    0  0.69323935392E-01  0.29083483074E-01  0.18532022282E-01  0.77429671166E-01  0.51100000000E-03 0.  1.
</event>
<event>
 7    1  0.1054086E+005  0.1043930E+01  0.7957747E-01            NaN
         13   -1    0    0    0    0  0.00000000000E+00  0.00000000000E+00  0.74505805969E-08  0.10566000000E+00  0.10566000000E+00 0. -1.
     999900   -1    0    0    0    0 -0.00000000000E+00 -0.00000000000E+00 -0.74505805969E-08  0.93827000000E+00  0.93827000000E+00 0. -1.
     999903    2    1    2    0    0  0.39509643175E-02  0.24846051896E-01 -0.11159725473E+00  0.11612877993E+00  0.19975230978E-01 0.  0.
         14    1    1    2    0    0 -0.31767278521E-01 -0.21556857556E-01 -0.81593335318E-02  0.39248347940E-01  0.00000000000E+00 0.  1.
     999901    1    1    2    0    0  0.27816314204E-01 -0.32891943403E-02  0.11975658826E+00  0.88855287213E+00  0.88000000000E+00 0.  1.
        -11    1    3    3    0    0  0.48453854582E-02  0.80955350978E-02 -0.12763269392E-01  0.15880101238E-01  0.51100000000E-03 0.  1.
         11    1    3    3    0    0 -0.89442114074E-03  0.16750516798E-01 -0.98833985333E-01  0.10024867869E+00  0.51100000000E-03 0. -1.
</event>
<event>
 8    1  0.1054086E+005  0.1043930E+01  0.7957747E-01            NaN
         13   -1    0    0    0    0  0.00000000000E+00  0.00000000000E+00  0.74505805969E-08  0.10566000000E+00  0.10566000000E+00 0.  1.
     999900   -1    0    0    0    0 -0.00000000000E+00 -0.00000000000E+00 -0.74505805969E-08  0.93827000000E+00  0.93827000000E+00 0. -1.
     999902    2    1    2    0    0 -0.23544295315E-03  0.62932172869E-02  0.22847893148E-01  0.10202300794E+01  0.10199547679E+01 0.  0.
     999903    2    3    3    0    0 -0.86894314801E-01  0.78600337673E-01 -0.52380587663E-01  0.12983836553E+00  0.19637723192E-01 0.  0.
         14    1    1    2    0    0  0.23544295315E-03 -0.62932172869E-02 -0.22847893148E-01  0.23699920643E-01  0.00000000000E+00 0. -1.
     999901    1    3    3    0    0  0.86658871848E-01 -0.72307120386E-01  0.75228480811E-01  0.89039171383E+00  0.88000000000E+00 0.  1.
        -11    1    4    4    0    0 -0.44044957074E-01  0.49271135732E-01 -0.36691709938E-01  0.75591968880E-01  0.51100000000E-03 0.  1.
         11    1    4    4    0    0 -0.42849357727E-01  0.29329201942E-01 -0.15688877726E-01  0.54246396649E-01  0.51100000000E-03 0. -1.
</event>
<event>
 8    1  0.1054086E+005  0.1043930E+01  0.7957747E-01            NaN
         13   -1    0    0    0    0  0.00000000000E+00  0.00000000000E+00  0.74505805969E-08  0.10566000000E+00  0.10566000000E+00 0.  1.
     999900   -1    0    0    0    0 -0.00000000000E+00 -0.00000000000E+00 -0.74505805969E-08  0.93827000000E+00  0.93827000000E+00 0.  1.
     999902    2    1    2    0    0  0.81497079838E-02 -0.10818212322E-01  0.19238210225E-01  0.10204021401E+01  0.10201308580E+01 0.  0.
     999903    2    3    3    0    0  0.10697872609E+00  0.63548477137E-01  0.37734076919E-01  0.13156037894E+00  0.20035367859E-01 0.  0.
         14    1    1    2    0    0 -0.81497079838E-02  0.10818212322E-01 -0.19238210225E-01  0.23527859885E-01  0.00000000000E+00 0. -1.
     999901    1    3    3    0    0 -0.98829018101E-01 -0.74366689460E-01 -0.18495866694E-01  0.88884176117E+00  0.88000000000E+00 0.  1.
        -11    1    4    4    0    0  0.46211617052E-01  0.34672064517E-01  0.25606004207E-01  0.63194890465E-01  0.51100000000E-03 0. -1.
         11    1    4    4    0    0  0.60767109033E-01  0.28876412621E-01  0.12128072713E-01  0.68365488478E-01  0.51100000000E-03 0.  1.
</event>
<event>
 8    1  0.1054086E+005  0.1043930E+01  0.7957747E-01            NaN
         13   -1    0    0    0    0  0.00000000000E+00  0.00000000000E+00  0.74505805969E-08  0.10566000000E+00  0.10566000000E+00 0.  1.
     999900   -1    0    0    0    0 -0.00000000000E+00 -0.00000000000E+00 -0.74505805969E-08  0.93827000000E+00  0.93827000000E+00 0. -1.
     999902    2    1    2    0    0  0.11843383795E-01 -0.17787932880E-01 -0.10519163197E-01  0.10201113290E+01  0.10198332189E+01 0.  0.
     999903    2    3    3    0    0  0.47473409132E-01 -0.47471927825E-01  0.11030431223E+00  0.13064578692E+00  0.19848723829E-01 0.  0.
         14    1    1    2    0    0 -0.11843383795E-01  0.17787932880E-01  0.10519163197E-01  0.23818671043E-01  0.00000000000E+00 0. -1.
     999901    1    3    3    0    0 -0.35630025337E-01  0.29683994944E-01 -0.12082347542E+00  0.88946554204E+00  0.88000000000E+00 0. -1.
        -11    1    4    4    0    0  0.13676185630E-01 -0.18204451640E-01  0.54996757938E-01  0.59525999510E-01  0.51100000000E-03 0. -1.
         11    1    4    4    0    0  0.33797223502E-01 -0.29267476184E-01  0.55307554289E-01  0.71119787409E-01  0.51100000000E-03 0.  1.
</event>
<event>
 8    1  0.1054086E+005  0.1043930E+01  0.7957747E-01            NaN
         13   -1    0    0    0    0  0.00000000000E+00  0.00000000000E+00  0.74505805969E-08  0.10566000000E+00  0.10566000000E+00 0.  1.
     999900   -1    0    0    0    0 -0.00000000000E+00 -0.00000000000E+00 -0.74505805969E-08  0.93827000000E+00  0.93827000000E+00 0.  1.
     999902    2    1    2    0    0 -0.17721999121E-01  0.11701715487E-01  0.10900524252E-01  0.10200590799E+01  0.10197797339E+01 0.  0.
     999903    2    3    3    0    0 -0.10647998597E+00 -0.73948933331E-01  0.76184330223E-02  0.13145073759E+00  0.20367222183E-01 0.  0.
         14    1    1    2    0    0  0.17721999121E-01 -0.11701715487E-01 -0.10900524252E-01  0.23870920116E-01  0.00000000000E+00 0.  1.
     999901    1    3    3    0    0  0.88757986844E-01  0.85650648818E-01  0.32820912294E-02  0.88860834229E+00  0.88000000000E+00 0. -1.
        -11    1    4    4    0    0 -0.43649456991E-01 -0.42662934935E-01  0.33193755121E-02  0.61128393465E-01  0.51100000000E-03 0.  1.
         11    1    4    4    0    0 -0.62830528974E-01 -0.31285998396E-01  0.42990575103E-02  0.70322344125E-01  0.51100000000E-03 0. -1.
</event>
<event>
 8    1  0.1054086E+005  0.1043930E+01  0.7957747E-01            NaN
         13   -1    0    0    0    0  0.00000000000E+00  0.00000000000E+00  0.74505805969E-08  0.10566000000E+00  0.10566000000E+00 0.  1.
     999900   -1    0    0    0    0 -0.00000000000E+00 -0.00000000000E+00 -0.74505805969E-08  0.93827000000E+00  0.93827000000E+00 0. -1.
     999902    2    1    2    0    0  0.70778549145E-02 -0.22912278577E-01  0.74041884034E-02  0.10188323797E+01  0.10185232090E+01 0.  0.
     999903    2    3    3    0    0  0.11097292353E+00  0.52732746357E-01 -0.20718273616E-01  0.12905306550E+00  0.33611226671E-01 0.  0.
         14    1    1    2    0    0 -0.70778549145E-02  0.22912278577E-01 -0.74041884034E-02  0.25097620320E-01  0.00000000000E+00 0.  1.
     999901    1    3    3    0    0 -0.10389506861E+00 -0.75645024935E-01  0.28122462019E-01  0.88977931418E+00  0.88000000000E+00 0. -1.
        -11    1    4    4    0    0  0.72572387909E-01  0.50837272148E-01 -0.18630325703E-01  0.90545733655E-01  0.51100000000E-03 0.  1.
         11    1    4    4    0    0  0.38400535616E-01  0.18954742092E-02 -0.20879479125E-02  0.38507331842E-01  0.51100000000E-03 0. -1.
</event>
<event>
 8    1  0.1054086E+005  0.1043930E+01  0.7957747E-01            NaN
         13   -1    0    0    0    0  0.00000000000E+00  0.00000000000E+00  0.74505805969E-08  0.10566000000E+00  0.10566000000E+00 0. -1.
     999900   -1    0    0    0    0 -0.00000000000E+00 -0.00000000000E+00 -0.74505805969E-08  0.93827000000E+00  0.93827000000E+00 0. -1.
     999902    2    1    2    0    0 -0.58468326073E-02 -0.18423195485E-01 -0.88743056306E-02  0.10226614109E+01  0.10224402224E+01 0.  0.
     999903    2    3    3    0    0  0.28594347553E-01  0.68604667675E-01 -0.10754372955E+00  0.13221450112E+00  0.19768242288E-01 0.  0.
         14    1    1    2    0    0  0.58468326073E-02  0.18423195485E-01  0.88743056306E-02  0.21268589136E-01  0.00000000000E+00 0. -1.
     999901    1    3    3    0    0 -0.34441180160E-01 -0.87027863159E-01  0.98669423915E-01  0.89044690974E+00  0.88000000000E+00 0.  1.
        -11    1    4    4    0    0  0.13708370283E-01  0.52195049912E-01 -0.67232827168E-01  0.86213437590E-01  0.51100000000E-03 0.  1.
         11    1    4    4    0    0  0.14885977270E-01  0.16409617763E-01 -0.40310902378E-01  0.46001063530E-01  0.51100000000E-03 0. -1.
</event>
<event>
 8    1  0.1054086E+005  0.1043930E+01  0.7957747E-01            NaN
         13   -1    0    0    0    0  0.00000000000E+00  0.00000000000E+00  0.74505805969E-08  0.10566000000E+00  0.10566000000E+00 0. -1.
     999900   -1    0    0    0    0 -0.00000000000E+00 -0.00000000000E+00 -0.74505805969E-08  0.93827000000E+00  0.93827000000E+00 0. -1.
     999902    2    1    2    0    0  0.12068265278E-01  0.31851311459E-02 -0.20040245571E-01  0.10203206898E+01  0.10200475040E+01 0.  0.
     999903    2    3    3    0    0  0.85679590478E-01  0.96972812659E-01 -0.19244271719E-01  0.13228049362E+00  0.19572132686E-01 0.  0.
         14    1    1    2    0    0 -0.12068265278E-01 -0.31851311459E-02  0.20040245571E-01  0.23609310235E-01  0.00000000000E+00 0.  1.
     999901    1    3    3    0    0 -0.73611325200E-01 -0.93787681513E-01 -0.79597385174E-03  0.88804019615E+00  0.88000000000E+00 0.  1.
        -11    1    4    4    0    0  0.48618311639E-01  0.40290025036E-01 -0.88576759786E-02  0.63763201682E-01  0.51100000000E-03 0.  1.
         11    1    4    4    0    0  0.37061278839E-01  0.56682787623E-01 -0.10386595741E-01  0.68517291934E-01  0.51100000000E-03 0. -1.
</event>
<event>
 8    1  0.1054086E+005  0.1043930E+01  0.7957747E-01            NaN
         13   -1    0    0    0    0  0.00000000000E+00  0.00000000000E+00  0.74505805969E-08  0.10566000000E+00  0.10566000000E+00 0.  1.
     999900   -1    0    0    0    0 -0.00000000000E+00 -0.00000000000E+00 -0.74505805969E-08  0.93827000000E+00  0.93827000000E+00 0. -1.
     999902    2    1    2    0    0 -0.22678639782E-01  0.26106261528E-02  0.55037507269E-02  0.10204475099E+01  0.10201772851E+01 0.  0.
     999903    2    3    3    0    0 -0.12449216512E+00  0.35655902716E-01  0.28565160209E-01  0.13366128260E+00  0.16725056450E-01 0.  0.
         14    1    1    2    0    0  0.22678639782E-01 -0.26106261528E-02 -0.55037507269E-02  0.23482490143E-01  0.00000000000E+00 0. -1.
     999901    1    3    3    0    0  0.10181352534E+00 -0.33045276564E-01 -0.23061409482E-01  0.88678622726E+00  0.88000000000E+00 0.  1.
        -11    1    4    4    0    0 -0.34786097163E-01  0.16193994179E-01  0.36600409671E-02  0.38548346582E-01  0.51100000000E-03 0. -1.
         11    1    4    4    0    0 -0.89706067958E-01  0.19461908537E-01  0.24905119242E-01  0.95112936018E-01  0.51100000000E-03 0.  1.
</event>
<event>
 8    1  0.1054086E+005  0.1043930E+01  0.7957747E-01            NaN
         13   -1    0    0    0    0  0.00000000000E+00  0.00000000000E+00  0.74505805969E-08  0.10566000000E+00  0.10566000000E+00 0.  1.
     999900   -1    0    0    0    0 -0.00000000000E+00 -0.00000000000E+00 -0.74505805969E-08  0.93827000000E+00  0.93827000000E+00 0.  1.
     999902    2    1    2    0    0  0.25800562271E-02  0.96850213648E-02  0.23298969396E-01  0.10185666740E+01  0.10182508390E+01 0.  0.
     999903    2    3    3    0    0 -0.10451398144E+00  0.73904964009E-01  0.17548722943E-02  0.12948991579E+00  0.19479288811E-01 0.  0.
         14    1    1    2    0    0 -0.25800562271E-02 -0.96850213648E-02 -0.23298969396E-01  0.25363325963E-01  0.00000000000E+00 0. -1.
     999901    1    3    3    0    0  0.10709403767E+00 -0.64219942644E-01  0.21544097102E-01  0.88907675825E+00  0.88000000000E+00 0. -1.
        -11    1    4    4    0    0 -0.69980392026E-01  0.56743794097E-01  0.78805523097E-02  0.90440464740E-01  0.51100000000E-03 0. -1.
         11    1    4    4    0    0 -0.34533589415E-01  0.17161169911E-01 -0.61256800154E-02  0.39049451049E-01  0.51100000000E-03 0.  1.
</event>
<event>
 8    1  0.1054086E+005  0.1043930E+01  0.7957747E-01            NaN
         13   -1    0    0    0    0  0.00000000000E+00  0.00000000000E+00  0.74505805969E-08  0.10566000000E+00  0.10566000000E+00 0.  1.
     999900   -1    0    0    0    0 -0.00000000000E+00 -0.00000000000E+00 -0.74505805969E-08  0.93827000000E+00  0.93827000000E+00 0. -1.
     999902    2    1    2    0    0 -0.19765402073E-01 -0.95680282281E-02  0.68671411110E-02  0.10209218295E+01  0.10206625329E+01 0.  0.
     999903    2    3    3    0    0  0.39132082777E-01  0.98706414356E-02 -0.12107141394E+00  0.12951000016E+00  0.22040948341E-01 0.  0.
         14    1    1    2    0    0  0.19765402073E-01  0.95680282281E-02 -0.68671411110E-02  0.23008170512E-01  0.00000000000E+00 0. -1.
     999901    1    3    3    0    0 -0.58897484850E-01 -0.19438669664E-01  0.12793855505E+00  0.89141182933E+00  0.88000000000E+00 0.  1.
        -11    1    4    4    0    0  0.26397409789E-02  0.63024317174E-02 -0.39298775731E-01  0.39891650417E-01  0.51100000000E-03 0.  1.
         11    1    4    4    0    0  0.36492341798E-01  0.35682097181E-02 -0.81772638205E-01  0.89618349742E-01  0.51100000000E-03 0. -1.
</event>
<event>
 8    1  0.1054086E+005  0.1043930E+01  0.7957747E-01            NaN
         13   -1    0    0    0    0  0.00000000000E+00  0.00000000000E+00  0.74505805969E-08  0.10566000000E+00  0.10566000000E+00 0.  1.
     999900   -1    0    0    0    0 -0.00000000000E+00 -0.00000000000E+00 -0.74505805969E-08  0.93827000000E+00  0.93827000000E+00 0. -1.
     999902    2    1    2    0    0 -0.18303056900E-01 -0.63016193322E-02 -0.13821281492E-01  0.10201447079E+01  0.10198673860E+01 0.  0.
     999903    2    3    3    0    0  0.15664948504E-01  0.12204490934E+00  0.35968556915E-01  0.12879422419E+00  0.12404216600E-01 0.  0.
         14    1    1    2    0    0  0.18303056900E-01  0.63016193322E-02  0.13821281492E-01  0.23785292098E-01  0.00000000000E+00 0. -1.
     999901    1    3    3    0    0 -0.33968005404E-01 -0.12834652867E+00 -0.49789838407E-01  0.89135048372E+00  0.88000000000E+00 0.  1.
        -11    1    4    4    0    0  0.48271675581E-02  0.49940028626E-01  0.85810511857E-02  0.50903865926E-01  0.51100000000E-03 0. -1.
         11    1    4    4    0    0  0.10837780946E-01  0.72104880714E-01  0.27387505729E-01  0.77890358259E-01  0.51100000000E-03 0.  1.
</event>
<event>
 8    1  0.1054086E+005  0.1043930E+01  0.7957747E-01            NaN
         13   -1    0    0    0    0  0.00000000000E+00  0.00000000000E+00  0.74505805969E-08  0.10566000000E+00  0.10566000000E+00 0. -1.
     999900   -1    0    0    0    0 -0.00000000000E+00 -0.00000000000E+00 -0.74505805969E-08  0.93827000000E+00  0.93827000000E+00 0. -1.
     999902    2    1    2    0    0  0.10644072045E-01  0.19845939999E-01  0.70373330303E-02  0.10203358978E+01  0.10200630680E+01 0.  0.
     999903    2    3    3    0    0  0.70164765143E-01 -0.10662305456E+00  0.59130223985E-02  0.12930369657E+00  0.19822010030E-01 0.  0.
         14    1    1    2    0    0 -0.10644072045E-01 -0.19845939999E-01 -0.70373330303E-02  0.23594102236E-01  0.00000000000E+00 0.  1.
     999901    1    3    3    0    0 -0.59520693098E-01  0.12646899456E+00  0.11243106318E-02  0.89103220119E+00  0.88000000000E+00 0.  1.
        -11    1    4    4    0    0  0.67936373856E-02 -0.22638466814E-01 -0.24048500563E-02  0.23763377567E-01  0.51100000000E-03 0.  1.
         11    1    4    4    0    0  0.63371127757E-01 -0.83984587745E-01  0.83178724548E-02  0.10554031900E+00  0.51100000000E-03 0. -1.
</event>
<event>
 8    1  0.1054086E+005  0.1043930E+01  0.7957747E-01            NaN
         13   -1    0    0    0    0  0.00000000000E+00  0.00000000000E+00  0.74505805969E-08  0.10566000000E+00  0.10566000000E+00 0. -1.
     999900   -1    0    0    0    0 -0.00000000000E+00 -0.00000000000E+00 -0.74505805969E-08  0.93827000000E+00  0.93827000000E+00 0. -1.
     999902    2    1    2    0    0  0.17782665105E-01  0.18252755189E-02  0.15478505776E-01  0.10202838809E+01  0.10200098326E+01 0.  0.
     999903    2    3    3    0    0 -0.11786470881E+00 -0.44210635877E-01  0.17905856568E-01  0.12869798640E+00  0.19896786094E-01 0.  0.
         14    1    1    2    0    0 -0.17782665105E-01 -0.18252755189E-02 -0.15478505776E-01  0.23646119132E-01  0.00000000000E+00 0. -1.
     999901    1    3    3    0    0  0.13564737391E+00  0.46035911396E-01 -0.24273507917E-02  0.89158589447E+00  0.88000000000E+00 0.  1.
        -11    1    4    4    0    0 -0.70853048001E-01 -0.36611126793E-01  0.91894485177E-02  0.80282227804E-01  0.51100000000E-03 0. -1.
         11    1    4    4    0    0 -0.47011660804E-01 -0.75995090846E-02  0.87164080504E-02  0.48415758594E-01  0.51100000000E-03 0.  1.
</event>
<event>
 8    1  0.1054086E+005  0.1043930E+01  0.7957747E-01            NaN
         13   -1    0    0    0    0  0.00000000000E+00  0.00000000000E+00  0.74505805969E-08  0.10566000000E+00  0.10566000000E+00 0.  1.
     999900   -1    0    0    0    0 -0.00000000000E+00 -0.00000000000E+00 -0.74505805969E-08  0.93827000000E+00  0.93827000000E+00 0.  1.
     999902    2    1    2    0    0 -0.38911678854E-02 -0.20219531840E-01  0.11582316723E-01  0.10203054214E+01  0.10200318780E+01 0.  0.
     999903    2    3    3    0    0 -0.16128644539E-01 -0.62394359839E-01  0.11592756034E+00  0.13305325776E+00  0.10525247681E-01 0.  0.
         14    1    1    2    0    0  0.38911678854E-02  0.20219531840E-01 -0.11582316723E-01  0.23624578642E-01  0.00000000000E+00 0. -1.
     999901    1    3    3    0    0  0.12237476654E-01  0.42174827998E-01 -0.10434524362E+00  0.88725216360E+00  0.88000000000E+00 0.  1.
        -11    1    4    4    0    0 -0.47851477919E-02 -0.18441240290E-01  0.25130746685E-01  0.31540331843E-01  0.51100000000E-03 0. -1.
         11    1    4    4    0    0 -0.11343496747E-01 -0.43953119549E-01  0.90796813654E-01  0.10151292591E+00  0.51100000000E-03 0.  1.
</event>
<event>
 8    1  0.1054086E+005  0.1043930E+01  0.7957747E-01            NaN
         13   -1    0    0    0    0  0.00000000000E+00  0.00000000000E+00  0.74505805969E-08  0.10566000000E+00  0.10566000000E+00 0. -1.
     999900   -1    0    0    0    0 -0.00000000000E+00 -0.00000000000E+00 -0.74505805969E-08  0.93827000000E+00  0.93827000000E+00 0. -1.
     999902    2    1    2    0    0 -0.18088208528E-01 -0.13849146371E-01 -0.87473129167E-02  0.10195271800E+01  0.10192350921E+01 0.  0.
     999903    2    3    3    0    0 -0.41467985638E-01 -0.12052377713E+00 -0.24730019652E-01  0.13263285832E+00  0.27098460237E-01 0.  0.
         14    1    1    2    0    0  0.18088208528E-01  0.13849146371E-01  0.87473129167E-02  0.24402820046E-01  0.00000000000E+00 0. -1.
     999901    1    3    3    0    0  0.23379777110E-01  0.10667463076E+00  0.15982706736E-01  0.88689432163E+00  0.88000000000E+00 0.  1.
        -11    1    4    4    0    0 -0.84754594841E-02 -0.90198760089E-02  0.36921081541E-02  0.12926111569E-01  0.51100000000E-03 0. -1.
         11    1    4    4    0    0 -0.32992526154E-01 -0.11150390113E+00 -0.28422127807E-01  0.11970674675E+00  0.51100000000E-03 0.  1.
</event>
<event>
 8    1  0.1054086E+005  0.1043930E+01  0.7957747E-01            NaN
         13   -1    0    0    0    0  0.00000000000E+00  0.00000000000E+00  0.74505805969E-08  0.10566000000E+00  0.10566000000E+00 0.  1.
     999900   -1    0    0    0    0 -0.00000000000E+00 -0.00000000000E+00 -0.74505805969E-08  0.93827000000E+00  0.93827000000E+00 0.  1.
     999902    2    1    2    0    0  0.80014418316E-02 -0.18504692980E-01 -0.77155848394E-02  0.10223435000E+01  0.10221155781E+01 0.  0.
     999903    2    3    3    0    0  0.89935233182E-01  0.19180813592E-01 -0.93569244563E-01  0.13357795471E+00  0.25131985181E-01 0.  0.
         14    1    1    2    0    0 -0.80014418316E-02  0.18504692980E-01  0.77155848394E-02  0.21586500019E-01  0.00000000000E+00 0. -1.
     999901    1    3    3    0    0 -0.81933791350E-01 -0.37685506572E-01  0.85853659724E-01  0.88876554527E+00  0.88000000000E+00 0.  1.
        -11    1    4    4    0    0  0.12463768404E-01  0.51811216099E-02 -0.28127418651E-01  0.31202601573E-01  0.51100000000E-03 0. -1.
         11    1    4    4    0    0  0.77471464778E-01  0.13999691982E-01 -0.65441825912E-01  0.10237535314E+00  0.51100000000E-03 0.  1.
</event>
<event>
 8    1  0.1054086E+005  0.1043930E+01  0.7957747E-01            NaN
         13   -1    0    0    0    0  0.00000000000E+00  0.00000000000E+00  0.74505805969E-08  0.10566000000E+00  0.10566000000E+00 0.  1.
     999900   -1    0    0    0    0 -0.00000000000E+00 -0.00000000000E+00 -0.74505805969E-08  0.93827000000E+00  0.93827000000E+00 0. -1.
     999902    2    1    2    0    0  0.22687144261E-01 -0.21050314993E-01  0.54598569750E-02  0.10125033821E+01  0.10120155465E+01 0.  0.
     999903    2    3    3    0    0  0.83209429369E-01 -0.69450430437E-01  0.63611124591E-01  0.12718587513E+00  0.19562725735E-01 0.  0.
         14    1    1    2    0    0 -0.22687144261E-01  0.21050314993E-01 -0.54598569750E-02  0.31426617925E-01  0.00000000000E+00 0. -1.
     999901    1    3    3    0    0 -0.60522285107E-01  0.48400115444E-01 -0.58151267616E-01  0.88531750694E+00  0.88000000000E+00 0. -1.
        -11    1    4    4    0    0  0.72903957172E-01 -0.54385856149E-01  0.46462650758E-01  0.10213641543E+00  0.51100000000E-03 0.  1.
         11    1    4    4    0    0  0.10305472196E-01 -0.15064574288E-01  0.17148473833E-01  0.25049459704E-01  0.51100000000E-03 0. -1.
</event>
<event>
 8    1  0.1054086E+005  0.1043930E+01  0.7957747E-01            NaN
         13   -1    0    0    0    0  0.00000000000E+00  0.00000000000E+00  0.74505805969E-08  0.10566000000E+00  0.10566000000E+00 0. -1.
     999900   -1    0    0    0    0 -0.00000000000E+00 -0.00000000000E+00 -0.74505805969E-08  0.93827000000E+00  0.93827000000E+00 0.  1.
     999902    2    1    2    0    0  0.16598119855E-01 -0.16800046964E-01  0.69518311284E-02  0.10193115696E+01  0.10190142338E+01 0.  0.
     999903    2    3    3    0    0  0.52483452159E-01  0.65971791950E-01  0.97063602829E-01  0.13012145166E+00  0.20086291460E-01 0.  0.
         14    1    1    2    0    0 -0.16598119855E-01  0.16800046964E-01 -0.69518311284E-02  0.24618430428E-01  0.00000000000E+00 0. -1.
     999901    1    3    3    0    0 -0.35885332304E-01 -0.82771838913E-01 -0.90111771700E-01  0.88919011791E+00  0.88000000000E+00 0.  1.
        -11    1    4    4    0    0  0.35782622251E-01  0.50048067198E-01  0.56930657830E-01  0.83824614568E-01  0.51100000000E-03 0.  1.
         11    1    4    4    0    0  0.16700829908E-01  0.15923724752E-01  0.40132944998E-01  0.46296837093E-01  0.51100000000E-03 0. -1.
</event>
<event>
 8    1  0.1054086E+005  0.1043930E+01  0.7957747E-01            NaN
         13   -1    0    0    0    0  0.00000000000E+00  0.00000000000E+00  0.74505805969E-08  0.10566000000E+00  0.10566000000E+00 0. -1.
     999900   -1    0    0    0    0 -0.00000000000E+00 -0.00000000000E+00 -0.74505805969E-08  0.93827000000E+00  0.93827000000E+00 0. -1.
     999902    2    1    2    0    0  0.14018612034E-01 -0.25051702400E-02 -0.73155834161E-02  0.10279201555E+01  0.10277954713E+01 0.  0.
     999903    2    3    3    0    0  0.83312278235E-02  0.48603437054E-01  0.12399892567E+00  0.13669182536E+00  0.29617867961E-01 0.  0.
         14    1    1    2    0    0 -0.14018612034E-01  0.25051702400E-02  0.73155834161E-02  0.16009844534E-01  0.00000000000E+00 0. -1.
     999901    1    3    3    0    0  0.56873842108E-02 -0.51108607294E-01 -0.13131450909E+00  0.89122833010E+00  0.88000000000E+00 0. -1.
        -11    1    4    4    0    0  0.42649876509E-02  0.42845681139E-01  0.69655207728E-01  0.81890485385E-01  0.51100000000E-03 0. -1.
         11    1    4    4    0    0  0.40662401726E-02  0.57577559146E-02  0.54343717946E-01  0.54801339979E-01  0.51100000000E-03 0.  1.
</event>
<event>
 8    1  0.1054086E+005  0.1043930E+01  0.7957747E-01            NaN
         13   -1    0    0    0    0  0.00000000000E+00  0.00000000000E+00  0.74505805969E-08  0.10566000000E+00  0.10566000000E+00 0.  1.
     999900   -1    0    0    0    0 -0.00000000000E+00 -0.00000000000E+00 -0.74505805969E-08  0.93827000000E+00  0.93827000000E+00 0.  1.
     999902    2    1    2    0    0  0.17849330796E-01  0.12406813161E-01 -0.12353150108E-01  0.10189274413E+01  0.10186206373E+01 0.  0.
     999903    2    3    3    0    0  0.55201640647E-01  0.66806672710E-01  0.94764240164E-01  0.12997936912E+00  0.20100311828E-01 0.  0.
         14    1    1    2    0    0 -0.17849330796E-01 -0.12406813161E-01  0.12353150108E-01  0.25002558675E-01  0.00000000000E+00 0.  1.
     999901    1    3    3    0    0 -0.37352309850E-01 -0.54399859549E-01 -0.10711739027E+00  0.88894807220E+00  0.88000000000E+00 0.  1.
        -11    1    4    4    0    0  0.37633200218E-01  0.41470996495E-01  0.46925795960E-01  0.73064305625E-01  0.51100000000E-03 0. -1.
         11    1    4    4    0    0  0.17568440429E-01  0.25335676214E-01  0.47838444204E-01  0.56915063500E-01  0.51100000000E-03 0.  1.
</event>
<event>
 8    1  0.1054086E+005  0.1043930E+01  0.7957747E-01            NaN
         13   -1    0    0    0    0  0.00000000000E+00  0.00000000000E+00  0.74505805969E-08  0.10566000000E+00  0.10566000000E+00 0. -1.
     999900   -1    0    0    0    0 -0.00000000000E+00 -0.00000000000E+00 -0.74505805969E-08  0.93827000000E+00  0.93827000000E+00 0. -1.
     999902    2    1    2    0    0  0.37809711075E-02 -0.17952637211E-02 -0.23210058700E-01  0.10203455657E+01  0.10200729621E+01 0.  0.
     999903    2    3    3    0    0  0.10964819187E-01  0.26399001687E-01 -0.12873976326E+00  0.13356315567E+00  0.21167318173E-01 0.  0.
         14    1    1    2    0    0 -0.37809711075E-02  0.17952637211E-02  0.23210058700E-01  0.23584434256E-01  0.00000000000E+00 0. -1.
     999901    1    3    3    0    0 -0.71838480794E-02 -0.28194265408E-01  0.10552970456E+00  0.88678241008E+00  0.88000000000E+00 0.  1.
        -11    1    4    4    0    0  0.15918960759E-01  0.13877219930E-01 -0.92953785782E-01  0.95323963183E-01  0.51100000000E-03 0.  1.
         11    1    4    4    0    0 -0.49541415722E-02  0.12521781757E-01 -0.35785977475E-01  0.38239192485E-01  0.51100000000E-03 0. -1.
</event>
<event>
 8    1  0.1054086E+005  0.1043930E+01  0.7957747E-01            NaN
         13   -1    0    0    0    0  0.00000000000E+00  0.00000000000E+00  0.74505805969E-08  0.10566000000E+00  0.10566000000E+00 0.  1.
     999900   -1    0    0    0    0 -0.00000000000E+00 -0.00000000000E+00 -0.74505805969E-08  0.93827000000E+00  0.93827000000E+00 0. -1.
     999902    2    1    2    0    0  0.43578558256E-02 -0.11962962283E-01  0.19835000652E-01  0.10203603028E+01  0.10200880437E+01 0.  0.
     999903    2    3    3    0    0 -0.89044009887E-01 -0.46025220930E-01 -0.79376914868E-01  0.12922218213E+00  0.18722208238E-01 0.  0.
         14    1    1    2    0    0 -0.43578558256E-02  0.11962962283E-01 -0.19835000652E-01  0.23569697173E-01  0.00000000000E+00 0. -1.
     999901    1    3    3    0    0  0.93401865713E-01  0.34062258647E-01  0.99211915520E-01  0.89113812070E+00  0.88000000000E+00 0.  1.
        -11    1    4    4    0    0 -0.21052004771E-01 -0.51419194088E-02 -0.24725522088E-01  0.32882195845E-01  0.51100000000E-03 0.  1.
         11    1    4    4    0    0 -0.67992005117E-01 -0.40883301521E-01 -0.54651392780E-01  0.96339986282E-01  0.51100000000E-03 0. -1.
</event>
<event>
 8    1  0.1054086E+005  0.1043930E+01  0.7957747E-01            NaN
         13   -1    0    0    0    0  0.00000000000E+00  0.00000000000E+00  0.74505805969E-08  0.10566000000E+00  0.10566000000E+00 0. -1.
     999900   -1    0    0    0    0 -0.00000000000E+00 -0.00000000000E+00 -0.74505805969E-08  0.93827000000E+00  0.93827000000E+00 0. -1.
     999902    2    1    2    0    0  0.28098535433E-01 -0.50039351075E-02  0.27373825396E-02  0.10152584056E+01  0.10148534721E+01 0.  0.
     999903    2    3    3    0    0  0.12576843078E+00  0.21668155472E-01  0.54145457430E-02  0.12944918460E+00  0.20989686622E-01 0.  0.
         14    1    1    2    0    0 -0.28098535433E-01  0.50039351075E-02 -0.27373825396E-02  0.28671594361E-01  0.00000000000E+00 0. -1.
     999901    1    3    3    0    0 -0.97669895352E-01 -0.26672090580E-01 -0.26771632034E-02  0.88580922104E+00  0.88000000000E+00 0.  1.
        -11    1    4    4    0    0  0.86872147832E-01  0.16062674649E-01 -0.59248690724E-02  0.88544592044E-01  0.51100000000E-03 0.  1.
         11    1    4    4    0    0  0.38896282953E-01  0.56054808234E-02  0.11339414815E-01  0.40904592556E-01  0.51100000000E-03 0. -1.
</event>
<event>
 8    1  0.1243748E+005  0.1043930E+01  0.7957747E-01            NaN
         13   -1    0    0    0    0  0.00000000000E+00  0.00000000000E+00  0.74505805969E-08  0.10566000000E+00  0.10566000000E+00 0. -1.
     999900   -1    0    0    0    0 -0.00000000000E+00 -0.00000000000E+00 -0.74505805969E-08  0.93827000000E+00  0.93827000000E+00 0. -1.
     999902    2    1    2    0    0 -0.24188038156E-01  0.56208797280E-02 -0.42167589508E-02  0.10187419764E+01  0.10184305464E+01 0.  0.
     999903    2    3    3    0    0  0.95196160734E-02  0.35392977688E-01 -0.12263173914E+00  0.12967241142E+00  0.20811171978E-01 0.  0.
         14    1    1    2    0    0  0.24188038156E-01 -0.56208797280E-02  0.42167589508E-02  0.25188023638E-01  0.00000000000E+00 0. -1.
     999901    1    3    3    0    0 -0.33707654229E-01 -0.29772097960E-01  0.11841498019E+00  0.88906956494E+00  0.88000000000E+00 0.  1.
        -11    1    4    4    0    0  0.14861538412E-01  0.29410935411E-01 -0.84422212307E-01  0.90626924793E-01  0.51100000000E-03 0.  1.
         11    1    4    4    0    0 -0.53419223385E-02  0.59820422768E-02 -0.38209526835E-01  0.39045486628E-01  0.51100000000E-03 0. -1.
</event>
<event>
 8    1  0.1054086E+005  0.1043930E+01  0.7957747E-01            NaN
         13   -1    0    0    0    0  0.00000000000E+00  0.00000000000E+00  0.74505805969E-08  0.10566000000E+00  0.10566000000E+00 0. -1.
     999900   -1    0    0    0    0 -0.00000000000E+00 -0.00000000000E+00 -0.74505805969E-08  0.93827000000E+00  0.93827000000E+00 0.  1.
     999902    2    1    2    0    0 -0.76747917190E-02  0.23364220851E-01 -0.47355958141E-03  0.10193329778E+01  0.10190361652E+01 0.  0.
     999903    2    3    3    0    0 -0.67776913311E-01  0.99521359428E-01 -0.51705140459E-01  0.13252022997E+00  0.19747881958E-01 0.  0.
         14    1    1    2    0    0  0.76747917190E-02 -0.23364220851E-01  0.47355958141E-03  0.24597022230E-01  0.00000000000E+00 0.  1.
     999901    1    3    3    0    0  0.60102121592E-01 -0.76157138577E-01  0.51231580878E-01  0.88681274780E+00  0.88000000000E+00 0. -1.
        -11    1    4    4    0    0 -0.51091127063E-01  0.59034846158E-01 -0.36251648172E-01  0.86080540436E-01  0.51100000000E-03 0. -1.
         11    1    4    4    0    0 -0.16685786248E-01  0.40486513270E-01 -0.15453492287E-01  0.46439689537E-01  0.51100000000E-03 0.  1.
</event>
<event>
 8    1  0.1054086E+005  0.1043930E+01  0.7957747E-01            NaN
         13   -1    0    0    0    0  0.00000000000E+00  0.00000000000E+00  0.74505805969E-08  0.10566000000E+00  0.10566000000E+00 0. -1.
     999900   -1    0    0    0    0 -0.00000000000E+00 -0.00000000000E+00 -0.74505805969E-08  0.93827000000E+00  0.93827000000E+00 0.  1.
     999902    2    1    2    0    0  0.17899844699E-01  0.38969553605E-02  0.17273473325E-01  0.10187513666E+01  0.10184401717E+01 0.  0.
     999903    2    3    3    0    0 -0.90761877133E-01  0.79757234012E-01  0.38550466341E-01  0.12857449531E+00  0.21126468507E-01 0.  0.
         14    1    1    2    0    0 -0.17899844699E-01 -0.38969553605E-02 -0.17273473325E-01  0.25178633442E-01  0.00000000000E+00 0.  1.
     999901    1    3    3    0    0  0.10866172183E+00 -0.75860278652E-01 -0.21276993016E-01  0.89017687125E+00  0.88000000000E+00 0.  1.
        -11    1    4    4    0    0 -0.51803538864E-01  0.36707283897E-01  0.28716949205E-01  0.69684687145E-01  0.51100000000E-03 0. -1.
         11    1    4    4    0    0 -0.38958338270E-01  0.43049950115E-01  0.98335171363E-02  0.58889808167E-01  0.51100000000E-03 0.  1.
</event>
<event>
 8    1  0.1054086E+005  0.1043930E+01  0.7957747E-01            NaN
         13   -1    0    0    0    0  0.00000000000E+00  0.00000000000E+00  0.74505805969E-08  0.10566000000E+00  0.10566000000E+00 0. -1.
     999900   -1    0    0    0    0 -0.00000000000E+00 -0.00000000000E+00 -0.74505805969E-08  0.93827000000E+00  0.93827000000E+00 0.  1.
     999902    2    1    2    0    0  0.17398570624E-01 -0.16101586367E-01  0.27446900321E-03  0.10202224764E+01  0.10199469862E+01 0.  0.
     999903    2    3    3    0    0  0.65821756789E-01  0.63086420232E-01 -0.91448394276E-01  0.13059973105E+00  0.19521292228E-01 0.  0.
         14    1    1    2    0    0 -0.17398570624E-01  0.16101586367E-01 -0.27446900321E-03  0.23707523627E-01  0.00000000000E+00 0.  1.
     999901    1    3    3    0    0 -0.48423186165E-01 -0.79188006599E-01  0.91722863279E-01  0.88962274532E+00  0.88000000000E+00 0. -1.
        -11    1    4    4    0    0  0.30402767748E-01  0.40926355996E-01 -0.43699369212E-01  0.67150509249E-01  0.51100000000E-03 0. -1.
         11    1    4    4    0    0  0.35418989042E-01  0.22160064236E-01 -0.47749025064E-01  0.63449221802E-01  0.51100000000E-03 0.  1.
</event>
