<event>
 8    1  0.2825007E+004  0.1043930E+01  0.7957747E-01            NaN
         13   -1    0    0    0    0  0.00000000000E+00  0.00000000000E+00  0.74505805969E-08  0.10566000000E+00  0.10566000000E+00 0.  1.
     999900   -1    0    0    0    0 -0.00000000000E+00 -0.00000000000E+00 -0.74505805969E-08  0.93827000000E+00  0.93827000000E+00 0.  1.
     999902    2    1    2    0    0  0.14015529316E-01 -0.44549574268E-02 -0.41196990919E-02  0.10286573569E+01  0.10285439729E+01 0.  0.
     999903    2    3    3    0    0  0.75787303788E-01  0.64126276282E-01 -0.87826334598E-01  0.13987957892E+00  0.44687099094E-01 0.  0.
         14    1    1    2    0    0 -0.14015529316E-01  0.44549574268E-02  0.41196990919E-02  0.15272643134E-01  0.00000000000E+00 0.  1.
     999901    1    3    3    0    0 -0.61771774472E-01 -0.68581233709E-01  0.83706635506E-01  0.88877777794E+00  0.88000000000E+00 0. -1.
        -11    1    4    4    0    0  0.41054438445E-02  0.69289947304E-02  0.49184130971E-02  0.94507960262E-02  0.51100000000E-03 0.  1.
         11    1    4    4    0    0  0.71681859943E-01  0.57197281552E-01 -0.92744747695E-01  0.13042878290E+00  0.51100000000E-03 0. -1.
</event>
<event>
 8    1  0.2825007E+004  0.1043930E+01  0.7957747E-01            NaN
         13   -1    0    0    0    0  0.00000000000E+00  0.00000000000E+00  0.74505805969E-08  0.10566000000E+00  0.10566000000E+00 0. -1.
     999900   -1    0    0    0    0 -0.00000000000E+00 -0.00000000000E+00 -0.74505805969E-08  0.93827000000E+00  0.93827000000E+00 0. -1.
     999902    2    1    2    0    0  0.11450932137E-01 -0.90340290163E-02 -0.10087797143E-01  0.10261958189E+01  0.10260425711E+01 0.  0.
     999903    2    3    3    0    0 -0.11234633347E+00 -0.48181420771E-01 -0.39871970081E-01  0.13617032592E+00  0.44826729852E-01 0.  0.
         14    1    1    2    0    0 -0.11450932137E-01  0.90340290163E-02  0.10087797143E-01  0.17734181072E-01  0.00000000000E+00 0.  1.
     999901    1    3    3    0    0  0.12379726561E+00  0.39147391754E-01  0.29784172938E-01  0.89002549301E+00  0.88000000000E+00 0.  1.
        -11    1    4    4    0    0 -0.93861136776E-01 -0.54403812745E-01 -0.42431724493E-01  0.11649206068E+00  0.51100000000E-03 0. -1.
         11    1    4    4    0    0 -0.18485196699E-01  0.62223919742E-02  0.25597544120E-02  0.19678265232E-01  0.51100000000E-03 0.  1.
</event>
<event>
 8    1  0.2825007E+004  0.1043930E+01  0.7957747E-01            NaN
         13   -1    0    0    0    0  0.00000000000E+00  0.00000000000E+00  0.74505805969E-08  0.10566000000E+00  0.10566000000E+00 0.  1.
     999900   -1    0    0    0    0 -0.00000000000E+00 -0.00000000000E+00 -0.74505805969E-08  0.93827000000E+00  0.93827000000E+00 0.  1.
     999902    2    1    2    0    0  0.24084503023E-01  0.42945709705E-02 -0.12239849531E-01  0.10165745519E+01  0.10162064254E+01 0.  0.
     999903    2    3    3    0    0  0.91902829847E-01 -0.71183154364E-01  0.33502393372E-01  0.12956352305E+00  0.46380217157E-01 0.  0.
         14    1    1    2    0    0 -0.24084503023E-01 -0.42945709705E-02  0.12239849531E-01  0.27355448126E-01  0.00000000000E+00 0. -1.
     999901    1    3    3    0    0 -0.67818326824E-01  0.75477725335E-01 -0.45742242902E-01  0.88701102883E+00  0.88000000000E+00 0. -1.
        -11    1    4    4    0    0  0.69479324741E-01 -0.27185982080E-01  0.28723182509E-01  0.79948336584E-01  0.51100000000E-03 0.  1.
         11    1    4    4    0    0  0.22423505106E-01 -0.43997172284E-01  0.47792108621E-02  0.49615186462E-01  0.51100000000E-03 0. -1.
</event>
<event>
 8    1  0.2825007E+004  0.1043930E+01  0.7957747E-01            NaN
         13   -1    0    0    0    0  0.00000000000E+00  0.00000000000E+00  0.74505805969E-08  0.10566000000E+00  0.10566000000E+00 0. -1.
     999900   -1    0    0    0    0 -0.00000000000E+00 -0.00000000000E+00 -0.74505805969E-08  0.93827000000E+00  0.93827000000E+00 0.  1.
     999902    2    1    2    0    0  0.68501223164E-03  0.47931382149E-02  0.12149252041E-01  0.10308514779E+01  0.10307685102E+01 0.  0.
     999903    2    3    3    0    0 -0.26908012006E-01  0.98833517744E-01 -0.84206266583E-01  0.14018355214E+00  0.45482168145E-01 0.  0.
         14    1    1    2    0    0 -0.68501223164E-03 -0.47931382149E-02 -0.12149252041E-01  0.13078522121E-01  0.00000000000E+00 0.  1.
     999901    1    3    3    0    0  0.27593024238E-01 -0.94040379529E-01  0.96355518625E-01  0.89066792574E+00  0.88000000000E+00 0. -1.
        -11    1    4    4    0    0 -0.34896608922E-01  0.45849452366E-01 -0.34906214956E-01  0.67369507643E-01  0.51100000000E-03 0.  1.
         11    1    4    4    0    0  0.79885969160E-02  0.52984065379E-01 -0.49300051627E-01  0.72814044498E-01  0.51100000000E-03 0. -1.
</event>
<event>
 8    1  0.2825007E+004  0.1043930E+01  0.7957747E-01            NaN
         13   -1    0    0    0    0  0.00000000000E+00  0.00000000000E+00  0.74505805969E-08  0.10566000000E+00  0.10566000000E+00 0.  1.
     999900   -1    0    0    0    0 -0.00000000000E+00 -0.00000000000E+00 -0.74505805969E-08  0.93827000000E+00  0.93827000000E+00 0.  1.
     999902    2    1    2    0    0  0.16670040118E-02 -0.97185332084E-02  0.90406395894E-02  0.10305523338E+01  0.10304655019E+01 0.  0.
     999903    2    3    3    0    0 -0.13085562484E+00 -0.15620786240E-01  0.15389138995E-01  0.14058751018E+00  0.46484609338E-01 0.  0.
         14    1    1    2    0    0 -0.16670040118E-02  0.97185332084E-02 -0.90406395894E-02  0.13377666250E-01  0.00000000000E+00 0. -1.
     999901    1    3    3    0    0  0.13252262885E+00  0.59022530315E-02 -0.63484994057E-02  0.88996482357E+00  0.88000000000E+00 0.  1.
        -11    1    4    4    0    0 -0.10075179868E+00  0.26952903466E-03  0.27523952525E-01  0.10444532860E+00  0.51100000000E-03 0. -1.
         11    1    4    4    0    0 -0.30103826158E-01 -0.15890315274E-01 -0.12134813530E-01  0.36142181579E-01  0.51100000000E-03 0.  1.
</event>
<event>
 8    1  0.2825007E+004  0.1043930E+01  0.7957747E-01            NaN
         13   -1    0    0    0    0  0.00000000000E+00  0.00000000000E+00  0.74505805969E-08  0.10566000000E+00  0.10566000000E+00 0. -1.
     999900   -1    0    0    0    0 -0.00000000000E+00 -0.00000000000E+00 -0.74505805969E-08  0.93827000000E+00  0.93827000000E+00 0.  1.
     999902    2    1    2    0    0  0.26935754727E-02 -0.61907312886E-03 -0.15042114538E-01  0.10286360858E+01  0.10285223835E+01 0.  0.
     999903    2    3    3    0    0 -0.15726738465E-01 -0.82129651395E-01  0.99173330792E-01  0.13732892763E+00  0.45069666991E-01 0.  0.
         14    1    1    2    0    0 -0.26935754727E-02  0.61907312886E-03  0.15042114538E-01  0.15293914154E-01  0.00000000000E+00 0. -1.
     999901    1    3    3    0    0  0.18420313938E-01  0.81510578266E-01 -0.11421544533E+00  0.89130715822E+00  0.88000000000E+00 0.  1.
        -11    1    4    4    0    0 -0.14956621739E-01 -0.19919914892E-01  0.56882571479E-01  0.62099851870E-01  0.51100000000E-03 0.  1.
         11    1    4    4    0    0 -0.77011672636E-03 -0.62209736503E-01  0.42290759312E-01  0.75229075760E-01  0.51100000000E-03 0. -1.
</event>
<event>
 8    1  0.2825007E+004  0.1043930E+01  0.7957747E-01            NaN
         13   -1    0    0    0    0  0.00000000000E+00  0.00000000000E+00  0.74505805969E-08  0.10566000000E+00  0.10566000000E+00 0. -1.
     999900   -1    0    0    0    0 -0.00000000000E+00 -0.00000000000E+00 -0.74505805969E-08  0.93827000000E+00  0.93827000000E+00 0.  1.
     999902    2    1    2    0    0 -0.14174258929E-01 -0.96654649166E-02  0.83623948643E-03  0.10267535590E+01  0.10266098776E+01 0.  0.
     999903    2    3    3    0    0 -0.12105581654E+00 -0.42860995927E-01  0.29117312919E-01  0.13921458537E+00  0.45180827555E-01 0.  0.
         14    1    1    2    0    0  0.14174258929E-01  0.96654649166E-02 -0.83623948643E-03  0.17176440980E-01  0.00000000000E+00 0. -1.
     999901    1    3    3    0    0  0.10688155761E+00  0.33195531010E-01 -0.28281073433E-01  0.88753897365E+00  0.88000000000E+00 0.  1.
        -11    1    4    4    0    0 -0.30046375533E-01  0.89759241652E-02  0.80420112732E-02  0.32377259977E-01  0.51100000000E-03 0.  1.
         11    1    4    4    0    0 -0.91009441004E-01 -0.51836920092E-01  0.21075301646E-01  0.10683732539E+00  0.51100000000E-03 0. -1.
</event>
<event>
 8    1  0.2825007E+004  0.1043930E+01  0.7957747E-01            NaN
         13   -1    0    0    0    0  0.00000000000E+00  0.00000000000E+00  0.74505805969E-08  0.10566000000E+00  0.10566000000E+00 0. -1.
     999900   -1    0    0    0    0 -0.00000000000E+00 -0.00000000000E+00 -0.74505805969E-08  0.93827000000E+00  0.93827000000E+00 0. -1.
     999902    2    1    2    0    0  0.13201367982E-01  0.50414521765E-02  0.27988560877E-02  0.10295242389E+01  0.10294234467E+01 0.  0.
     999903    2    3    3    0    0 -0.12408325821E+00 -0.17853464866E-01  0.36230816217E-01  0.13795879446E+00  0.44772265411E-01 0.  0.
         14    1    1    2    0    0 -0.13201367982E-01 -0.50414521765E-02 -0.27988560877E-02  0.14405761071E-01  0.00000000000E+00 0. -1.
     999901    1    3    3    0    0  0.13728462619E+00  0.22894917042E-01 -0.33431960130E-01  0.89156544447E+00  0.88000000000E+00 0.  1.
        -11    1    4    4    0    0 -0.70467098971E-01  0.10932656737E-01  0.11339210530E-01  0.72207851631E-01  0.51100000000E-03 0.  1.
         11    1    4    4    0    0 -0.53616159236E-01 -0.28786121603E-01  0.24891605688E-01  0.65750942829E-01  0.51100000000E-03 0. -1.
</event>
<event>
 8    1  0.2825007E+004  0.1043930E+01  0.7957747E-01            NaN
         13   -1    0    0    0    0  0.00000000000E+00  0.00000000000E+00  0.74505805969E-08  0.10566000000E+00  0.10566000000E+00 0.  1.
     999900   -1    0    0    0    0 -0.00000000000E+00 -0.00000000000E+00 -0.74505805969E-08  0.93827000000E+00  0.93827000000E+00 0.  1.
     999902    2    1    2    0    0 -0.23010122494E-01 -0.82178913889E-02  0.33611595512E-02  0.10192663249E+01  0.10189678818E+01 0.  0.
     999903    2    3    3    0    0 -0.80992548480E-01 -0.85902878906E-01  0.41683264363E-01  0.13311424837E+00  0.45197467612E-01 0.  0.
         14    1    1    2    0    0  0.23010122494E-01  0.82178913889E-02 -0.33611595512E-02  0.24663675103E-01  0.00000000000E+00 0. -1.
     999901    1    3    3    0    0  0.57982425986E-01  0.77684987517E-01 -0.38322104811E-01  0.88615207652E+00  0.88000000000E+00 0.  1.
        -11    1    4    4    0    0 -0.32457447660E-01 -0.37700705586E-01 -0.54420440299E-02  0.50047038619E-01  0.51100000000E-03 0. -1.
         11    1    4    4    0    0 -0.48535100820E-01 -0.48202173320E-01  0.47125308393E-01  0.83067209755E-01  0.51100000000E-03 0.  1.
</event>
<event>
 8    1  0.2825007E+004  0.1043930E+01  0.7957747E-01            NaN
         13   -1    0    0    0    0  0.00000000000E+00  0.00000000000E+00  0.74505805969E-08  0.10566000000E+00  0.10566000000E+00 0. -1.
     999900   -1    0    0    0    0 -0.00000000000E+00 -0.00000000000E+00 -0.74505805969E-08  0.93827000000E+00  0.93827000000E+00 0.  1.
     999902    2    1    2    0    0 -0.13232135413E-01 -0.25443848429E-02  0.35966273209E-02  0.10299837091E+01  0.10298892863E+01 0.  0.
     999903    2    3    3    0    0 -0.11657576987E+00  0.22411449827E-01  0.62773667926E-01  0.14161181479E+00  0.44957641171E-01 0.  0.
         14    1    1    2    0    0  0.13232135413E-01  0.25443848429E-02 -0.35966273209E-02  0.13946290901E-01  0.00000000000E+00 0.  1.
     999901    1    3    3    0    0  0.10334363445E+00 -0.24955834670E-01 -0.59177040605E-01  0.88837189431E+00  0.88000000000E+00 0.  1.
        -11    1    4    4    0    0 -0.95913698902E-01  0.23434154127E-01  0.68463265668E-01  0.12015022715E+00  0.51100000000E-03 0.  1.
         11    1    4    4    0    0 -0.20662070964E-01 -0.10227042995E-02 -0.56895977421E-02  0.21461587641E-01  0.51100000000E-03 0. -1.
</event>
<event>
 8    1  0.2825007E+004  0.1043930E+01  0.7957747E-01            NaN
         13   -1    0    0    0    0  0.00000000000E+00  0.00000000000E+00  0.74505805969E-08  0.10566000000E+00  0.10566000000E+00 0. -1.
     999900   -1    0    0    0    0 -0.00000000000E+00 -0.00000000000E+00 -0.74505805969E-08  0.93827000000E+00  0.93827000000E+00 0.  1.
     999902    2    1    2    0    0 -0.12171409336E-01  0.52100564721E-02  0.31459724659E-02  0.10303217291E+01  0.10302318576E+01 0.  0.
     999903    2    3    3    0    0  0.77836234807E-01  0.10704686804E+00 -0.35118355738E-02  0.13986317388E+00  0.45076191190E-01 0.  0.
         14    1    1    2    0    0  0.12171409336E-01 -0.52100564721E-02 -0.31459724659E-02  0.13608270883E-01  0.00000000000E+00 0. -1.
     999901    1    3    3    0    0 -0.90007644143E-01 -0.10183681157E+00  0.66578080397E-02  0.89045855524E+00  0.88000000000E+00 0.  1.
        -11    1    4    4    0    0  0.12988954565E-01  0.54159170693E-01  0.40294799354E-02  0.55842873676E-01  0.51100000000E-03 0. -1.
         11    1    4    4    0    0  0.64847280242E-01  0.52887697345E-01 -0.75413155092E-02  0.84020300201E-01  0.51100000000E-03 0.  1.
</event>
<event>
 8    1  0.2825007E+004  0.1043930E+01  0.7957747E-01            NaN
         13   -1    0    0    0    0  0.00000000000E+00  0.00000000000E+00  0.74505805969E-08  0.10566000000E+00  0.10566000000E+00 0.  1.
     999900   -1    0    0    0    0 -0.00000000000E+00 -0.00000000000E+00 -0.74505805969E-08  0.93827000000E+00  0.93827000000E+00 0.  1.
     999902    2    1    2    0    0  0.33643227188E-02  0.28328874740E-02 -0.13839169820E-01  0.10294087556E+01  0.10293063293E+01 0.  0.
     999903    2    3    3    0    0  0.41155615580E-02  0.13091497575E+00 -0.20296217410E-01  0.14011280979E+00  0.45431204066E-01 0.  0.
         14    1    1    2    0    0 -0.33643227188E-02 -0.28328874740E-02  0.13839169820E-01  0.14521244440E-01  0.00000000000E+00 0.  1.
     999901    1    3    3    0    0 -0.75123883916E-03 -0.12808208828E+00  0.64570475900E-02  0.88929594577E+00  0.88000000000E+00 0.  1.
        -11    1    4    4    0    0 -0.87983801061E-02  0.12114546516E+00 -0.12420817292E-01  0.12209902966E+00  0.51100000000E-03 0.  1.
         11    1    4    4    0    0  0.12913941664E-01  0.97695105960E-02 -0.78754001177E-02  0.18013780131E-01  0.51100000000E-03 0. -1.
</event>
<event>
 8    1  0.2825007E+004  0.1043930E+01  0.7957747E-01            NaN
         13   -1    0    0    0    0  0.00000000000E+00  0.00000000000E+00  0.74505805969E-08  0.10566000000E+00  0.10566000000E+00 0. -1.
     999900   -1    0    0    0    0 -0.00000000000E+00 -0.00000000000E+00 -0.74505805969E-08  0.93827000000E+00  0.93827000000E+00 0.  1.
     999902    2    1    2    0    0  0.79259599125E-02 -0.41532371082E-02 -0.77231558557E-02  0.10321097904E+01  0.10320421028E+01 0.  0.
     999903    2    3    3    0    0  0.60112624863E-01 -0.88188295315E-01 -0.83908468343E-01  0.14329623241E+00  0.45852765058E-01 0.  0.
         14    1    1    2    0    0 -0.79259599125E-02  0.41532371082E-02  0.77231558557E-02  0.11820209617E-01  0.00000000000E+00 0.  1.
     999901    1    3    3    0    0 -0.52186664951E-01  0.84035058207E-01  0.76185312487E-01  0.88881355798E+00  0.88000000000E+00 0. -1.
        -11    1    4    4    0    0  0.53254200279E-01 -0.76469492491E-01 -0.88928755917E-01  0.12881062797E+00  0.51100000000E-03 0. -1.
         11    1    4    4    0    0  0.68584245840E-02 -0.11718802824E-01  0.50202875742E-02  0.14485604431E-01  0.51100000000E-03 0.  1.
</event>
<event>
 8    1  0.2825007E+004  0.1043930E+01  0.7957747E-01            NaN
         13   -1    0    0    0    0  0.00000000000E+00  0.00000000000E+00  0.74505805969E-08  0.10566000000E+00  0.10566000000E+00 0. -1.
     999900   -1    0    0    0    0 -0.00000000000E+00 -0.00000000000E+00 -0.74505805969E-08  0.93827000000E+00  0.93827000000E+00 0.  1.
     999902    2    1    2    0    0  0.13802254253E-01  0.94317994450E-02 -0.11553881078E-02  0.10271730318E+01  0.10270363388E+01 0.  0.
     999903    2    3    3    0    0  0.72866004254E-01 -0.92395512949E-01 -0.54509066313E-01  0.13773279031E+00  0.46397174781E-01 0.  0.
         14    1    1    2    0    0 -0.13802254253E-01 -0.94317994450E-02  0.11553881078E-02  0.16756968249E-01  0.00000000000E+00 0. -1.
     999901    1    3    3    0    0 -0.59063750001E-01  0.10182731239E+00  0.53353678205E-01  0.88944024144E+00  0.88000000000E+00 0. -1.
        -11    1    4    4    0    0  0.61904666341E-01 -0.59372537879E-01 -0.56770065407E-01  0.10286101018E+00  0.51100000000E-03 0.  1.
         11    1    4    4    0    0  0.10961337913E-01 -0.33022975070E-01  0.22609990937E-02  0.34871780127E-01  0.51100000000E-03 0. -1.
</event>
<event>
 8    1  0.2825007E+004  0.1043930E+01  0.7957747E-01            NaN
         13   -1    0    0    0    0  0.00000000000E+00  0.00000000000E+00  0.74505805969E-08  0.10566000000E+00  0.10566000000E+00 0.  1.
     999900   -1    0    0    0    0 -0.00000000000E+00 -0.00000000000E+00 -0.74505805969E-08  0.93827000000E+00  0.93827000000E+00 0.  1.
     999902    2    1    2    0    0 -0.28519621095E-02 -0.10334475790E-02  0.13869367944E-01  0.10297327795E+01  0.10296349043E+01 0.  0.
     999903    2    3    3    0    0  0.86584840641E-01 -0.72666272130E-01  0.70207606706E-01  0.14051728238E+00  0.45151709523E-01 0.  0.
         14    1    1    2    0    0  0.28519621095E-02  0.10334475790E-02 -0.13869367944E-01  0.14197220466E-01  0.00000000000E+00 0. -1.
     999901    1    3    3    0    0 -0.89436802751E-01  0.71632824551E-01 -0.56338238761E-01  0.88921549716E+00  0.88000000000E+00 0. -1.
        -11    1    4    4    0    0  0.77471214192E-01 -0.38960283440E-01  0.47681049073E-01  0.98961792000E-01  0.51100000000E-03 0.  1.
         11    1    4    4    0    0  0.91136264492E-02 -0.33705988690E-01  0.22526557632E-01  0.41555490376E-01  0.51100000000E-03 0. -1.
</event>
<event>
 8    1  0.2825007E+004  0.1043930E+01  0.7957747E-01            NaN
         13   -1    0    0    0    0  0.00000000000E+00  0.00000000000E+00  0.74505805969E-08  0.10566000000E+00  0.10566000000E+00 0. -1.
     999900   -1    0    0    0    0 -0.00000000000E+00 -0.00000000000E+00 -0.74505805969E-08  0.93827000000E+00  0.93827000000E+00 0.  1.
     999902    2    1    2    0    0 -0.13360193314E-01 -0.51821805176E-02  0.42508374588E-02  0.10289827802E+01  0.10288742113E+01 0.  0.
     999903    2    3    3    0    0  0.28642057532E-01 -0.60020754830E-01 -0.11343270953E+00  0.13846558468E+00  0.43392166093E-01 0.  0.
         14    1    1    2    0    0  0.13360193314E-01  0.51821805176E-02 -0.42508374588E-02  0.14947219789E-01  0.00000000000E+00 0. -1.
     999901    1    3    3    0    0 -0.42002250847E-01  0.54838574312E-01  0.11768354699E+00  0.89051719553E+00  0.88000000000E+00 0. -1.
        -11    1    4    4    0    0  0.65872121094E-02 -0.48056870775E-01 -0.47390048828E-01  0.67815426276E-01  0.51100000000E-03 0.  1.
         11    1    4    4    0    0  0.22054845423E-01 -0.11963884055E-01 -0.66042660704E-01  0.70650158402E-01  0.51100000000E-03 0. -1.
</event>
<event>
 8    1  0.2825007E+004  0.1043930E+01  0.7957747E-01            NaN
         13   -1    0    0    0    0  0.00000000000E+00  0.00000000000E+00  0.74505805969E-08  0.10566000000E+00  0.10566000000E+00 0. -1.
     999900   -1    0    0    0    0 -0.00000000000E+00 -0.00000000000E+00 -0.74505805969E-08  0.93827000000E+00  0.93827000000E+00 0. -1.
     999902    2    1    2    0    0  0.11748571984E-01  0.86048272871E-03 -0.25203452453E-02  0.10318833609E+01  0.10318130397E+01 0.  0.
     999903    2    3    3    0    0 -0.89267155164E-01 -0.60324581038E-01 -0.77887502233E-01  0.14080087450E+00  0.46376105786E-01 0.  0.
         14    1    1    2    0    0 -0.11748571984E-01 -0.86048272871E-03  0.25203452453E-02  0.12046639130E-01  0.00000000000E+00 0. -1.
     999901    1    3    3    0    0  0.10101572715E+00  0.61185063766E-01  0.75367156988E-01  0.89108248637E+00  0.88000000000E+00 0. -1.
        -11    1    4    4    0    0 -0.62814886279E-01 -0.15140921592E-01 -0.48174834451E-01  0.80597972929E-01  0.51100000000E-03 0. -1.
         11    1    4    4    0    0 -0.26452268885E-01 -0.45183659445E-01 -0.29712667782E-01  0.60202901573E-01  0.51100000000E-03 0.  1.
</event>
<event>
 8    1  0.2825007E+004  0.1043930E+01  0.7957747E-01            NaN
         13   -1    0    0    0    0  0.00000000000E+00  0.00000000000E+00  0.74505805969E-08  0.10566000000E+00  0.10566000000E+00 0. -1.
     999900   -1    0    0    0    0 -0.00000000000E+00 -0.00000000000E+00 -0.74505805969E-08  0.93827000000E+00  0.93827000000E+00 0. -1.
     999902    2    1    2    0    0  0.48010361325E-02  0.10543918237E-01 -0.96596463464E-03  0.10323042851E+01  0.10322388191E+01 0.  0.
     999903    2    3    3    0    0  0.22165671562E-01 -0.12570468238E+00  0.35575904780E-01  0.14090060551E+00  0.47899388975E-01 0.  0.
         14    1    1    2    0    0 -0.48010361325E-02 -0.10543918237E-01  0.96596463464E-03  0.11625714921E-01  0.00000000000E+00 0. -1.
     999901    1    3    3    0    0 -0.17364635429E-01  0.13624860061E+00 -0.36541869414E-01  0.89140367957E+00  0.88000000000E+00 0. -1.
        -11    1    4    4    0    0  0.35592445476E-01 -0.72833171213E-01  0.28306522789E-01  0.85866252727E-01  0.51100000000E-03 0. -1.
         11    1    4    4    0    0 -0.13426773914E-01 -0.52871511164E-01  0.72693819907E-02  0.55034352781E-01  0.51100000000E-03 0.  1.
</event>
<event>
 7    1  0.2825007E+004  0.1043930E+01  0.7957747E-01            NaN
         13   -1    0    0    0    0  0.00000000000E+00  0.00000000000E+00  0.74505805969E-08  0.10566000000E+00  0.10566000000E+00 0. -1.
     999900   -1    0    0    0    0 -0.00000000000E+00 -0.00000000000E+00 -0.74505805969E-08  0.93827000000E+00  0.93827000000E+00 0.  1.
     999903    2    1    2    0    0 -0.48441210841E-01 -0.38984333718E-01  0.80948213712E-01  0.11185257169E+00  0.45738991105E-01 0.  0.
         14    1    1    2    0    0  0.43083677982E-01  0.91218344800E-02  0.14575933170E-01  0.46388242050E-01  0.00000000000E+00 0.  1.
     999901    1    1    2    0    0  0.53575328593E-02  0.29862499238E-01 -0.95524146882E-01  0.88568918626E+00  0.88000000000E+00 0.  1.
        -11    1    3    3    0    0 -0.10523590007E-01 -0.10021104275E-01  0.56296997579E-01  0.58144488431E-01  0.51100000000E-03 0. -1.
         11    1    3    3    0    0 -0.37917620834E-01 -0.28963229443E-01  0.24651216133E-01  0.53708083259E-01  0.51100000000E-03 0.  1.
</event>
<event>
 8    1  0.2825007E+004  0.1043930E+01  0.7957747E-01            NaN
         13   -1    0    0    0    0  0.00000000000E+00  0.00000000000E+00  0.74505805969E-08  0.10566000000E+00  0.10566000000E+00 0.  1.
     999900   -1    0    0    0    0 -0.00000000000E+00 -0.00000000000E+00 -0.74505805969E-08  0.93827000000E+00  0.93827000000E+00 0. -1.
     999902    2    1    2    0    0 -0.56472332599E-02 -0.15048556507E-01  0.24647236355E-03  0.10278548314E+01  0.10277291197E+01 0.  0.
     999903    2    3    3    0    0  0.96656527623E-01 -0.59808779746E-01 -0.64888326974E-01  0.13841001629E+00  0.45025139244E-01 0.  0.
         14    1    1    2    0    0  0.56472332599E-02  0.15048556507E-01 -0.24647236355E-03  0.16075168585E-01  0.00000000000E+00 0. -1.
     999901    1    3    3    0    0 -0.10230376088E+00  0.44760223240E-01  0.65134799337E-01  0.88944481513E+00  0.88000000000E+00 0.  1.
        -11    1    4    4    0    0  0.51038834044E-01 -0.43510350593E-01 -0.59515099843E-01  0.89668396995E-01  0.51100000000E-03 0. -1.
         11    1    4    4    0    0  0.45617693579E-01 -0.16298429153E-01 -0.53732271308E-02  0.48741619291E-01  0.51100000000E-03 0.  1.
</event>
<event>
 8    1  0.2825007E+004  0.1043930E+01  0.7957747E-01            NaN
         13   -1    0    0    0    0  0.00000000000E+00  0.00000000000E+00  0.74505805969E-08  0.10566000000E+00  0.10566000000E+00 0.  1.
     999900   -1    0    0    0    0 -0.00000000000E+00 -0.00000000000E+00 -0.74505805969E-08  0.93827000000E+00  0.93827000000E+00 0.  1.
     999902    2    1    2    0    0 -0.24498721486E-02 -0.13690955254E-01 -0.40581506473E-03  0.10300156615E+01  0.10299216738E+01 0.  0.
     999903    2    3    3    0    0 -0.13263693839E+00 -0.47250409472E-02  0.36924798505E-03  0.14039233643E+00  0.45771042661E-01 0.  0.
         14    1    1    2    0    0  0.24498721486E-02  0.13690955254E-01  0.40581506473E-03  0.13914338474E-01  0.00000000000E+00 0. -1.
     999901    1    3    3    0    0  0.13018706624E+00 -0.89659143070E-02 -0.77506304978E-03  0.88962332510E+00  0.88000000000E+00 0. -1.
        -11    1    4    4    0    0 -0.16413290855E-01 -0.16531094083E-01  0.32954570736E-02  0.23532835499E-01  0.51100000000E-03 0. -1.
         11    1    4    4    0    0 -0.11622364753E+00  0.11806053136E-01 -0.29262090885E-02  0.11685950093E+00  0.51100000000E-03 0.  1.
</event>
<event>
 8    1  0.2825007E+004  0.1043930E+01  0.7957747E-01            NaN
         13   -1    0    0    0    0  0.00000000000E+00  0.00000000000E+00  0.74505805969E-08  0.10566000000E+00  0.10566000000E+00 0. -1.
     999900   -1    0    0    0    0 -0.00000000000E+00 -0.00000000000E+00 -0.74505805969E-08  0.93827000000E+00  0.93827000000E+00 0. -1.
     999902    2    1    2    0    0 -0.95461439537E-02  0.38682782564E-02 -0.86032811855E-02  0.10305095347E+01  0.10304221428E+01 0.  0.
     999903    2    3    3    0    0  0.44511208411E-01  0.59925413182E-01 -0.11078327716E+00  0.14118093893E+00  0.45681727191E-01 0.  0.
         14    1    1    2    0    0  0.95461439537E-02 -0.38682782564E-02  0.86032811855E-02  0.13420465275E-01  0.00000000000E+00 0. -1.
     999901    1    3    3    0    0 -0.54057352365E-01 -0.56057134925E-01  0.10217999598E+00  0.88932859579E+00  0.88000000000E+00 0.  1.
        -11    1    4    4    0    0  0.49443437522E-02  0.11563171807E-01 -0.58101773396E-01  0.59449395877E-01  0.51100000000E-03 0. -1.
         11    1    4    4    0    0  0.39566864659E-01  0.48362241375E-01 -0.52681503765E-01  0.81731543052E-01  0.51100000000E-03 0.  1.
</event>
<event>
 8    1  0.2825007E+004  0.1043930E+01  0.7957747E-01            NaN
         13   -1    0    0    0    0  0.00000000000E+00  0.00000000000E+00  0.74505805969E-08  0.10566000000E+00  0.10566000000E+00 0. -1.
     999900   -1    0    0    0    0 -0.00000000000E+00 -0.00000000000E+00 -0.74505805969E-08  0.93827000000E+00  0.93827000000E+00 0. -1.
     999902    2    1    2    0    0  0.17549223581E-01  0.17387213140E-01  0.24900903436E-03  0.10192246881E+01  0.10189252242E+01 0.  0.
     999903    2    3    3    0    0 -0.61387276476E-01  0.10609948274E+00  0.11823585676E-01  0.13117355861E+00  0.45179722777E-01 0.  0.
         14    1    1    2    0    0 -0.17549223581E-01 -0.17387213140E-01 -0.24900903436E-03  0.24705311869E-01  0.00000000000E+00 0. -1.
     999901    1    3    3    0    0  0.78936500057E-01 -0.88712269596E-01 -0.11574576641E-01  0.88805112952E+00  0.88000000000E+00 0.  1.
        -11    1    4    4    0    0 -0.44437243882E-02  0.32513959862E-01 -0.12302263219E-01  0.35050122306E-01  0.51100000000E-03 0.  1.
         11    1    4    4    0    0 -0.56943552088E-01  0.73585522874E-01  0.24125848895E-01  0.96123436304E-01  0.51100000000E-03 0. -1.
</event>
<event>
 8    1  0.2825007E+004  0.1043930E+01  0.7957747E-01            NaN
         13   -1    0    0    0    0  0.00000000000E+00  0.00000000000E+00  0.74505805969E-08  0.10566000000E+00  0.10566000000E+00 0. -1.
     999900   -1    0    0    0    0 -0.00000000000E+00 -0.00000000000E+00 -0.74505805969E-08  0.93827000000E+00  0.93827000000E+00 0.  1.
     999902    2    1    2    0    0  0.13538971032E-01  0.14267405388E-02 -0.33930131805E-02  0.10298996093E+01  0.10298040364E+01 0.  0.
     999903    2    3    3    0    0  0.80735221015E-01  0.55470004545E-01  0.91064895331E-01  0.14065368892E+00  0.43537888441E-01 0.  0.
         14    1    1    2    0    0 -0.13538971032E-01 -0.14267405388E-02  0.33930131805E-02  0.14030390715E-01  0.00000000000E+00 0. -1.
     999901    1    3    3    0    0 -0.67196249983E-01 -0.54043264006E-01 -0.94457908512E-01  0.88924592036E+00  0.88000000000E+00 0.  1.
        -11    1    4    4    0    0  0.11203305146E-01 -0.46010945288E-02  0.24022149511E-01  0.26907413572E-01  0.51100000000E-03 0. -1.
         11    1    4    4    0    0  0.69531915869E-01  0.60071099073E-01  0.67042745821E-01  0.11374627535E+00  0.51100000000E-03 0.  1.
</event>
<event>
 8    1  0.2825007E+004  0.1043930E+01  0.7957747E-01            NaN
         13   -1    0    0    0    0  0.00000000000E+00  0.00000000000E+00  0.74505805969E-08  0.10566000000E+00  0.10566000000E+00 0.  1.
     999900   -1    0    0    0    0 -0.00000000000E+00 -0.00000000000E+00 -0.74505805969E-08  0.93827000000E+00  0.93827000000E+00 0. -1.
     999902    2    1    2    0    0  0.12276941852E-01  0.90034254784E-03 -0.73303507774E-02  0.10296028244E+01  0.10295031365E+01 0.  0.
     999903    2    3    3    0    0 -0.38644049443E-01  0.13116320043E-01  0.12440194793E+00  0.13825801123E+00  0.44430086786E-01 0.  0.
         14    1    1    2    0    0 -0.12276941852E-01 -0.90034254784E-03  0.73303507774E-02  0.14327175592E-01  0.00000000000E+00 0. -1.
     999901    1    3    3    0    0  0.50920991294E-01 -0.12215977495E-01 -0.13173229870E+00  0.89134481318E+00  0.88000000000E+00 0. -1.
        -11    1    4    4    0    0 -0.98676564394E-02 -0.10894114322E-01  0.73998700706E-01  0.75446147666E-01  0.51100000000E-03 0. -1.
         11    1    4    4    0    0 -0.28776393003E-01  0.24010434365E-01  0.50403247221E-01  0.62811863562E-01  0.51100000000E-03 0.  1.
</event>
<event>
 8    1  0.2825007E+004  0.1043930E+01  0.7957747E-01            NaN
         13   -1    0    0    0    0  0.00000000000E+00  0.00000000000E+00  0.74505805969E-08  0.10566000000E+00  0.10566000000E+00 0.  1.
     999900   -1    0    0    0    0 -0.00000000000E+00 -0.00000000000E+00 -0.74505805969E-08  0.93827000000E+00  0.93827000000E+00 0.  1.
     999902    2    1    2    0    0 -0.56693764258E-03  0.15700560587E-01  0.71770783447E-02  0.10266574937E+01  0.10265121869E+01 0.  0.
     999903    2    3    3    0    0  0.10222056616E+00  0.76854509458E-01  0.30455569200E-01  0.13826176849E+00  0.42814894141E-01 0.  0.
         14    1    1    2    0    0  0.56693764258E-03 -0.15700560587E-01 -0.71770783447E-02  0.17272506321E-01  0.00000000000E+00 0. -1.
     999901    1    3    3    0    0 -0.10278750380E+00 -0.61153948870E-01 -0.23278490856E-01  0.88839572519E+00  0.88000000000E+00 0. -1.
        -11    1    4    4    0    0  0.86308672140E-01  0.69960742744E-01  0.10167532578E-01  0.11156761292E+00  0.51100000000E-03 0. -1.
         11    1    4    4    0    0  0.15911894019E-01  0.68937667141E-02  0.20288036622E-01  0.26694155573E-01  0.51100000000E-03 0.  1.
</event>
<event>
 8    1  0.2825007E+004  0.1043930E+01  0.7957747E-01            NaN
         13   -1    0    0    0    0  0.00000000000E+00  0.00000000000E+00  0.74505805969E-08  0.10566000000E+00  0.10566000000E+00 0.  1.
     999900   -1    0    0    0    0 -0.00000000000E+00 -0.00000000000E+00 -0.74505805969E-08  0.93827000000E+00  0.93827000000E+00 0.  1.
     999902    2    1    2    0    0  0.46534629113E-02 -0.12793259217E-01  0.36622926558E-02  0.10298326745E+01  0.10297361812E+01 0.  0.
     999903    2    3    3    0    0 -0.53459067349E-03  0.12517112149E+00 -0.37001745740E-01  0.13814065915E+00  0.45228498532E-01 0.  0.
         14    1    1    2    0    0 -0.46534629113E-02  0.12793259217E-01 -0.36622926558E-02  0.14097325489E-01  0.00000000000E+00 0. -1.
     999901    1    3    3    0    0  0.51880535848E-02 -0.13796438071E+00  0.40664038396E-01  0.89169201536E+00  0.88000000000E+00 0. -1.
        -11    1    4    4    0    0  0.13049567503E-01  0.22527447095E-01  0.48054433699E-02  0.26478868775E-01  0.51100000000E-03 0.  1.
         11    1    4    4    0    0 -0.13584158177E-01  0.10264367440E+00 -0.41807189110E-01  0.11166179037E+00  0.51100000000E-03 0. -1.
</event>
<event>
 8    1  0.2825007E+004  0.1043930E+01  0.7957747E-01            NaN
         13   -1    0    0    0    0  0.00000000000E+00  0.00000000000E+00  0.74505805969E-08  0.10566000000E+00  0.10566000000E+00 0. -1.
     999900   -1    0    0    0    0 -0.00000000000E+00 -0.00000000000E+00 -0.74505805969E-08  0.93827000000E+00  0.93827000000E+00 0.  1.
     999902    2    1    2    0    0 -0.27504902512E-02 -0.56427191354E-02 -0.12301377189E-01  0.10301195200E+01  0.10300269396E+01 0.  0.
     999903    2    3    3    0    0 -0.12662299455E+00 -0.38226435139E-01 -0.16096314677E-01  0.14083863224E+00  0.45626591946E-01 0.  0.
         14    1    1    2    0    0  0.27504902512E-02  0.56427191354E-02  0.12301377189E-01  0.13810479956E-01  0.00000000000E+00 0. -1.
     999901    1    3    3    0    0  0.12387250430E+00  0.32583716004E-01  0.37949374880E-02  0.88928088781E+00  0.88000000000E+00 0. -1.
        -11    1    4    4    0    0 -0.92189678578E-01 -0.34083691338E-01  0.79842891009E-02  0.98613613893E-01  0.51100000000E-03 0.  1.
         11    1    4    4    0    0 -0.34433315969E-01 -0.41427438013E-02 -0.24080603778E-01  0.42225018344E-01  0.51100000000E-03 0. -1.
</event>
<event>
 8    1  0.2825007E+004  0.1043930E+01  0.7957747E-01            NaN
         13   -1    0    0    0    0  0.00000000000E+00  0.00000000000E+00  0.74505805969E-08  0.10566000000E+00  0.10566000000E+00 0.  1.
     999900   -1    0    0    0    0 -0.00000000000E+00 -0.00000000000E+00 -0.74505805969E-08  0.93827000000E+00  0.93827000000E+00 0. -1.
     999902    2    1    2    0    0  0.99866177067E-02  0.30726147038E-02 -0.12794650070E-01  0.10274110241E+01  0.10272782174E+01 0.  0.
     999903    2    3    3    0    0  0.89805262109E-01 -0.36890296415E-02  0.93553668724E-01  0.13739602381E+00  0.45241401235E-01 0.  0.
         14    1    1    2    0    0 -0.99866177067E-02 -0.30726147038E-02  0.12794650070E-01  0.16518975899E-01  0.00000000000E+00 0.  1.
     999901    1    3    3    0    0 -0.79818644402E-01  0.67616443453E-02 -0.10634831879E+00  0.89001500029E+00  0.88000000000E+00 0. -1.
        -11    1    4    4    0    0  0.13698910567E-01 -0.78998031599E-02 -0.11074219214E-02  0.15860471147E-01  0.51100000000E-03 0. -1.
         11    1    4    4    0    0  0.76106351541E-01  0.42107735184E-02  0.94661090645E-01  0.12153555267E+00  0.51100000000E-03 0.  1.
</event>
<event>
 8    1  0.2825007E+004  0.1043930E+01  0.7957747E-01            NaN
         13   -1    0    0    0    0  0.00000000000E+00  0.00000000000E+00  0.74505805969E-08  0.10566000000E+00  0.10566000000E+00 0. -1.
     999900   -1    0    0    0    0 -0.00000000000E+00 -0.00000000000E+00 -0.74505805969E-08  0.93827000000E+00  0.93827000000E+00 0.  1.
     999902    2    1    2    0    0 -0.12909078681E-01 -0.30436652409E-02  0.51805416615E-02  0.10296911018E+01  0.10295926471E+01 0.  0.
     999903    2    3    3    0    0  0.90229501596E-02 -0.82604541420E-01 -0.10309167343E+00  0.13922278709E+00  0.43013572533E-01 0.  0.
         14    1    1    2    0    0  0.12909078681E-01  0.30436652409E-02 -0.51805416615E-02  0.14238898216E-01  0.00000000000E+00 0.  1.
     999901    1    3    3    0    0 -0.21932028841E-01  0.79560876179E-01  0.10827221509E+00  0.89046831469E+00  0.88000000000E+00 0. -1.
        -11    1    4    4    0    0  0.21801540766E-01 -0.73847134744E-01 -0.77130710948E-01  0.10898676150E+00  0.51100000000E-03 0. -1.
         11    1    4    4    0    0 -0.12778590607E-01 -0.87574066756E-02 -0.25960962485E-01  0.30236025594E-01  0.51100000000E-03 0.  1.
</event>
<event>
 8    1  0.2825007E+004  0.1043930E+01  0.7957747E-01            NaN
         13   -1    0    0    0    0  0.00000000000E+00  0.00000000000E+00  0.74505805969E-08  0.10566000000E+00  0.10566000000E+00 0. -1.
     999900   -1    0    0    0    0 -0.00000000000E+00 -0.00000000000E+00 -0.74505805969E-08  0.93827000000E+00  0.93827000000E+00 0.  1.
     999902    2    1    2    0    0  0.17981818043E-03  0.74838837021E-03 -0.13666980803E-01  0.10302413630E+01  0.10301504197E+01 0.  0.
     999903    2    3    3    0    0  0.20723695815E-01 -0.10551700478E+00  0.76178330792E-01  0.13906990656E+00  0.44429618083E-01 0.  0.
         14    1    1    2    0    0 -0.17981818043E-03 -0.74838837021E-03  0.13666980803E-01  0.13688637040E-01  0.00000000000E+00 0. -1.
     999901    1    3    3    0    0 -0.20543877635E-01  0.10626539315E+00 -0.89845311595E-01  0.89117145640E+00  0.88000000000E+00 0.  1.
        -11    1    4    4    0    0  0.29527388991E-01 -0.60857094189E-01  0.60993251696E-01  0.91081779118E-01  0.51100000000E-03 0.  1.
         11    1    4    4    0    0 -0.88036931761E-02 -0.44659910587E-01  0.15185079095E-01  0.47988127441E-01  0.51100000000E-03 0. -1.
</event>
<event>
 8    1  0.2825007E+004  0.1043930E+01  0.7957747E-01            NaN
         13   -1    0    0    0    0  0.00000000000E+00  0.00000000000E+00  0.74505805969E-08  0.10566000000E+00  0.10566000000E+00 0.  1.
     999900   -1    0    0    0    0 -0.00000000000E+00 -0.00000000000E+00 -0.74505805969E-08  0.93827000000E+00  0.93827000000E+00 0.  1.
     999902    2    1    2    0    0  0.61173675784E-02  0.82069697149E-02  0.23502879111E-01  0.10182948315E+01  0.10179721027E+01 0.  0.
     999903    2    3    3    0    0  0.10428073552E+00  0.64346053396E-01  0.10474047177E-01  0.13096321705E+00  0.45019686449E-01 0.  0.
         14    1    1    2    0    0 -0.61173675784E-02 -0.82069697149E-02 -0.23502879111E-01  0.25635168509E-01  0.00000000000E+00 0. -1.
     999901    1    3    3    0    0 -0.98163367941E-01 -0.56139083681E-01  0.13028831935E-01  0.88733161444E+00  0.88000000000E+00 0. -1.
        -11    1    4    4    0    0  0.34792314250E-01  0.46627809417E-01 -0.17947269942E-02  0.58207730654E-01  0.51100000000E-03 0.  1.
         11    1    4    4    0    0  0.69488421269E-01  0.17718243979E-01  0.12268774171E-01  0.72755486397E-01  0.51100000000E-03 0. -1.
</event>
<event>
 8    1  0.2825007E+004  0.1043930E+01  0.7957747E-01            NaN
         13   -1    0    0    0    0  0.00000000000E+00  0.00000000000E+00  0.74505805969E-08  0.10566000000E+00  0.10566000000E+00 0.  1.
     999900   -1    0    0    0    0 -0.00000000000E+00 -0.00000000000E+00 -0.74505805969E-08  0.93827000000E+00  0.93827000000E+00 0. -1.
     999902    2    1    2    0    0  0.49035724519E-02 -0.98666556136E-02  0.14328465623E-02  0.10328192410E+01  0.10327594762E+01 0.  0.
     999903    2    3    3    0    0  0.21049634791E-01  0.39187496916E-01 -0.12697540430E+00  0.14200181635E+00  0.45420430526E-01 0.  0.
         14    1    1    2    0    0 -0.49035724519E-02  0.98666556136E-02 -0.14328465623E-02  0.11110758978E-01  0.00000000000E+00 0.  1.
     999901    1    3    3    0    0 -0.16146062339E-01 -0.49054152529E-01  0.12840825087E+00  0.89081742467E+00  0.88000000000E+00 0.  1.
        -11    1    4    4    0    0  0.46379968123E-02  0.26100411673E-01 -0.11460419362E+00  0.11763130885E+00  0.51100000000E-03 0. -1.
         11    1    4    4    0    0  0.16411637979E-01  0.13087085243E-01 -0.12371210682E-01  0.24370507505E-01  0.51100000000E-03 0.  1.
</event>
<event>
 8    1  0.2825007E+004  0.1043930E+01  0.7957747E-01            NaN
         13   -1    0    0    0    0  0.00000000000E+00  0.00000000000E+00  0.74505805969E-08  0.10566000000E+00  0.10566000000E+00 0.  1.
     999900   -1    0    0    0    0 -0.00000000000E+00 -0.00000000000E+00 -0.74505805969E-08  0.93827000000E+00  0.93827000000E+00 0. -1.
     999902    2    1    2    0    0 -0.14042901626E-01  0.28590209887E-02  0.23583015726E-02  0.10294062721E+01  0.10293038105E+01 0.  0.
     999903    2    3    3    0    0  0.91334651366E-01 -0.72310162533E-01 -0.49480993964E-01  0.13842807514E+00  0.56064115763E-01 0.  0.
         14    1    1    2    0    0  0.14042901626E-01 -0.28590209887E-02 -0.23583015726E-02  0.14523727944E-01  0.00000000000E+00 0. -1.
     999901    1    3    3    0    0 -0.10537755299E+00  0.75169183521E-01  0.51839295537E-01  0.89097819692E+00  0.88000000000E+00 0. -1.
        -11    1    4    4    0    0 -0.54407921822E-02 -0.10917929934E-01  0.26950674156E-02  0.12503116531E-01  0.51100000000E-03 0. -1.
         11    1    4    4    0    0  0.96775443548E-01 -0.61392232599E-01 -0.52176061380E-01  0.12592495860E+00  0.51100000000E-03 0.  1.
</event>
<event>
 8    1  0.2825007E+004  0.1043930E+01  0.7957747E-01            NaN
         13   -1    0    0    0    0  0.00000000000E+00  0.00000000000E+00  0.74505805969E-08  0.10566000000E+00  0.10566000000E+00 0. -1.
     999900   -1    0    0    0    0 -0.00000000000E+00 -0.00000000000E+00 -0.74505805969E-08  0.93827000000E+00  0.93827000000E+00 0.  1.
     999902    2    1    2    0    0  0.10315518460E-01 -0.49138053931E-02  0.88322040327E-02  0.10294882815E+01  0.10293869819E+01 0.  0.
     999903    2    3    3    0    0  0.14986849519E-01 -0.10132911094E+00  0.85676958385E-01  0.14088102927E+00  0.44885730796E-01 0.  0.
         14    1    1    2    0    0 -0.10315518460E-01  0.49138053931E-02 -0.88322040327E-02  0.14441718479E-01  0.00000000000E+00 0.  1.
     999901    1    3    3    0    0 -0.46713310586E-02  0.96415305544E-01 -0.76844754352E-01  0.88860725225E+00  0.88000000000E+00 0.  1.
        -11    1    4    4    0    0  0.16307698711E-02  0.46663070143E-02  0.45042223010E-02  0.67069345503E-02  0.51100000000E-03 0.  1.
         11    1    4    4    0    0  0.13356079648E-01 -0.10599541795E+00  0.81172736084E-01  0.13417409472E+00  0.51100000000E-03 0. -1.
</event>
<event>
 8    1  0.2825007E+004  0.1043930E+01  0.7957747E-01            NaN
         13   -1    0    0    0    0  0.00000000000E+00  0.00000000000E+00  0.74505805969E-08  0.10566000000E+00  0.10566000000E+00 0. -1.
     999900   -1    0    0    0    0 -0.00000000000E+00 -0.00000000000E+00 -0.74505805969E-08  0.93827000000E+00  0.93827000000E+00 0. -1.
     999902    2    1    2    0    0  0.27929441972E-02 -0.14704610083E-01  0.27936870542E-02  0.10287040096E+01  0.10285913225E+01 0.  0.
     999903    2    3    3    0    0  0.12962732891E-01 -0.13315626068E+00  0.10150346963E-01  0.14067904458E+00  0.42295884418E-01 0.  0.
         14    1    1    2    0    0 -0.27929441972E-02  0.14704610083E-01 -0.27936870542E-02  0.15225990357E-01  0.00000000000E+00 0.  1.
     999901    1    3    3    0    0 -0.10169788694E-01  0.11845165059E+00 -0.73566599083E-02  0.88802496506E+00  0.88000000000E+00 0. -1.
        -11    1    4    4    0    0  0.16705561770E-01 -0.81992434719E-01 -0.12484279444E-01  0.84604689583E-01  0.51100000000E-03 0.  1.
         11    1    4    4    0    0 -0.37428288784E-02 -0.51163825959E-01  0.22634626406E-01  0.56074354997E-01  0.51100000000E-03 0. -1.
</event>
<event>
 8    1  0.2825007E+004  0.1043930E+01  0.7957747E-01            NaN
         13   -1    0    0    0    0  0.00000000000E+00  0.00000000000E+00  0.74505805969E-08  0.10566000000E+00  0.10566000000E+00 0. -1.
     999900   -1    0    0    0    0 -0.00000000000E+00 -0.00000000000E+00 -0.74505805969E-08  0.93827000000E+00  0.93827000000E+00 0.  1.
     999902    2    1    2    0    0  0.91529636270E-02  0.81989370138E-02 -0.68303555247E-02  0.10298710858E+01  0.10297751212E+01 0.  0.
     999903    2    3    3    0    0  0.75324346324E-01  0.74329679211E-01 -0.83166211928E-01  0.14162613654E+00  0.44075904799E-01 0.  0.
         14    1    1    2    0    0 -0.91529636270E-02 -0.81989370138E-02  0.68303555247E-02  0.14058914180E-01  0.00000000000E+00 0. -1.
     999901    1    3    3    0    0 -0.66171382697E-01 -0.66130742197E-01  0.76335856403E-01  0.88824494928E+00  0.88000000000E+00 0. -1.
        -11    1    4    4    0    0  0.51121969012E-01  0.58964478477E-01 -0.34909167079E-01  0.85493722020E-01  0.51100000000E-03 0.  1.
         11    1    4    4    0    0  0.24202377312E-01  0.15365200734E-01 -0.48257044849E-01  0.56132414518E-01  0.51100000000E-03 0. -1.
</event>
<event>
 8    1  0.2825007E+004  0.1043930E+01  0.7957747E-01            NaN
         13   -1    0    0    0    0  0.00000000000E+00  0.00000000000E+00  0.74505805969E-08  0.10566000000E+00  0.10566000000E+00 0. -1.
     999900   -1    0    0    0    0 -0.00000000000E+00 -0.00000000000E+00 -0.74505805969E-08  0.93827000000E+00  0.93827000000E+00 0.  1.
     999902    2    1    2    0    0  0.62242859224E-02  0.11714061394E-01  0.29246558111E-02  0.10303463856E+01  0.10302568416E+01 0.  0.
     999903    2    3    3    0    0 -0.11898686142E+00 -0.19877183661E-01  0.52537014028E-01  0.13953932212E+00  0.46455451287E-01 0.  0.
         14    1    1    2    0    0 -0.62242859224E-02 -0.11714061394E-01 -0.29246558111E-02  0.13583614438E-01  0.00000000000E+00 0. -1.
     999901    1    3    3    0    0  0.12521114735E+00  0.31591245055E-01 -0.49612358217E-01  0.89080706344E+00  0.88000000000E+00 0. -1.
        -11    1    4    4    0    0 -0.41916421890E-01  0.93643592744E-02  0.34653622852E-01  0.55188878830E-01  0.51100000000E-03 0. -1.
         11    1    4    4    0    0 -0.77070439533E-01 -0.29241542935E-01  0.17883391176E-01  0.84350443295E-01  0.51100000000E-03 0.  1.
</event>
<event>
 8    1  0.2825007E+004  0.1043930E+01  0.7957747E-01            NaN
         13   -1    0    0    0    0  0.00000000000E+00  0.00000000000E+00  0.74505805969E-08  0.10566000000E+00  0.10566000000E+00 0.  1.
     999900   -1    0    0    0    0 -0.00000000000E+00 -0.00000000000E+00 -0.74505805969E-08  0.93827000000E+00  0.93827000000E+00 0. -1.
     999902    2    1    2    0    0  0.98185701533E-02 -0.41276309644E-02  0.62264008767E-02  0.10315926694E+01  0.10315188927E+01 0.  0.
     999903    2    3    3    0    0  0.31781958528E-01  0.10484041430E+00  0.80785491504E-01  0.14147161964E+00  0.38552797151E-01 0.  0.
         14    1    1    2    0    0 -0.98185701533E-02  0.41276309644E-02 -0.62264008767E-02  0.12337330550E-01  0.00000000000E+00 0. -1.
     999901    1    3    3    0    0 -0.21963388374E-01 -0.10896804526E+00 -0.74559090628E-01  0.89012104981E+00  0.88000000000E+00 0. -1.
        -11    1    4    4    0    0  0.33426093970E-01  0.64178154561E-01  0.66672982418E-01  0.98395563856E-01  0.51100000000E-03 0. -1.
         11    1    4    4    0    0 -0.16441354425E-02  0.40662259737E-01  0.14112509086E-01  0.43076055785E-01  0.51100000000E-03 0.  1.
</event>
<event>
 8    1  0.2825007E+004  0.1043930E+01  0.7957747E-01            NaN
         13   -1    0    0    0    0  0.00000000000E+00  0.00000000000E+00  0.74505805969E-08  0.10566000000E+00  0.10566000000E+00 0. -1.
     999900   -1    0    0    0    0 -0.00000000000E+00 -0.00000000000E+00 -0.74505805969E-08  0.93827000000E+00  0.93827000000E+00 0.  1.
     999902    2    1    2    0    0 -0.19313309458E-02  0.13517426252E-01 -0.31350284747E-02  0.10299200301E+01  0.10298247371E+01 0.  0.
     999903    2    3    3    0    0 -0.89836885039E-01 -0.92826930758E-01  0.24460095334E-01  0.13874215814E+00  0.44312359370E-01 0.  0.
         14    1    1    2    0    0  0.19313309458E-02 -0.13517426252E-01  0.31350284747E-02  0.14009969851E-01  0.00000000000E+00 0. -1.
     999901    1    3    3    0    0  0.87905554093E-01  0.10634435701E+00 -0.27595123808E-01  0.89117787201E+00  0.88000000000E+00 0. -1.
        -11    1    4    4    0    0 -0.68956885242E-01 -0.44343881920E-01  0.38666033246E-02  0.82077059086E-01  0.51100000000E-03 0.  1.
         11    1    4    4    0    0 -0.20879999797E-01 -0.48483048838E-01  0.20593492009E-01  0.56665099049E-01  0.51100000000E-03 0. -1.
</event>
<event>
 7    1  0.2825007E+004  0.1043930E+01  0.7957747E-01            NaN
         13   -1    0    0    0    0  0.00000000000E+00  0.00000000000E+00  0.74505805969E-08  0.10566000000E+00  0.10566000000E+00 0.  1.
     999900   -1    0    0    0    0 -0.00000000000E+00 -0.00000000000E+00 -0.74505805969E-08  0.93827000000E+00  0.93827000000E+00 0.  1.
     999903    2    1    2    0    0 -0.71872702552E-01  0.73592683087E-01 -0.21420515959E-01  0.11133102964E+00  0.36799338053E-01 0.  0.
         14    1    1    2    0    0 -0.25012472089E-01  0.21956510200E-01 -0.23920856370E-01  0.40986820683E-01  0.00000000000E+00 0. -1.
     999901    1    1    2    0    0  0.96885174641E-01 -0.95549193288E-01  0.45341372329E-01  0.89161214967E+00  0.88000000000E+00 0.  1.
        -11    1    3    3    0    0 -0.37897294333E-01  0.34441841451E-01 -0.29135524519E-01  0.58920160135E-01  0.51100000000E-03 0. -1.
         11    1    3    3    0    0 -0.33975408219E-01  0.39150841636E-01  0.77150085597E-02  0.52410869508E-01  0.51100000000E-03 0.  1.
</event>
<event>
 8    1  0.2825007E+004  0.1043930E+01  0.7957747E-01            NaN
         13   -1    0    0    0    0  0.00000000000E+00  0.00000000000E+00  0.74505805969E-08  0.10566000000E+00  0.10566000000E+00 0.  1.
     999900   -1    0    0    0    0 -0.00000000000E+00 -0.00000000000E+00 -0.74505805969E-08  0.93827000000E+00  0.93827000000E+00 0.  1.
     999902    2    1    2    0    0  0.65429044597E-02 -0.45328046909E-02 -0.11398967882E-01  0.10300270368E+01  0.10299332037E+01 0.  0.
     999903    2    3    3    0    0  0.24511415726E-01 -0.10581343918E+00 -0.79076711033E-01  0.14145463612E+00  0.44260529137E-01 0.  0.
         14    1    1    2    0    0 -0.65429044597E-02  0.45328046909E-02  0.11398967882E-01  0.13902963206E-01  0.00000000000E+00 0.  1.
     999901    1    3    3    0    0 -0.17968511267E-01  0.10128063449E+00  0.67677743151E-01  0.88857240067E+00  0.88000000000E+00 0.  1.
        -11    1    4    4    0    0  0.19916842289E-01 -0.56118816366E-01 -0.17252599465E-01  0.61999318273E-01  0.51100000000E-03 0. -1.
         11    1    4    4    0    0  0.45945734378E-02 -0.49694622818E-01 -0.61824111568E-01  0.79455317847E-01  0.51100000000E-03 0.  1.
</event>
<event>
 8    1  0.2825007E+004  0.1043930E+01  0.7957747E-01            NaN
         13   -1    0    0    0    0  0.00000000000E+00  0.00000000000E+00  0.74505805969E-08  0.10566000000E+00  0.10566000000E+00 0. -1.
     999900   -1    0    0    0    0 -0.00000000000E+00 -0.00000000000E+00 -0.74505805969E-08  0.93827000000E+00  0.93827000000E+00 0. -1.
     999902    2    1    2    0    0 -0.13048423842E-01 -0.30021082914E-02 -0.27882584578E-02  0.10302534360E+01  0.10301626541E+01 0.  0.
     999903    2    3    3    0    0 -0.44465827139E-01  0.62981554810E-01 -0.10873488239E+00  0.14089097657E+00  0.45641062686E-01 0.  0.
         14    1    1    2    0    0  0.13048423842E-01  0.30021082914E-02  0.27882584578E-02  0.13676564049E-01  0.00000000000E+00 0. -1.
     999901    1    3    3    0    0  0.31417403297E-01 -0.65983663101E-01  0.10594662393E+00  0.88936245938E+00  0.88000000000E+00 0.  1.
        -11    1    4    4    0    0 -0.40340260882E-01  0.40759797150E-01 -0.43886272077E-01  0.72214705632E-01  0.51100000000E-03 0. -1.
         11    1    4    4    0    0 -0.41255662571E-02  0.22221757659E-01 -0.64848610310E-01  0.68676270943E-01  0.51100000000E-03 0.  1.
</event>
<event>
 8    1  0.2825007E+004  0.1043930E+01  0.7957747E-01            NaN
         13   -1    0    0    0    0  0.00000000000E+00  0.00000000000E+00  0.74505805969E-08  0.10566000000E+00  0.10566000000E+00 0.  1.
     999900   -1    0    0    0    0 -0.00000000000E+00 -0.00000000000E+00 -0.74505805969E-08  0.93827000000E+00  0.93827000000E+00 0.  1.
     999902    2    1    2    0    0 -0.58321229620E-02  0.12340968982E-01 -0.48423764332E-03  0.10302717549E+01  0.10301812177E+01 0.  0.
     999903    2    3    3    0    0 -0.59213249503E-01 -0.87844065827E-01 -0.79464959451E-01  0.13947181085E+00  0.43759769456E-01 0.  0.
         14    1    1    2    0    0  0.58321229620E-02 -0.12340968982E-01  0.48423764332E-03  0.13658245120E-01  0.00000000000E+00 0.  1.
     999901    1    3    3    0    0  0.53381126541E-01  0.10018503481E+00  0.78980721807E-01  0.89079994403E+00  0.88000000000E+00 0. -1.
        -11    1    4    4    0    0 -0.53017552706E-01 -0.47786902355E-01 -0.64678571297E-01  0.96322518850E-01  0.51100000000E-03 0. -1.
         11    1    4    4    0    0 -0.61956967975E-02 -0.40057163472E-01 -0.14786388153E-01  0.43149291997E-01  0.51100000000E-03 0.  1.
</event>
<event>
 8    1  0.2825007E+004  0.1043930E+01  0.7957747E-01            NaN
         13   -1    0    0    0    0  0.00000000000E+00  0.00000000000E+00  0.74505805969E-08  0.10566000000E+00  0.10566000000E+00 0. -1.
     999900   -1    0    0    0    0 -0.00000000000E+00 -0.00000000000E+00 -0.74505805969E-08  0.93827000000E+00  0.93827000000E+00 0.  1.
     999902    2    1    2    0    0 -0.11349250469E-01 -0.71915811465E-02 -0.22496811556E-02  0.10303070271E+01  0.10302169600E+01 0.  0.
     999903    2    3    3    0    0  0.10305010420E+00  0.12597239229E-02 -0.82101675970E-01  0.13927673693E+00  0.45126637065E-01 0.  0.
         14    1    1    2    0    0  0.11349250469E-01  0.71915811465E-02  0.22496811556E-02  0.13622972910E-01  0.00000000000E+00 0.  1.
     999901    1    3    3    0    0 -0.11439935467E+00 -0.84513050694E-02  0.79851994815E-01  0.89103029016E+00  0.88000000000E+00 0. -1.
        -11    1    4    4    0    0  0.47376922202E-01  0.52898871789E-02 -0.11082048840E-01  0.48945159017E-01  0.51100000000E-03 0. -1.
         11    1    4    4    0    0  0.55673181999E-01 -0.40301632560E-02 -0.71019627130E-01  0.90331577914E-01  0.51100000000E-03 0.  1.
</event>
<event>
 7    1  0.2825007E+004  0.1043930E+01  0.7957747E-01            NaN
         13   -1    0    0    0    0  0.00000000000E+00  0.00000000000E+00  0.74505805969E-08  0.10566000000E+00  0.10566000000E+00 0.  1.
     999900   -1    0    0    0    0 -0.00000000000E+00 -0.00000000000E+00 -0.74505805969E-08  0.93827000000E+00  0.93827000000E+00 0.  1.
     999903    2    1    2    0    0 -0.79623193162E-02 -0.83618314143E-01  0.59468446339E-01  0.11230662761E+00  0.44953993225E-01 0.  0.
         14    1    1    2    0    0  0.40407154423E-01  0.13967700042E-01  0.14595152222E-01  0.45175803716E-01  0.00000000000E+00 0.  1.
     999901    1    1    2    0    0 -0.32444835107E-01  0.69650614100E-01 -0.74063598561E-01  0.88644756867E+00  0.88000000000E+00 0.  1.
        -11    1    3    3    0    0 -0.15552049611E-01 -0.54725569737E-01  0.15184196466E-01  0.58886120380E-01  0.51100000000E-03 0.  1.
         11    1    3    3    0    0  0.75897302944E-02 -0.28892744406E-01  0.44284249873E-01  0.53420507233E-01  0.51100000000E-03 0. -1.
</event>
<event>
 8    1  0.2825007E+004  0.1043930E+01  0.7957747E-01            NaN
         13   -1    0    0    0    0  0.00000000000E+00  0.00000000000E+00  0.74505805969E-08  0.10566000000E+00  0.10566000000E+00 0. -1.
     999900   -1    0    0    0    0 -0.00000000000E+00 -0.00000000000E+00 -0.74505805969E-08  0.93827000000E+00  0.93827000000E+00 0. -1.
     999902    2    1    2    0    0  0.73928246233E-02  0.51449070800E-02 -0.11388718170E-01  0.10294101231E+01  0.10293077162E+01 0.  0.
     999903    2    3    3    0    0  0.10917123404E+00 -0.27605233406E-01  0.69168103596E-01  0.13928607673E+00  0.43999742751E-01 0.  0.
         14    1    1    2    0    0 -0.73928246233E-02 -0.51449070800E-02  0.11388718170E-01  0.14519876939E-01  0.00000000000E+00 0. -1.
     999901    1    3    3    0    0 -0.10177840942E+00  0.32750140486E-01 -0.80556821766E-01  0.89012404633E+00  0.88000000000E+00 0. -1.
        -11    1    4    4    0    0  0.66446554760E-01  0.16277720035E-02  0.53113682755E-01  0.85083010631E-01  0.51100000000E-03 0.  1.
         11    1    4    4    0    0  0.42724679280E-01 -0.29233005410E-01  0.16054420841E-01  0.54203066098E-01  0.51100000000E-03 0. -1.
</event>
<event>
 8    1  0.2825007E+004  0.1043930E+01  0.7957747E-01            NaN
         13   -1    0    0    0    0  0.00000000000E+00  0.00000000000E+00  0.74505805969E-08  0.10566000000E+00  0.10566000000E+00 0.  1.
     999900   -1    0    0    0    0 -0.00000000000E+00 -0.00000000000E+00 -0.74505805969E-08  0.93827000000E+00  0.93827000000E+00 0.  1.
     999902    2    1    2    0    0  0.27381590881E-02 -0.58670484684E-02 -0.12467822224E-01  0.10298812860E+01  0.10297854616E+01 0.  0.
     999903    2    3    3    0    0  0.25131088492E-01 -0.55278893574E-01  0.11637815061E+00  0.13884578818E+00  0.45243245606E-01 0.  0.
         14    1    1    2    0    0 -0.27381590881E-02  0.58670484684E-02  0.12467822224E-01  0.14048713960E-01  0.00000000000E+00 0. -1.
     999901    1    3    3    0    0 -0.22392929403E-01  0.49411845105E-01 -0.12884597284E+00  0.89103549786E+00  0.88000000000E+00 0.  1.
        -11    1    4    4    0    0  0.14296552962E-01 -0.42060207748E-01  0.37505770282E-01  0.58141176699E-01  0.51100000000E-03 0. -1.
         11    1    4    4    0    0  0.10834535529E-01 -0.13218685825E-01  0.78872380329E-01  0.80704611485E-01  0.51100000000E-03 0.  1.
</event>
<event>
 8    1  0.2825007E+004  0.1043930E+01  0.7957747E-01            NaN
         13   -1    0    0    0    0  0.00000000000E+00  0.00000000000E+00  0.74505805969E-08  0.10566000000E+00  0.10566000000E+00 0. -1.
     999900   -1    0    0    0    0 -0.00000000000E+00 -0.00000000000E+00 -0.74505805969E-08  0.93827000000E+00  0.93827000000E+00 0.  1.
     999902    2    1    2    0    0 -0.54194860831E-02  0.91768529513E-02 -0.10398300618E-01  0.10290400666E+01  0.10289323343E+01 0.  0.
     999903    2    3    3    0    0 -0.97564405087E-01  0.77390953963E-01  0.45502289684E-01  0.13984451691E+00  0.44473111520E-01 0.  0.
         14    1    1    2    0    0  0.54194860831E-02 -0.91768529513E-02  0.10398300618E-01  0.14889933352E-01  0.00000000000E+00 0. -1.
     999901    1    3    3    0    0  0.92144919004E-01 -0.68214101012E-01 -0.55900590302E-01  0.88919554974E+00  0.88000000000E+00 0. -1.
        -11    1    4    4    0    0 -0.67564389258E-01  0.27153998159E-01  0.17094196779E-01  0.74798121609E-01  0.51100000000E-03 0. -1.
         11    1    4    4    0    0 -0.30000015830E-01  0.50236955804E-01  0.28408092905E-01  0.65046395302E-01  0.51100000000E-03 0.  1.
</event>
<event>
 8    1  0.2825007E+004  0.1043930E+01  0.7957747E-01            NaN
         13   -1    0    0    0    0  0.00000000000E+00  0.00000000000E+00  0.74505805969E-08  0.10566000000E+00  0.10566000000E+00 0. -1.
     999900   -1    0    0    0    0 -0.00000000000E+00 -0.00000000000E+00 -0.74505805969E-08  0.93827000000E+00  0.93827000000E+00 0. -1.
     999902    2    1    2    0    0  0.47769840051E-02 -0.96037126082E-02  0.97499397238E-02  0.10294347526E+01  0.10293326953E+01 0.  0.
     999903    2    3    3    0    0 -0.10453999506E+00  0.42695552795E-01 -0.65968165180E-01  0.13790873141E+00  0.43766409342E-01 0.  0.
         14    1    1    2    0    0 -0.47769840051E-02  0.96037126082E-02 -0.97499397238E-02  0.14495247382E-01  0.00000000000E+00 0.  1.
     999901    1    3    3    0    0  0.10931697907E+00 -0.52299265403E-01  0.75718104904E-01  0.89152602120E+00  0.88000000000E+00 0.  1.
        -11    1    4    4    0    0 -0.71124119626E-01  0.72379766185E-02 -0.47331501086E-01  0.85741243367E-01  0.51100000000E-03 0. -1.
         11    1    4    4    0    0 -0.33415875437E-01  0.35457576176E-01 -0.18636664095E-01  0.52167488047E-01  0.51100000000E-03 0.  1.
</event>
<event>
 8    1  0.2825007E+004  0.1043930E+01  0.7957747E-01            NaN
         13   -1    0    0    0    0  0.00000000000E+00  0.00000000000E+00  0.74505805969E-08  0.10566000000E+00  0.10566000000E+00 0. -1.
     999900   -1    0    0    0    0 -0.00000000000E+00 -0.00000000000E+00 -0.74505805969E-08  0.93827000000E+00  0.93827000000E+00 0. -1.
     999902    2    1    2    0    0  0.29693933325E-02  0.65258779402E-02 -0.11896894092E-01  0.10300396988E+01  0.10299460377E+01 0.  0.
     999903    2    3    3    0    0 -0.18740571602E-01  0.81288875265E-01  0.10159121107E+00  0.13934312957E+00  0.46223839375E-01 0.  0.
         14    1    1    2    0    0 -0.29693933325E-02 -0.65258779402E-02  0.11896894092E-01  0.13890301246E-01  0.00000000000E+00 0. -1.
     999901    1    3    3    0    0  0.21709964934E-01 -0.74762997325E-01 -0.11348810516E+00  0.89069656919E+00  0.88000000000E+00 0. -1.
        -11    1    4    4    0    0 -0.24671808072E-01  0.83863333052E-01  0.86798243760E-01  0.12319071793E+00  0.51100000000E-03 0.  1.
         11    1    4    4    0    0  0.59312364701E-02 -0.25744577867E-02  0.14792967305E-01  0.16152411635E-01  0.51100000000E-03 0. -1.
</event>
<event>
 8    1  0.2825007E+004  0.1043930E+01  0.7957747E-01            NaN
         13   -1    0    0    0    0  0.00000000000E+00  0.00000000000E+00  0.74505805969E-08  0.10566000000E+00  0.10566000000E+00 0.  1.
     999900   -1    0    0    0    0 -0.00000000000E+00 -0.00000000000E+00 -0.74505805969E-08  0.93827000000E+00  0.93827000000E+00 0.  1.
     999902    2    1    2    0    0 -0.94650132561E-02 -0.10467247601E-01 -0.28112469664E-03  0.10298151575E+01  0.10297184226E+01 0.  0.
     999903    2    3    3    0    0 -0.12311987118E-01 -0.12718181872E+00  0.39770881643E-01  0.14120131582E+00  0.45047625066E-01 0.  0.
         14    1    1    2    0    0  0.94650132561E-02  0.10467247601E-01  0.28112469664E-03  0.14114842520E-01  0.00000000000E+00 0. -1.
     999901    1    3    3    0    0  0.28469738617E-02  0.11671457112E+00 -0.40052006339E-01  0.88861384166E+00  0.88000000000E+00 0. -1.
        -11    1    4    4    0    0  0.12477899133E-01 -0.89550712505E-01  0.26195743497E-01  0.94135573378E-01  0.51100000000E-03 0.  1.
         11    1    4    4    0    0 -0.24789886250E-01 -0.37631106214E-01  0.13575138146E-01  0.47065742445E-01  0.51100000000E-03 0. -1.
</event>
<event>
 8    1  0.2825007E+004  0.1043930E+01  0.7957747E-01            NaN
         13   -1    0    0    0    0  0.00000000000E+00  0.00000000000E+00  0.74505805969E-08  0.10566000000E+00  0.10566000000E+00 0. -1.
     999900   -1    0    0    0    0 -0.00000000000E+00 -0.00000000000E+00 -0.74505805969E-08  0.93827000000E+00  0.93827000000E+00 0. -1.
     999902    2    1    2    0    0 -0.77422049184E-02 -0.57189533341E-02  0.95333930273E-02  0.10303825373E+01  0.10302934724E+01 0.  0.
     999903    2    3    3    0    0  0.89987273429E-01  0.59213660389E-01 -0.74492927742E-01  0.13862712356E+00  0.45434746047E-01 0.  0.
         14    1    1    2    0    0  0.77422049184E-02  0.57189533341E-02 -0.95333930273E-02  0.13547462746E-01  0.00000000000E+00 0.  1.
     999901    1    3    3    0    0 -0.97729478347E-01 -0.64932613723E-01  0.84026320769E-01  0.89175541369E+00  0.88000000000E+00 0.  1.
        -11    1    4    4    0    0  0.11538851815E-01  0.22263564732E-01 -0.35698304623E-01  0.43628448170E-01  0.51100000000E-03 0. -1.
         11    1    4    4    0    0  0.78448421614E-01  0.36950095657E-01 -0.38794623119E-01  0.94998675395E-01  0.51100000000E-03 0.  1.
</event>
<event>
 8    1  0.2825007E+004  0.1043930E+01  0.7957747E-01            NaN
         13   -1    0    0    0    0  0.00000000000E+00  0.00000000000E+00  0.74505805969E-08  0.10566000000E+00  0.10566000000E+00 0.  1.
     999900   -1    0    0    0    0 -0.00000000000E+00 -0.00000000000E+00 -0.74505805969E-08  0.93827000000E+00  0.93827000000E+00 0.  1.
     999902    2    1    2    0    0 -0.14280326693E-01 -0.80991497610E-02 -0.14896962081E-02  0.10274453662E+01  0.10273131155E+01 0.  0.
     999903    2    3    3    0    0  0.93484851684E-01  0.45351790763E-01 -0.75200749866E-01  0.13620821696E+00  0.45840191629E-01 0.  0.
         14    1    1    2    0    0  0.14280326693E-01  0.80991497610E-02  0.14896962081E-02  0.16484633818E-01  0.00000000000E+00 0.  1.
     999901    1    3    3    0    0 -0.10776517838E+00 -0.53450940524E-01  0.73711053658E-01  0.89123714922E+00  0.88000000000E+00 0.  1.
        -11    1    4    4    0    0  0.81057766301E-01  0.18314700469E-01 -0.48467656639E-01  0.96203765997E-01  0.51100000000E-03 0. -1.
         11    1    4    4    0    0  0.12427085382E-01  0.27037090295E-01 -0.26733093228E-01  0.40004450968E-01  0.51100000000E-03 0.  1.
</event>
<event>
 8    1  0.2825007E+004  0.1043930E+01  0.7957747E-01            NaN
         13   -1    0    0    0    0  0.00000000000E+00  0.00000000000E+00  0.74505805969E-08  0.10566000000E+00  0.10566000000E+00 0. -1.
     999900   -1    0    0    0    0 -0.00000000000E+00 -0.00000000000E+00 -0.74505805969E-08  0.93827000000E+00  0.93827000000E+00 0.  1.
     999902    2    1    2    0    0  0.62175361093E-02 -0.10903909438E-01  0.50683383619E-02  0.10303933442E+01  0.10303044224E+01 0.  0.
     999903    2    3    3    0    0 -0.62012172691E-01 -0.10268804237E+00  0.59309449343E-01  0.14133669903E+00  0.45476456577E-01 0.  0.
         14    1    1    2    0    0 -0.62175361093E-02  0.10903909438E-01 -0.50683383619E-02  0.13536655793E-01  0.00000000000E+00 0. -1.
     999901    1    3    3    0    0  0.68229708800E-01  0.91784132931E-01 -0.54241110981E-01  0.88905664518E+00  0.88000000000E+00 0.  1.
        -11    1    4    4    0    0 -0.40310178442E-01 -0.27950578838E-01  0.12898062985E-01  0.50722445655E-01  0.51100000000E-03 0.  1.
         11    1    4    4    0    0 -0.21701994249E-01 -0.74737463531E-01  0.46411386357E-01  0.90614253371E-01  0.51100000000E-03 0. -1.
</event>
<event>
 8    1  0.2825007E+004  0.1043930E+01  0.7957747E-01            NaN
         13   -1    0    0    0    0  0.00000000000E+00  0.00000000000E+00  0.74505805969E-08  0.10566000000E+00  0.10566000000E+00 0. -1.
     999900   -1    0    0    0    0 -0.00000000000E+00 -0.00000000000E+00 -0.74505805969E-08  0.93827000000E+00  0.93827000000E+00 0.  1.
     999902    2    1    2    0    0 -0.16307443207E-01  0.37441932820E-03  0.21422164447E-02  0.10274781920E+01  0.10273464718E+01 0.  0.
     999903    2    3    3    0    0  0.54853157336E-01  0.22525473193E-01 -0.11612195463E+00  0.13644457067E+00  0.40206301823E-01 0.  0.
         14    1    1    2    0    0  0.16307443207E-01 -0.37441932820E-03 -0.21422164447E-02  0.16451807957E-01  0.00000000000E+00 0. -1.
     999901    1    3    3    0    0 -0.71160600543E-01 -0.22151053865E-01  0.11826417107E+00  0.89103362137E+00  0.88000000000E+00 0. -1.
        -11    1    4    4    0    0  0.55084288935E-04  0.23954586004E-02 -0.42097664827E-01  0.42168895659E-01  0.51100000000E-03 0.  1.
         11    1    4    4    0    0  0.54798073048E-01  0.20130014593E-01 -0.74024289801E-01  0.94275675011E-01  0.51100000000E-03 0. -1.
</event>
<event>
 8    1  0.2825007E+004  0.1043930E+01  0.7957747E-01            NaN
         13   -1    0    0    0    0  0.00000000000E+00  0.00000000000E+00  0.74505805969E-08  0.10566000000E+00  0.10566000000E+00 0. -1.
     999900   -1    0    0    0    0 -0.00000000000E+00 -0.00000000000E+00 -0.74505805969E-08  0.93827000000E+00  0.93827000000E+00 0.  1.
     999902    2    1    2    0    0  0.55421817271E-02 -0.12849386769E-01  0.20343247420E-02  0.10297892435E+01  0.10296921506E+01 0.  0.
     999903    2    3    3    0    0  0.90003316662E-01 -0.93558181145E-01 -0.33106537918E-01  0.14137353387E+00  0.45129845514E-01 0.  0.
         14    1    1    2    0    0 -0.55421817271E-02  0.12849386769E-01 -0.20343247420E-02  0.14140756549E-01  0.00000000000E+00 0. -1.
     999901    1    3    3    0    0 -0.84461134935E-01  0.80708794376E-01  0.35140862660E-01  0.88841570958E+00  0.88000000000E+00 0. -1.
        -11    1    4    4    0    0  0.88110478148E-01 -0.77994878721E-01 -0.17006868671E-01  0.11889555151E+00  0.51100000000E-03 0.  1.
         11    1    4    4    0    0  0.18928385140E-02 -0.15563302424E-01 -0.16099669247E-01  0.22477982357E-01  0.51100000000E-03 0. -1.
</event>
<event>
 8    1  0.2825007E+004  0.1043930E+01  0.7957747E-01            NaN
         13   -1    0    0    0    0  0.00000000000E+00  0.00000000000E+00  0.74505805969E-08  0.10566000000E+00  0.10566000000E+00 0.  1.
     999900   -1    0    0    0    0 -0.00000000000E+00 -0.00000000000E+00 -0.74505805969E-08  0.93827000000E+00  0.93827000000E+00 0. -1.
     999902    2    1    2    0    0 -0.19320702746E-02 -0.10933932262E-01  0.61290219276E-02  0.10312473867E+01  0.10311693963E+01 0.  0.
     999903    2    3    3    0    0  0.21848844449E-01 -0.64333902896E-01 -0.11512132179E+00  0.14101217362E+00  0.44891996061E-01 0.  0.
         14    1    1    2    0    0  0.19320702746E-02  0.10933932262E-01 -0.61290219276E-02  0.12682613297E-01  0.00000000000E+00 0.  1.
     999901    1    3    3    0    0 -0.23780914724E-01  0.53399970635E-01  0.12125034372E+00  0.89023521309E+00  0.88000000000E+00 0.  1.
        -11    1    4    4    0    0  0.27032470766E-01 -0.16046121735E-01 -0.32823788397E-01  0.45452114409E-01  0.51100000000E-03 0. -1.
         11    1    4    4    0    0 -0.51836263173E-02 -0.48287781161E-01 -0.82297533397E-01  0.95560059206E-01  0.51100000000E-03 0.  1.
</event>
<event>
 8    1  0.2825007E+004  0.1043930E+01  0.7957747E-01            NaN
         13   -1    0    0    0    0  0.00000000000E+00  0.00000000000E+00  0.74505805969E-08  0.10566000000E+00  0.10566000000E+00 0.  1.
     999900   -1    0    0    0    0 -0.00000000000E+00 -0.00000000000E+00 -0.74505805969E-08  0.93827000000E+00  0.93827000000E+00 0.  1.
     999902    2    1    2    0    0 -0.12685460720E-01 -0.56950355676E-02  0.50133377199E-02  0.10291486638E+01  0.10290425085E+01 0.  0.
     999903    2    3    3    0    0 -0.10864412952E+00  0.48593857884E-01  0.59337189163E-01  0.14060691979E+00  0.45656258853E-01 0.  0.
         14    1    1    2    0    0  0.12685460720E-01  0.56950355676E-02 -0.50133377199E-02  0.14781336167E-01  0.00000000000E+00 0. -1.
     999901    1    3    3    0    0  0.95958668799E-01 -0.54288893452E-01 -0.54323851443E-01  0.88854174404E+00  0.88000000000E+00 0.  1.
        -11    1    4    4    0    0 -0.33365102191E-01 -0.67147504438E-02  0.14724242548E-01  0.37086147783E-01  0.51100000000E-03 0.  1.
         11    1    4    4    0    0 -0.75279027327E-01  0.55308608328E-01  0.44612946615E-01  0.10352077201E+00  0.51100000000E-03 0. -1.
</event>
<event>
 8    1  0.2825007E+004  0.1043930E+01  0.7957747E-01            NaN
         13   -1    0    0    0    0  0.00000000000E+00  0.00000000000E+00  0.74505805969E-08  0.10566000000E+00  0.10566000000E+00 0.  1.
     999900   -1    0    0    0    0 -0.00000000000E+00 -0.00000000000E+00 -0.74505805969E-08  0.93827000000E+00  0.93827000000E+00 0. -1.
     999902    2    1    2    0    0 -0.55874974358E-02 -0.70121127369E-02 -0.10493034584E-01  0.10301280571E+01  0.10300355918E+01 0.  0.
     999903    2    3    3    0    0 -0.10842294591E-01  0.55124091996E-01  0.11812358309E+00  0.13859524495E+00  0.45817465761E-01 0.  0.
         14    1    1    2    0    0  0.55874974358E-02  0.70121127369E-02  0.10493034584E-01  0.13801942885E-01  0.00000000000E+00 0.  1.
     999901    1    3    3    0    0  0.52547971547E-02 -0.62136204733E-01 -0.12861661768E+00  0.89153281217E+00  0.88000000000E+00 0. -1.
        -11    1    4    4    0    0 -0.17144367541E-01  0.34146148186E-01  0.10780521013E+00  0.11437706600E+00  0.51100000000E-03 0.  1.
         11    1    4    4    0    0  0.63020729510E-02  0.20977943810E-01  0.10318372964E-01  0.24218178949E-01  0.51100000000E-03 0. -1.
</event>
<event>
 8    1  0.2825007E+004  0.1043930E+01  0.7957747E-01            NaN
         13   -1    0    0    0    0  0.00000000000E+00  0.00000000000E+00  0.74505805969E-08  0.10566000000E+00  0.10566000000E+00 0.  1.
     999900   -1    0    0    0    0 -0.00000000000E+00 -0.00000000000E+00 -0.74505805969E-08  0.93827000000E+00  0.93827000000E+00 0.  1.
     999902    2    1    2    0    0 -0.11329638633E-01 -0.15012348698E-02 -0.55665616704E-02  0.10312177608E+01  0.10311394033E+01 0.  0.
     999903    2    3    3    0    0  0.68186236655E-04  0.78330068492E-01 -0.10679380923E+00  0.14175168324E+00  0.50527395862E-01 0.  0.
         14    1    1    2    0    0  0.11329638633E-01  0.15012348698E-02  0.55665616704E-02  0.12712239241E-01  0.00000000000E+00 0. -1.
     999901    1    3    3    0    0 -0.11397824869E-01 -0.79831303362E-01  0.10122724756E+00  0.88946607752E+00  0.88000000000E+00 0. -1.
        -11    1    4    4    0    0  0.24116134968E-01  0.47682192932E-01 -0.52368712218E-01  0.74819266429E-01  0.51100000000E-03 0.  1.
         11    1    4    4    0    0 -0.24047948732E-01  0.30647875560E-01 -0.54425097011E-01  0.66932416812E-01  0.51100000000E-03 0. -1.
</event>
<event>
 8    1  0.2825007E+004  0.1043930E+01  0.7957747E-01            NaN
         13   -1    0    0    0    0  0.00000000000E+00  0.00000000000E+00  0.74505805969E-08  0.10566000000E+00  0.10566000000E+00 0.  1.
     999900   -1    0    0    0    0 -0.00000000000E+00 -0.00000000000E+00 -0.74505805969E-08  0.93827000000E+00  0.93827000000E+00 0. -1.
     999902    2    1    2    0    0  0.10517169355E-01 -0.60264406527E-02  0.70163080853E-02  0.10299243791E+01  0.10298291456E+01 0.  0.
     999903    2    3    3    0    0  0.10707966377E+00  0.68555147885E-01 -0.38740211799E-01  0.14032874747E+00  0.45005451457E-01 0.  0.
         14    1    1    2    0    0 -0.10517169355E-01  0.60264406527E-02 -0.70163080853E-02  0.14005620919E-01  0.00000000000E+00 0. -1.
     999901    1    3    3    0    0 -0.96562494414E-01 -0.74581588538E-01  0.45756519884E-01  0.88959563161E+00  0.88000000000E+00 0. -1.
        -11    1    4    4    0    0  0.48640746040E-01  0.56481003099E-02 -0.15734329350E-01  0.51435915988E-01  0.51100000000E-03 0. -1.
         11    1    4    4    0    0  0.58438917729E-01  0.62907047575E-01 -0.23005882449E-01  0.88892831478E-01  0.51100000000E-03 0.  1.
</event>
<event>
 8    1  0.2825007E+004  0.1043930E+01  0.7957747E-01            NaN
         13   -1    0    0    0    0  0.00000000000E+00  0.00000000000E+00  0.74505805969E-08  0.10566000000E+00  0.10566000000E+00 0. -1.
     999900   -1    0    0    0    0 -0.00000000000E+00 -0.00000000000E+00 -0.74505805969E-08  0.93827000000E+00  0.93827000000E+00 0. -1.
     999902    2    1    2    0    0 -0.12844231461E-01  0.35723353120E-02  0.14814721368E-02  0.10305161780E+01  0.10304288731E+01 0.  0.
     999903    2    3    3    0    0 -0.40773102593E-01  0.12747787335E+00  0.12604942042E-01  0.14132759518E+00  0.43606771334E-01 0.  0.
         14    1    1    2    0    0  0.12844231461E-01 -0.35723353120E-02 -0.14814721368E-02  0.13413822017E-01  0.00000000000E+00 0.  1.
     999901    1    3    3    0    0  0.27928871132E-01 -0.12390553804E+00 -0.11123469905E-01  0.88918858280E+00  0.88000000000E+00 0.  1.
        -11    1    4    4    0    0 -0.44424838945E-01  0.10882771667E+00 -0.16615664960E-02  0.11755875193E+00  0.51100000000E-03 0.  1.
         11    1    4    4    0    0  0.36517363519E-02  0.18650156685E-01  0.14266508538E-01  0.23768843254E-01  0.51100000000E-03 0. -1.
</event>
<event>
 8    1  0.2825007E+004  0.1043930E+01  0.7957747E-01            NaN
         13   -1    0    0    0    0  0.00000000000E+00  0.00000000000E+00  0.74505805969E-08  0.10566000000E+00  0.10566000000E+00 0.  1.
     999900   -1    0    0    0    0 -0.00000000000E+00 -0.00000000000E+00 -0.74505805969E-08  0.93827000000E+00  0.93827000000E+00 0. -1.
     999902    2    1    2    0    0  0.54518897576E-02  0.11447318232E-01  0.46302382753E-02  0.10304317296E+01  0.10303433147E+01 0.  0.
     999903    2    3    3    0    0 -0.44885945398E-01  0.90528049310E-01  0.88427097749E-01  0.14149440150E+00  0.44623292497E-01 0.  0.
         14    1    1    2    0    0 -0.54518897576E-02 -0.11447318232E-01 -0.46302382753E-02  0.13498270376E-01  0.00000000000E+00 0. -1.
     999901    1    3    3    0    0  0.50337835155E-01 -0.79080731078E-01 -0.83796859474E-01  0.88893732812E+00  0.88000000000E+00 0.  1.
        -11    1    4    4    0    0 -0.20171230830E-01  0.76073810747E-01  0.78569752303E-01  0.11120957842E+00  0.51100000000E-03 0.  1.
         11    1    4    4    0    0 -0.24714714568E-01  0.14454238563E-01  0.98573454461E-02  0.30284823078E-01  0.51100000000E-03 0. -1.
</event>
<event>
 7    1  0.2825007E+004  0.1043930E+01  0.7957747E-01            NaN
         13   -1    0    0    0    0  0.00000000000E+00  0.00000000000E+00  0.74505805969E-08  0.10566000000E+00  0.10566000000E+00 0. -1.
     999900   -1    0    0    0    0 -0.00000000000E+00 -0.00000000000E+00 -0.74505805969E-08  0.93827000000E+00  0.93827000000E+00 0.  1.
     999903    2    1    2    0    0  0.42491290168E-01  0.66181306234E-01  0.84561600098E-01  0.12379403350E+00  0.44596227254E-01 0.  0.
         14    1    1    2    0    0 -0.91353494147E-02 -0.32605507892E-01 -0.11829475480E-01  0.35867955670E-01  0.00000000000E+00 0. -1.
     999901    1    1    2    0    0 -0.33355940753E-01 -0.33575798343E-01 -0.72732124618E-01  0.88426801083E+00  0.88000000000E+00 0. -1.
        -11    1    3    3    0    0  0.34809730278E-01  0.64495392040E-01  0.50925670654E-01  0.89247173451E-01  0.51100000000E-03 0.  1.
         11    1    3    3    0    0  0.76815598896E-02  0.16859141941E-02  0.33635929444E-01  0.34546860054E-01  0.51100000000E-03 0. -1.
</event>
<event>
 8    1  0.2825007E+004  0.1043930E+01  0.7957747E-01            NaN
         13   -1    0    0    0    0  0.00000000000E+00  0.00000000000E+00  0.74505805969E-08  0.10566000000E+00  0.10566000000E+00 0. -1.
     999900   -1    0    0    0    0 -0.00000000000E+00 -0.00000000000E+00 -0.74505805969E-08  0.93827000000E+00  0.93827000000E+00 0.  1.
     999902    2    1    2    0    0  0.44454918041E-02  0.11720229440E-01 -0.51224018424E-02  0.10303887602E+01  0.10302997777E+01 0.  0.
     999903    2    3    3    0    0  0.11436491785E+00 -0.16470171759E-01 -0.67918400502E-01  0.14088310173E+00  0.43411268518E-01 0.  0.
         14    1    1    2    0    0 -0.44454918041E-02 -0.11720229440E-01  0.51224018424E-02  0.13541239830E-01  0.00000000000E+00 0. -1.
     999901    1    3    3    0    0 -0.10991942605E+00  0.28190401198E-01  0.62795998660E-01  0.88950565844E+00  0.88000000000E+00 0. -1.
        -11    1    4    4    0    0  0.81305129229E-01 -0.22729903444E-01 -0.28614668925E-01  0.89141645420E-01  0.51100000000E-03 0.  1.
         11    1    4    4    0    0  0.33059788623E-01  0.62597316855E-02 -0.39303731577E-01  0.51741456314E-01  0.51100000000E-03 0. -1.
</event>
<event>
 8    1  0.2825007E+004  0.1043930E+01  0.7957747E-01            NaN
         13   -1    0    0    0    0  0.00000000000E+00  0.00000000000E+00  0.74505805969E-08  0.10566000000E+00  0.10566000000E+00 0. -1.
     999900   -1    0    0    0    0 -0.00000000000E+00 -0.00000000000E+00 -0.74505805969E-08  0.93827000000E+00  0.93827000000E+00 0.  1.
     999902    2    1    2    0    0 -0.36699974366E-02 -0.49951523943E-02 -0.13408254385E-01  0.10291583476E+01  0.10290523324E+01 0.  0.
     999903    2    3    3    0    0  0.71812310248E-02  0.80681572413E-01  0.10149836592E+00  0.13749597781E+00  0.45190036765E-01 0.  0.
         14    1    1    2    0    0  0.36699974366E-02  0.49951523943E-02  0.13408254385E-01  0.14771652388E-01  0.00000000000E+00 0. -1.
     999901    1    3    3    0    0 -0.10851228461E-01 -0.85676724808E-01 -0.11490662031E+00  0.89166236980E+00  0.88000000000E+00 0.  1.
        -11    1    4    4    0    0 -0.14795082221E-01  0.61446503668E-01  0.74746541622E-01  0.97887046520E-01  0.51100000000E-03 0. -1.
         11    1    4    4    0    0  0.21976313246E-01  0.19235068745E-01  0.26751824299E-01  0.39608931289E-01  0.51100000000E-03 0.  1.
</event>
<event>
 8    1  0.2825007E+004  0.1043930E+01  0.7957747E-01            NaN
         13   -1    0    0    0    0  0.00000000000E+00  0.00000000000E+00  0.74505805969E-08  0.10566000000E+00  0.10566000000E+00 0.  1.
     999900   -1    0    0    0    0 -0.00000000000E+00 -0.00000000000E+00 -0.74505805969E-08  0.93827000000E+00  0.93827000000E+00 0. -1.
     999902    2    1    2    0    0 -0.37953484224E-02  0.28089692478E-02 -0.11753818890E-01  0.10312632231E+01  0.10311854286E+01 0.  0.
     999903    2    3    3    0    0 -0.74114279977E-02  0.13360595125E+00  0.40725044998E-02  0.14144784955E+00  0.45666501687E-01 0.  0.
         14    1    1    2    0    0  0.37953484224E-02 -0.28089692478E-02  0.11753818890E-01  0.12666776874E-01  0.00000000000E+00 0.  1.
     999901    1    3    3    0    0  0.36160795753E-02 -0.13079698200E+00 -0.15826323389E-01  0.88981537357E+00  0.88000000000E+00 0.  1.
        -11    1    4    4    0    0  0.11376562100E-01  0.10106816640E+00  0.13783045658E-01  0.10263739033E+00  0.51100000000E-03 0.  1.
         11    1    4    4    0    0 -0.18787990097E-01  0.32537784851E-01 -0.97105411577E-02  0.38810459228E-01  0.51100000000E-03 0. -1.
</event>
<event>
 8    1  0.2825007E+004  0.1043930E+01  0.7957747E-01            NaN
         13   -1    0    0    0    0  0.00000000000E+00  0.00000000000E+00  0.74505805969E-08  0.10566000000E+00  0.10566000000E+00 0.  1.
     999900   -1    0    0    0    0 -0.00000000000E+00 -0.00000000000E+00 -0.74505805969E-08  0.93827000000E+00  0.93827000000E+00 0.  1.
     999902    2    1    2    0    0 -0.76857077546E-02 -0.55809386771E-02  0.92744726858E-02  0.10306547289E+01  0.10305692297E+01 0.  0.
     999903    2    3    3    0    0  0.91902553895E-01  0.65435024770E-02 -0.94210466707E-01  0.13892945917E+00  0.44010064190E-01 0.  0.
         14    1    1    2    0    0  0.76857077546E-02  0.55809386771E-02 -0.92744726858E-02  0.13275271139E-01  0.00000000000E+00 0.  1.
     999901    1    3    3    0    0 -0.99588261649E-01 -0.12124441154E-01  0.10348493939E+00  0.89172526970E+00  0.88000000000E+00 0. -1.
        -11    1    4    4    0    0  0.66313983293E-01 -0.12541026251E-01 -0.77927341227E-01  0.10309099549E+00  0.51100000000E-03 0.  1.
         11    1    4    4    0    0  0.25588570601E-01  0.19084528728E-01 -0.16283125481E-01  0.35838463675E-01  0.51100000000E-03 0. -1.
</event>
<event>
 8    1  0.2825007E+004  0.1043930E+01  0.7957747E-01            NaN
         13   -1    0    0    0    0  0.00000000000E+00  0.00000000000E+00  0.74505805969E-08  0.10566000000E+00  0.10566000000E+00 0.  1.
     999900   -1    0    0    0    0 -0.00000000000E+00 -0.00000000000E+00 -0.74505805969E-08  0.93827000000E+00  0.93827000000E+00 0.  1.
     999902    2    1    2    0    0  0.12628652485E-01 -0.35154382454E-02 -0.34055043817E-02  0.10303860482E+01  0.10302970299E+01 0.  0.
     999903    2    3    3    0    0 -0.51351733398E-01 -0.11896652926E+00 -0.23660491429E-01  0.14031149590E+00  0.48347300009E-01 0.  0.
         14    1    1    2    0    0 -0.12628652485E-01  0.35154382454E-02  0.34055043817E-02  0.13543951777E-01  0.00000000000E+00 0. -1.
     999901    1    3    3    0    0  0.63980385883E-01  0.11545109102E+00  0.20254987047E-01  0.89007455232E+00  0.88000000000E+00 0. -1.
        -11    1    4    4    0    0 -0.37612128069E-01 -0.63762935467E-01  0.92195674658E-02  0.74603255040E-01  0.51100000000E-03 0.  1.
         11    1    4    4    0    0 -0.13739605329E-01 -0.55203593798E-01 -0.32880058894E-01  0.65708240858E-01  0.51100000000E-03 0. -1.
</event>
<event>
 8    1  0.2825007E+004  0.1043930E+01  0.7957747E-01            NaN
         13   -1    0    0    0    0  0.00000000000E+00  0.00000000000E+00  0.74505805969E-08  0.10566000000E+00  0.10566000000E+00 0.  1.
     999900   -1    0    0    0    0 -0.00000000000E+00 -0.00000000000E+00 -0.74505805969E-08  0.93827000000E+00  0.93827000000E+00 0. -1.
     999902    2    1    2    0    0 -0.56454710675E-02 -0.11894183656E-01  0.90322439901E-03  0.10307330775E+01  0.10306485911E+01 0.  0.
     999903    2    3    3    0    0 -0.11661586788E+00 -0.42821453169E-02  0.65857132379E-01  0.14135611456E+00  0.45019904800E-01 0.  0.
         14    1    1    2    0    0  0.56454710675E-02  0.11894183656E-01 -0.90322439901E-03  0.13196922472E-01  0.00000000000E+00 0.  1.
     999901    1    3    3    0    0  0.11097039681E+00 -0.76120383394E-02 -0.64953907980E-01  0.88937696297E+00  0.88000000000E+00 0.  1.
        -11    1    4    4    0    0 -0.52319238961E-01  0.18043117847E-01  0.18180639713E-01  0.58255074015E-01  0.51100000000E-03 0. -1.
         11    1    4    4    0    0 -0.64296628919E-01 -0.22325263164E-01  0.47676492666E-01  0.83101040545E-01  0.51100000000E-03 0.  1.
</event>
<event>
 8    1  0.2825007E+004  0.1043930E+01  0.7957747E-01            NaN
         13   -1    0    0    0    0  0.00000000000E+00  0.00000000000E+00  0.74505805969E-08  0.10566000000E+00  0.10566000000E+00 0.  1.
     999900   -1    0    0    0    0 -0.00000000000E+00 -0.00000000000E+00 -0.74505805969E-08  0.93827000000E+00  0.93827000000E+00 0. -1.
     999902    2    1    2    0    0 -0.61450577197E-02 -0.10173007641E-01 -0.11756663982E-01  0.10272126148E+01  0.10270765722E+01 0.  0.
     999903    2    3    3    0    0 -0.75256426473E-01 -0.10365720934E+00 -0.31608850505E-01  0.13934450156E+00  0.44826598246E-01 0.  0.
         14    1    1    2    0    0  0.61450577197E-02  0.10173007641E-01  0.11756663982E-01  0.16717385167E-01  0.00000000000E+00 0.  1.
     999901    1    3    3    0    0  0.69111368753E-01  0.93484201702E-01  0.19852186524E-01  0.88786811327E+00  0.88000000000E+00 0.  1.
        -11    1    4    4    0    0 -0.46173163408E-01 -0.94447962225E-01 -0.26355837626E-01  0.10838482313E+00  0.51100000000E-03 0. -1.
         11    1    4    4    0    0 -0.29083263065E-01 -0.92092471180E-02 -0.52530128792E-02  0.30959678427E-01  0.51100000000E-03 0.  1.
</event>
<event>
 8    1  0.2825007E+004  0.1043930E+01  0.7957747E-01            NaN
         13   -1    0    0    0    0  0.00000000000E+00  0.00000000000E+00  0.74505805969E-08  0.10566000000E+00  0.10566000000E+00 0. -1.
     999900   -1    0    0    0    0 -0.00000000000E+00 -0.00000000000E+00 -0.74505805969E-08  0.93827000000E+00  0.93827000000E+00 0.  1.
     999902    2    1    2    0    0 -0.20995098489E-02  0.93906092103E-02 -0.99710761104E-02  0.10300730941E+01  0.10299798859E+01 0.  0.
     999903    2    3    3    0    0  0.53347948411E-01  0.68248892545E-01  0.99716942897E-01  0.13958436329E+00  0.45126609016E-01 0.  0.
         14    1    1    2    0    0  0.20995098489E-02 -0.93906092103E-02  0.99710761104E-02  0.13856905923E-01  0.00000000000E+00 0. -1.
     999901    1    3    3    0    0 -0.55447458260E-01 -0.58858283335E-01 -0.10968801901E+00  0.89048873079E+00  0.88000000000E+00 0.  1.
        -11    1    4    4    0    0  0.61365683544E-01  0.56985319278E-01  0.87644939889E-01  0.12122281278E+00  0.51100000000E-03 0.  1.
         11    1    4    4    0    0 -0.80177351330E-02  0.11263573267E-01  0.12072003008E-01  0.18361550507E-01  0.51100000000E-03 0. -1.
</event>
<event>
 8    1  0.2825007E+004  0.1043930E+01  0.7957747E-01            NaN
         13   -1    0    0    0    0  0.00000000000E+00  0.00000000000E+00  0.74505805969E-08  0.10566000000E+00  0.10566000000E+00 0.  1.
     999900   -1    0    0    0    0 -0.00000000000E+00 -0.00000000000E+00 -0.74505805969E-08  0.93827000000E+00  0.93827000000E+00 0. -1.
     999902    2    1    2    0    0  0.13100525132E-01 -0.10210393150E-01  0.29577218900E-02  0.10270591966E+01  0.10269206247E+01 0.  0.
     999903    2    3    3    0    0  0.39440783577E-01  0.67029148444E-01  0.10593711380E+00  0.13730388693E+00  0.39764345037E-01 0.  0.
         14    1    1    2    0    0 -0.13100525132E-01  0.10210393150E-01 -0.29577218900E-02  0.16870803354E-01  0.00000000000E+00 0.  1.
     999901    1    3    3    0    0 -0.26340258445E-01 -0.77239541594E-01 -0.10297939191E+00  0.88975530971E+00  0.88000000000E+00 0. -1.
        -11    1    4    4    0    0  0.24257089178E-01  0.10442128832E-01  0.48663204100E-01  0.55369784036E-01  0.51100000000E-03 0.  1.
         11    1    4    4    0    0  0.15183694399E-01  0.56587019612E-01  0.57273909703E-01  0.81934102899E-01  0.51100000000E-03 0. -1.
</event>
<event>
 8    1  0.2825007E+004  0.1043930E+01  0.7957747E-01            NaN
         13   -1    0    0    0    0  0.00000000000E+00  0.00000000000E+00  0.74505805969E-08  0.10566000000E+00  0.10566000000E+00 0. -1.
     999900   -1    0    0    0    0 -0.00000000000E+00 -0.00000000000E+00 -0.74505805969E-08  0.93827000000E+00  0.93827000000E+00 0.  1.
     999902    2    1    2    0    0  0.39521533563E-02  0.12618496943E-01  0.49155887696E-02  0.10298229452E+01  0.10297263178E+01 0.  0.
     999903    2    3    3    0    0 -0.88781179566E-01  0.80893604497E-01  0.53763402028E-01  0.14097702484E+00  0.50578108311E-01 0.  0.
         14    1    1    2    0    0 -0.39521533563E-02 -0.12618496943E-01 -0.49155887696E-02  0.14107054767E-01  0.00000000000E+00 0. -1.
     999901    1    3    3    0    0  0.92733332922E-01 -0.68275107554E-01 -0.48847813259E-01  0.88884592040E+00  0.88000000000E+00 0. -1.
        -11    1    4    4    0    0 -0.34535502697E-01  0.33144892783E-02  0.22186757535E-01  0.41184950123E-01  0.51100000000E-03 0.  1.
         11    1    4    4    0    0 -0.54245676869E-01  0.77579115218E-01  0.31576644493E-01  0.99792074713E-01  0.51100000000E-03 0. -1.
</event>
<event>
 8    1  0.2825007E+004  0.1043930E+01  0.7957747E-01            NaN
         13   -1    0    0    0    0  0.00000000000E+00  0.00000000000E+00  0.74505805969E-08  0.10566000000E+00  0.10566000000E+00 0.  1.
     999900   -1    0    0    0    0 -0.00000000000E+00 -0.00000000000E+00 -0.74505805969E-08  0.93827000000E+00  0.93827000000E+00 0.  1.
     999902    2    1    2    0    0 -0.34763554261E-02 -0.13799288040E-01  0.13762719526E-01  0.10241330849E+01  0.10239417258E+01 0.  0.
     999903    2    3    3    0    0  0.63350789987E-02 -0.75347052592E-01 -0.10156030827E+00  0.13442313652E+00  0.45141686452E-01 0.  0.
         14    1    1    2    0    0  0.34763554261E-02  0.13799288040E-01 -0.13762719526E-01  0.19796915068E-01  0.00000000000E+00 0. -1.
     999901    1    3    3    0    0 -0.98114344248E-02  0.61547764553E-01  0.11532302779E+00  0.88970994841E+00  0.88000000000E+00 0. -1.
        -11    1    4    4    0    0  0.23415267600E-01 -0.54923326986E-01 -0.57212340022E-01  0.82694374511E-01  0.51100000000E-03 0.  1.
         11    1    4    4    0    0 -0.17080188601E-01 -0.20423725606E-01 -0.44347968246E-01  0.51728762008E-01  0.51100000000E-03 0. -1.
</event>
<event>
 8    1  0.2825007E+004  0.1043930E+01  0.7957747E-01            NaN
         13   -1    0    0    0    0  0.00000000000E+00  0.00000000000E+00  0.74505805969E-08  0.10566000000E+00  0.10566000000E+00 0. -1.
     999900   -1    0    0    0    0 -0.00000000000E+00 -0.00000000000E+00 -0.74505805969E-08  0.93827000000E+00  0.93827000000E+00 0. -1.
     999902    2    1    2    0    0  0.78056846820E-02  0.10147873887E-01  0.61074470185E-02  0.10297451853E+01  0.10296474823E+01 0.  0.
     999903    2    3    3    0    0  0.73643361564E-01 -0.85822904695E-02  0.11088458582E+00  0.14088992853E+00  0.45360557491E-01 0.  0.
         14    1    1    2    0    0 -0.78056846820E-02 -0.10147873887E-01 -0.61074470185E-02  0.14184814657E-01  0.00000000000E+00 0. -1.
     999901    1    3    3    0    0 -0.65837676882E-01  0.18730164356E-01 -0.10477713880E+00  0.88885525682E+00  0.88000000000E+00 0. -1.
        -11    1    4    4    0    0  0.16065448186E-02  0.44073569354E-02  0.35503279317E-01  0.35815495873E-01  0.51100000000E-03 0.  1.
         11    1    4    4    0    0  0.72036816745E-01 -0.12989647405E-01  0.75381306503E-01  0.10507443265E+00  0.51100000000E-03 0. -1.
</event>
<event>
 8    1  0.2825007E+004  0.1043930E+01  0.7957747E-01            NaN
         13   -1    0    0    0    0  0.00000000000E+00  0.00000000000E+00  0.74505805969E-08  0.10566000000E+00  0.10566000000E+00 0.  1.
     999900   -1    0    0    0    0 -0.00000000000E+00 -0.00000000000E+00 -0.74505805969E-08  0.93827000000E+00  0.93827000000E+00 0. -1.
     999902    2    1    2    0    0  0.59228806981E-02  0.48604303953E-02  0.11550112921E-01  0.10300696462E+01  0.10299763913E+01 0.  0.
     999903    2    3    3    0    0  0.10442571203E+00 -0.60662152594E-01 -0.53385711064E-01  0.13978167148E+00  0.45872164187E-01 0.  0.
         14    1    1    2    0    0 -0.59228806981E-02 -0.48604303953E-02 -0.11550112921E-01  0.13860353815E-01  0.00000000000E+00 0. -1.
     999901    1    3    3    0    0 -0.98502831329E-01  0.65522582989E-01  0.64935823985E-01  0.89028797470E+00  0.88000000000E+00 0.  1.
        -11    1    4    4    0    0  0.89812575702E-01 -0.34735807249E-01 -0.53200683890E-01  0.11001567591E+00  0.51100000000E-03 0. -1.
         11    1    4    4    0    0  0.14613136326E-01 -0.25926345345E-01 -0.18502717366E-03  0.29765995570E-01  0.51100000000E-03 0.  1.
</event>
<event>
 8    1  0.2825007E+004  0.1043930E+01  0.7957747E-01            NaN
         13   -1    0    0    0    0  0.00000000000E+00  0.00000000000E+00  0.74505805969E-08  0.10566000000E+00  0.10566000000E+00 0. -1.
     999900   -1    0    0    0    0 -0.00000000000E+00 -0.00000000000E+00 -0.74505805969E-08  0.93827000000E+00  0.93827000000E+00 0.  1.
     999902    2    1    2    0    0 -0.13554672912E-01 -0.86568245747E-02 -0.35593547217E-02  0.10274576360E+01  0.10273255837E+01 0.  0.
     999903    2    3    3    0    0  0.12376112308E+00  0.31314621395E-01 -0.10793677400E-01  0.13588280474E+00  0.45279267363E-01 0.  0.
         14    1    1    2    0    0  0.13554672912E-01  0.86568245747E-02  0.35593547217E-02  0.16472363992E-01  0.00000000000E+00 0. -1.
     999901    1    3    3    0    0 -0.13731579599E+00 -0.39971445970E-01  0.72343226784E-02  0.89157483127E+00  0.88000000000E+00 0.  1.
        -11    1    4    4    0    0  0.63665451765E-01  0.29870657926E-02  0.13481088602E-01  0.65147626061E-01  0.51100000000E-03 0.  1.
         11    1    4    4    0    0  0.60095671317E-01  0.28327555603E-01 -0.24274766002E-01  0.70735178681E-01  0.51100000000E-03 0. -1.
</event>
<event>
 8    1  0.2825007E+004  0.1043930E+01  0.7957747E-01            NaN
         13   -1    0    0    0    0  0.00000000000E+00  0.00000000000E+00  0.74505805969E-08  0.10566000000E+00  0.10566000000E+00 0. -1.
     999900   -1    0    0    0    0 -0.00000000000E+00 -0.00000000000E+00 -0.74505805969E-08  0.93827000000E+00  0.93827000000E+00 0.  1.
     999902    2    1    2    0    0  0.13236199740E-01 -0.33566888314E-02 -0.20022207581E-02  0.10301287960E+01  0.10300363407E+01 0.  0.
     999903    2    3    3    0    0  0.30439597771E-01  0.12553192801E+00  0.30270837615E-01  0.13998847969E+00  0.44672326716E-01 0.  0.
         14    1    1    2    0    0 -0.13236199740E-01  0.33566888314E-02  0.20022207581E-02  0.13801203985E-01  0.00000000000E+00 0. -1.
     999901    1    3    3    0    0 -0.17203398031E-01 -0.12888861684E+00 -0.32273058373E-01  0.89014031633E+00  0.88000000000E+00 0.  1.
        -11    1    4    4    0    0 -0.11473029520E-02  0.41350720692E-01 -0.82267202105E-02  0.42179834663E-01  0.51100000000E-03 0.  1.
         11    1    4    4    0    0  0.31586900723E-01  0.84181207314E-01  0.38497557825E-01  0.97808645025E-01  0.51100000000E-03 0. -1.
</event>
<event>
 8    1  0.2825007E+004  0.1043930E+01  0.7957747E-01            NaN
         13   -1    0    0    0    0  0.00000000000E+00  0.00000000000E+00  0.74505805969E-08  0.10566000000E+00  0.10566000000E+00 0.  1.
     999900   -1    0    0    0    0 -0.00000000000E+00 -0.00000000000E+00 -0.74505805969E-08  0.93827000000E+00  0.93827000000E+00 0. -1.
     999902    2    1    2    0    0  0.72370825168E-02 -0.21321206562E-01  0.49015932181E-02  0.10208866750E+01  0.10206265763E+01 0.  0.
     999903    2    3    3    0    0  0.19650273146E-01 -0.97803453539E-01 -0.77023571960E-01  0.13369145739E+00  0.44599623111E-01 0.  0.
         14    1    1    2    0    0 -0.72370825168E-02  0.21321206562E-01 -0.49015932181E-02  0.23043325036E-01  0.00000000000E+00 0. -1.
     999901    1    3    3    0    0 -0.12413190629E-01  0.76482246977E-01  0.81925165178E-01  0.88719521758E+00  0.88000000000E+00 0.  1.
        -11    1    4    4    0    0  0.38157716998E-02 -0.91166510373E-01 -0.58298559809E-01  0.10828146621E+00  0.51100000000E-03 0. -1.
         11    1    4    4    0    0  0.15834501446E-01 -0.66369431661E-02 -0.18725012151E-01  0.25409991179E-01  0.51100000000E-03 0.  1.
</event>
<event>
 8    1  0.2825007E+004  0.1043930E+01  0.7957747E-01            NaN
         13   -1    0    0    0    0  0.00000000000E+00  0.00000000000E+00  0.74505805969E-08  0.10566000000E+00  0.10566000000E+00 0. -1.
     999900   -1    0    0    0    0 -0.00000000000E+00 -0.00000000000E+00 -0.74505805969E-08  0.93827000000E+00  0.93827000000E+00 0. -1.
     999902    2    1    2    0    0 -0.11695258880E-01 -0.31970338562E-02 -0.75473406936E-02  0.10296484575E+01  0.10295494080E+01 0.  0.
     999903    2    3    3    0    0  0.10120064782E+00  0.42991088268E-01  0.69728995074E-01  0.13788029227E+00  0.45376617926E-01 0.  0.
         14    1    1    2    0    0  0.11695258880E-01  0.31970338562E-02  0.75473406936E-02  0.14281542539E-01  0.00000000000E+00 0. -1.
     999901    1    3    3    0    0 -0.11289590670E+00 -0.46188122125E-01 -0.77276335768E-01  0.89176816519E+00  0.88000000000E+00 0. -1.
        -11    1    4    4    0    0  0.50957612722E-01  0.40428405352E-01  0.55731109849E-01  0.85658344483E-01  0.51100000000E-03 0.  1.
         11    1    4    4    0    0  0.50243035093E-01  0.25626829162E-02  0.13997885225E-01  0.52221947789E-01  0.51100000000E-03 0. -1.
</event>
<event>
 8    1  0.2825007E+004  0.1043930E+01  0.7957747E-01            NaN
         13   -1    0    0    0    0  0.00000000000E+00  0.00000000000E+00  0.74505805969E-08  0.10566000000E+00  0.10566000000E+00 0. -1.
     999900   -1    0    0    0    0 -0.00000000000E+00 -0.00000000000E+00 -0.74505805969E-08  0.93827000000E+00  0.93827000000E+00 0. -1.
     999902    2    1    2    0    0  0.34605511967E-02 -0.78892294566E-03  0.13215469553E-01  0.10302461975E+01  0.10301553189E+01 0.  0.
     999903    2    3    3    0    0 -0.11880891150E+00 -0.27522217213E-01 -0.49452060963E-01  0.13918407294E+00  0.45317435220E-01 0.  0.
         14    1    1    2    0    0 -0.34605511967E-02  0.78892294566E-03 -0.13215469553E-01  0.13683802451E-01  0.00000000000E+00 0.  1.
     999901    1    3    3    0    0  0.12226946270E+00  0.26733294267E-01  0.62667530516E-01  0.89106212461E+00  0.88000000000E+00 0.  1.
        -11    1    4    4    0    0 -0.21242516530E-01 -0.18499839898E-01 -0.26212669654E-01  0.38481862691E-01  0.51100000000E-03 0. -1.
         11    1    4    4    0    0 -0.97566394970E-01 -0.90223773154E-02 -0.23239391308E-01  0.10070221025E+00  0.51100000000E-03 0.  1.
</event>
<event>
 8    1  0.2825007E+004  0.1043930E+01  0.7957747E-01            NaN
         13   -1    0    0    0    0  0.00000000000E+00  0.00000000000E+00  0.74505805969E-08  0.10566000000E+00  0.10566000000E+00 0.  1.
     999900   -1    0    0    0    0 -0.00000000000E+00 -0.00000000000E+00 -0.74505805969E-08  0.93827000000E+00  0.93827000000E+00 0. -1.
     999902    2    1    2    0    0 -0.77907201311E-02  0.72170638920E-02  0.13086838268E-01  0.10270763159E+01  0.10269380274E+01 0.  0.
     999903    2    3    3    0    0  0.10916848803E+00  0.47692964251E-01  0.51349212799E-01  0.13759232832E+00  0.45853348178E-01 0.  0.
         14    1    1    2    0    0  0.77907201311E-02 -0.72170638920E-02 -0.13086838268E-01  0.16853684085E-01  0.00000000000E+00 0. -1.
     999901    1    3    3    0    0 -0.11695920816E+00 -0.40475900359E-01 -0.38262374531E-01  0.88948398760E+00  0.88000000000E+00 0. -1.
        -11    1    4    4    0    0  0.82327133336E-01  0.25023216678E-01  0.55220553083E-01  0.10224230465E+00  0.51100000000E-03 0. -1.
         11    1    4    4    0    0  0.26841354695E-01  0.22669747572E-01 -0.38713402831E-02  0.35350023670E-01  0.51100000000E-03 0.  1.
</event>
<event>
 8    1  0.2825007E+004  0.1043930E+01  0.7957747E-01            NaN
         13   -1    0    0    0    0  0.00000000000E+00  0.00000000000E+00  0.74505805969E-08  0.10566000000E+00  0.10566000000E+00 0.  1.
     999900   -1    0    0    0    0 -0.00000000000E+00 -0.00000000000E+00 -0.74505805969E-08  0.93827000000E+00  0.93827000000E+00 0. -1.
     999902    2    1    2    0    0 -0.15535591417E-02  0.81143162131E-03  0.14514078576E-01  0.10293104773E+01  0.10292066499E+01 0.  0.
     999903    2    3    3    0    0  0.13029243873E+00 -0.24085761523E-01 -0.54944126337E-02  0.13891529699E+00  0.41364570227E-01 0.  0.
         14    1    1    2    0    0  0.15535591417E-02 -0.81143162131E-03 -0.14514078576E-01  0.14619522708E-01  0.00000000000E+00 0. -1.
     999901    1    3    3    0    0 -0.13184599787E+00  0.24897193144E-01  0.20008491210E-01  0.89039518030E+00  0.88000000000E+00 0.  1.
        -11    1    4    4    0    0  0.73398595276E-01 -0.21097151528E-01 -0.22215669811E-01  0.79537668418E-01  0.51100000000E-03 0. -1.
         11    1    4    4    0    0  0.56893843453E-01 -0.29886099948E-02  0.16721257177E-01  0.59377628575E-01  0.51100000000E-03 0.  1.
</event>
<event>
 8    1  0.2825007E+004  0.1043930E+01  0.7957747E-01            NaN
         13   -1    0    0    0    0  0.00000000000E+00  0.00000000000E+00  0.74505805969E-08  0.10566000000E+00  0.10566000000E+00 0. -1.
     999900   -1    0    0    0    0 -0.00000000000E+00 -0.00000000000E+00 -0.74505805969E-08  0.93827000000E+00  0.93827000000E+00 0. -1.
     999902    2    1    2    0    0  0.38899068205E-02  0.66394883913E-02 -0.11555751862E-01  0.10300465717E+01  0.10299530039E+01 0.  0.
     999903    2    3    3    0    0 -0.70160578900E-01  0.91222536700E-01  0.65328301108E-01  0.13956977573E+00  0.44360763507E-01 0.  0.
         14    1    1    2    0    0 -0.38899068205E-02 -0.66394883913E-02  0.11555751862E-01  0.13883428332E-01  0.00000000000E+00 0. -1.
     999901    1    3    3    0    0  0.74050485721E-01 -0.84583048308E-01 -0.76884052970E-01  0.89047679593E+00  0.88000000000E+00 0. -1.
        -11    1    4    4    0    0 -0.30337037071E-01  0.23315683415E-01  0.43376148370E-01  0.57842097816E-01  0.51100000000E-03 0. -1.
         11    1    4    4    0    0 -0.39823541829E-01  0.67906853285E-01  0.21952152738E-01  0.81727677917E-01  0.51100000000E-03 0.  1.
</event>
<event>
 8    1  0.2825007E+004  0.1043930E+01  0.7957747E-01            NaN
         13   -1    0    0    0    0  0.00000000000E+00  0.00000000000E+00  0.74505805969E-08  0.10566000000E+00  0.10566000000E+00 0.  1.
     999900   -1    0    0    0    0 -0.00000000000E+00 -0.00000000000E+00 -0.74505805969E-08  0.93827000000E+00  0.93827000000E+00 0.  1.
     999902    2    1    2    0    0  0.14187460628E-01  0.16779457301E-02 -0.67661104347E-02  0.10281224135E+01  0.10280008839E+01 0.  0.
     999903    2    3    3    0    0 -0.15893306842E-01  0.19483308304E-01 -0.12902493618E+00  0.13898288339E+00  0.45128829070E-01 0.  0.
         14    1    1    2    0    0 -0.14187460628E-01 -0.16779457301E-02  0.67661104347E-02  0.15807586512E-01  0.00000000000E+00 0. -1.
     999901    1    3    3    0    0  0.30080767470E-01 -0.17805362574E-01  0.12225882575E+00  0.88913953010E+00  0.88000000000E+00 0. -1.
        -11    1    4    4    0    0 -0.63587209181E-02 -0.14772397491E-01 -0.39066677418E-01  0.42250721471E-01  0.51100000000E-03 0. -1.
         11    1    4    4    0    0 -0.95345859241E-02  0.34255705795E-01 -0.89958258766E-01  0.96732161919E-01  0.51100000000E-03 0.  1.
</event>
<event>
 8    1  0.2825007E+004  0.1043930E+01  0.7957747E-01            NaN
         13   -1    0    0    0    0  0.00000000000E+00  0.00000000000E+00  0.74505805969E-08  0.10566000000E+00  0.10566000000E+00 0. -1.
     999900   -1    0    0    0    0 -0.00000000000E+00 -0.00000000000E+00 -0.74505805969E-08  0.93827000000E+00  0.93827000000E+00 0.  1.
     999902    2    1    2    0    0 -0.40892786617E-02  0.59598119950E-02 -0.97508256848E-02  0.10317924483E+01  0.10317210555E+01 0.  0.
     999903    2    3    3    0    0  0.67283190496E-01 -0.26074387586E-01  0.11136857428E+00  0.14005811102E+00  0.44793009653E-01 0.  0.
         14    1    1    2    0    0  0.40892786617E-02 -0.59598119950E-02  0.97508256848E-02  0.12137551669E-01  0.00000000000E+00 0. -1.
     999901    1    3    3    0    0 -0.71372469158E-01  0.32034199581E-01 -0.12111939996E+00  0.89173433731E+00  0.88000000000E+00 0.  1.
        -11    1    4    4    0    0  0.37120179083E-01 -0.30648785961E-01  0.40538682029E-01  0.62935694465E-01  0.51100000000E-03 0. -1.
         11    1    4    4    0    0  0.30163011413E-01  0.45743983756E-02  0.70829892249E-01  0.77122416553E-01  0.51100000000E-03 0.  1.
</event>
<event>
 8    1  0.2825007E+004  0.1043930E+01  0.7957747E-01            NaN
         13   -1    0    0    0    0  0.00000000000E+00  0.00000000000E+00  0.74505805969E-08  0.10566000000E+00  0.10566000000E+00 0. -1.
     999900   -1    0    0    0    0 -0.00000000000E+00 -0.00000000000E+00 -0.74505805969E-08  0.93827000000E+00  0.93827000000E+00 0.  1.
     999902    2    1    2    0    0  0.68859823365E-02  0.12148969089E-01  0.27956693597E-02  0.10296881613E+01  0.10295896656E+01 0.  0.
     999903    2    3    3    0    0 -0.46150605300E-01 -0.11639908479E+00 -0.36089711675E-01  0.13792050397E+00  0.45177127150E-01 0.  0.
         14    1    1    2    0    0 -0.68859823365E-02 -0.12148969089E-01 -0.27956693597E-02  0.14241838710E-01  0.00000000000E+00 0.  1.
     999901    1    3    3    0    0  0.53036587637E-01  0.12854805388E+00  0.38885381035E-01  0.89176765732E+00  0.88000000000E+00 0. -1.
        -11    1    4    4    0    0  0.81703203728E-02 -0.22479712627E-01 -0.12136222559E-02  0.23954657476E-01  0.51100000000E-03 0.  1.
         11    1    4    4    0    0 -0.54320925673E-01 -0.93919372161E-01 -0.34876089419E-01  0.11396584649E+00  0.51100000000E-03 0. -1.
</event>
<event>
 8    1  0.2825007E+004  0.1043930E+01  0.7957747E-01            NaN
         13   -1    0    0    0    0  0.00000000000E+00  0.00000000000E+00  0.74505805969E-08  0.10566000000E+00  0.10566000000E+00 0. -1.
     999900   -1    0    0    0    0 -0.00000000000E+00 -0.00000000000E+00 -0.74505805969E-08  0.93827000000E+00  0.93827000000E+00 0. -1.
     999902    2    1    2    0    0 -0.34683209435E-02  0.11578677324E-01 -0.62627262191E-02  0.10303168902E+01  0.10302269544E+01 0.  0.
     999903    2    3    3    0    0  0.72023771530E-01 -0.25685637666E-01  0.10718306537E+00  0.13904945961E+00  0.44714282590E-01 0.  0.
         14    1    1    2    0    0  0.34683209435E-02 -0.11578677324E-01  0.62627262191E-02  0.13613109800E-01  0.00000000000E+00 0.  1.
     999901    1    3    3    0    0 -0.75492092474E-01  0.37264314990E-01 -0.11344579159E+00  0.89126743059E+00  0.88000000000E+00 0. -1.
        -11    1    4    4    0    0  0.59410452641E-01 -0.33675354223E-03  0.81214940764E-01  0.10062724785E+00  0.51100000000E-03 0. -1.
         11    1    4    4    0    0  0.12613318890E-01 -0.25348884124E-01  0.25968124610E-01  0.38422211760E-01  0.51100000000E-03 0.  1.
</event>
<event>
 8    1  0.2825007E+004  0.1043930E+01  0.7957747E-01            NaN
         13   -1    0    0    0    0  0.00000000000E+00  0.00000000000E+00  0.74505805969E-08  0.10566000000E+00  0.10566000000E+00 0.  1.
     999900   -1    0    0    0    0 -0.00000000000E+00 -0.00000000000E+00 -0.74505805969E-08  0.93827000000E+00  0.93827000000E+00 0. -1.
     999902    2    1    2    0    0 -0.20223514796E-02  0.99357907107E-02  0.99393061046E-02  0.10297314209E+01  0.10296335268E+01 0.  0.
     999903    2    3    3    0    0 -0.61802334006E-01  0.28211827531E-01  0.11517153500E+00  0.14125999096E+00  0.45546315660E-01 0.  0.
         14    1    1    2    0    0  0.20223514796E-02 -0.99357907107E-02 -0.99393061046E-02  0.14198579098E-01  0.00000000000E+00 0. -1.
     999901    1    3    3    0    0  0.59779982526E-01 -0.18276036820E-01 -0.10523222889E+00  0.88847142995E+00  0.88000000000E+00 0. -1.
        -11    1    4    4    0    0 -0.14544445302E-01  0.10660711391E-01  0.30106888887E-02  0.18289806589E-01  0.51100000000E-03 0.  1.
         11    1    4    4    0    0 -0.47257888704E-01  0.17551116140E-01  0.11216084611E+00  0.12297018437E+00  0.51100000000E-03 0. -1.
</event>
<event>
 8    1  0.2825007E+004  0.1043930E+01  0.7957747E-01            NaN
         13   -1    0    0    0    0  0.00000000000E+00  0.00000000000E+00  0.74505805969E-08  0.10566000000E+00  0.10566000000E+00 0. -1.
     999900   -1    0    0    0    0 -0.00000000000E+00 -0.00000000000E+00 -0.74505805969E-08  0.93827000000E+00  0.93827000000E+00 0. -1.
     999902    2    1    2    0    0  0.53249568546E-02 -0.12671648270E-01 -0.57933316019E-03  0.10301727669E+01  0.10300809037E+01 0.  0.
     999903    2    3    3    0    0 -0.14532588130E-01 -0.26535403465E-01 -0.12981055020E+00  0.14040468856E+00  0.44129059264E-01 0.  0.
         14    1    1    2    0    0 -0.53249568546E-02  0.12671648270E-01  0.57933316019E-03  0.13757233090E-01  0.00000000000E+00 0. -1.
     999901    1    3    3    0    0  0.19857544985E-01  0.13863755195E-01  0.12923121704E+00  0.88976807835E+00  0.88000000000E+00 0.  1.
        -11    1    4    4    0    0 -0.10590248447E-01 -0.39001966911E-01 -0.98544526064E-01  0.10651099250E+00  0.51100000000E-03 0. -1.
         11    1    4    4    0    0 -0.39423396826E-02  0.12466563446E-01 -0.31266024132E-01  0.33893696056E-01  0.51100000000E-03 0.  1.
</event>
<event>
 8    1  0.2825007E+004  0.1043930E+01  0.7957747E-01            NaN
         13   -1    0    0    0    0  0.00000000000E+00  0.00000000000E+00  0.74505805969E-08  0.10566000000E+00  0.10566000000E+00 0.  1.
     999900   -1    0    0    0    0 -0.00000000000E+00 -0.00000000000E+00 -0.74505805969E-08  0.93827000000E+00  0.93827000000E+00 0. -1.
     999902    2    1    2    0    0  0.66490337190E-03  0.92813362033E-02 -0.94236745535E-02  0.10306864755E+01  0.10306013875E+01 0.  0.
     999903    2    3    3    0    0 -0.10341385935E+00 -0.40305232260E-01  0.71601951016E-01  0.13947585586E+00  0.44807777518E-01 0.  0.
         14    1    1    2    0    0 -0.66490337190E-03 -0.92813362033E-02  0.94236745535E-02  0.13243524467E-01  0.00000000000E+00 0. -1.
     999901    1    3    3    0    0  0.10407876272E+00  0.49586568463E-01 -0.81025625569E-01  0.89121061967E+00  0.88000000000E+00 0. -1.
        -11    1    4    4    0    0 -0.18387229997E-01 -0.78533181054E-02  0.37094652905E-01  0.42143080421E-01  0.51100000000E-03 0. -1.
         11    1    4    4    0    0 -0.85026629348E-01 -0.32451914155E-01  0.34507298111E-01  0.97332775438E-01  0.51100000000E-03 0.  1.
</event>
<event>
 8    1  0.2825007E+004  0.1043930E+01  0.7957747E-01            NaN
         13   -1    0    0    0    0  0.00000000000E+00  0.00000000000E+00  0.74505805969E-08  0.10566000000E+00  0.10566000000E+00 0.  1.
     999900   -1    0    0    0    0 -0.00000000000E+00 -0.00000000000E+00 -0.74505805969E-08  0.93827000000E+00  0.93827000000E+00 0. -1.
     999902    2    1    2    0    0  0.23648247419E-02  0.63930548663E-02 -0.95742835933E-02  0.10321771087E+01  0.10321101944E+01 0.  0.
     999903    2    3    3    0    0 -0.97196344104E-01  0.45257344295E-01  0.80303103783E-01  0.14116599540E+00  0.44540916705E-01 0.  0.
         14    1    1    2    0    0 -0.23648247419E-02 -0.63930548663E-02  0.95742835933E-02  0.11752891257E-01  0.00000000000E+00 0.  1.
     999901    1    3    3    0    0  0.99561168846E-01 -0.38864289429E-01 -0.89877387376E-01  0.89101111334E+00  0.88000000000E+00 0. -1.
        -11    1    4    4    0    0 -0.16156298185E-01  0.28477373210E-01  0.29380158077E-01  0.43993653697E-01  0.51100000000E-03 0. -1.
         11    1    4    4    0    0 -0.81040045919E-01  0.16779971085E-01  0.50922945706E-01  0.97172341705E-01  0.51100000000E-03 0.  1.
</event>
<event>
 8    1  0.2825007E+004  0.1043930E+01  0.7957747E-01            NaN
         13   -1    0    0    0    0  0.00000000000E+00  0.00000000000E+00  0.74505805969E-08  0.10566000000E+00  0.10566000000E+00 0.  1.
     999900   -1    0    0    0    0 -0.00000000000E+00 -0.00000000000E+00 -0.74505805969E-08  0.93827000000E+00  0.93827000000E+00 0. -1.
     999902    2    1    2    0    0 -0.15496244259E-01 -0.70009015288E-02  0.28037518573E-03  0.10269233890E+01  0.10267825583E+01 0.  0.
     999903    2    3    3    0    0 -0.77400389386E-01 -0.24757519088E-01 -0.10294674265E+00  0.13855226241E+00  0.44664779946E-01 0.  0.
         14    1    1    2    0    0  0.15496244259E-01  0.70009015288E-02 -0.28037518573E-03  0.17006611026E-01  0.00000000000E+00 0.  1.
     999901    1    3    3    0    0  0.61904145127E-01  0.17756617559E-01  0.10322711784E+00  0.88837112656E+00  0.88000000000E+00 0.  1.
        -11    1    4    4    0    0 -0.39281490302E-01  0.82592388398E-02 -0.60645368261E-01  0.72728071053E-01  0.51100000000E-03 0.  1.
         11    1    4    4    0    0 -0.38118899084E-01 -0.33016757928E-01 -0.42301374394E-01  0.65824191359E-01  0.51100000000E-03 0. -1.
</event>
<event>
 7    1  0.2825007E+004  0.1043930E+01  0.7957747E-01            NaN
         13   -1    0    0    0    0  0.00000000000E+00  0.00000000000E+00  0.74505805969E-08  0.10566000000E+00  0.10566000000E+00 0.  1.
     999900   -1    0    0    0    0 -0.00000000000E+00 -0.00000000000E+00 -0.74505805969E-08  0.93827000000E+00  0.93827000000E+00 0. -1.
     999903    2    1    2    0    0  0.24502419892E-01  0.35196941593E-01 -0.88705643034E-01  0.10793664944E+00  0.44073074652E-01 0.  0.
         14    1    1    2    0    0  0.25905411629E-01 -0.27544239087E-01 -0.27688664925E-01  0.46866167156E-01  0.00000000000E+00 0. -1.
     999901    1    1    2    0    0 -0.50407831521E-01 -0.76527025067E-02  0.11639430796E+00  0.88912718340E+00  0.88000000000E+00 0.  1.
        -11    1    3    3    0    0  0.14763862528E-01  0.44619759461E-01 -0.60247961805E-01  0.76413170290E-01  0.51100000000E-03 0. -1.
         11    1    3    3    0    0  0.97385573642E-02 -0.94228178680E-02 -0.28457681228E-01  0.31523479154E-01  0.51100000000E-03 0.  1.
</event>
<event>
 8    1  0.2825007E+004  0.1043930E+01  0.7957747E-01            NaN
         13   -1    0    0    0    0  0.00000000000E+00  0.00000000000E+00  0.74505805969E-08  0.10566000000E+00  0.10566000000E+00 0. -1.
     999900   -1    0    0    0    0 -0.00000000000E+00 -0.00000000000E+00 -0.74505805969E-08  0.93827000000E+00  0.93827000000E+00 0. -1.
     999902    2    1    2    0    0 -0.33866402926E-02 -0.64658745590E-02  0.94211561863E-02  0.10320121541E+01  0.10319433372E+01 0.  0.
     999903    2    3    3    0    0  0.85089390001E-02  0.82440004786E-01 -0.10344713338E+00  0.14028068616E+00  0.45919550003E-01 0.  0.
         14    1    1    2    0    0  0.33866402926E-02  0.64658745590E-02 -0.94211561863E-02  0.11917845870E-01  0.00000000000E+00 0. -1.
     999901    1    3    3    0    0 -0.11895579293E-01 -0.88905879345E-01  0.11286828956E+00  0.89173146798E+00  0.88000000000E+00 0.  1.
        -11    1    4    4    0    0  0.23213984246E-01  0.51758643554E-01 -0.44032153604E-01  0.71811822977E-01  0.51100000000E-03 0. -1.
         11    1    4    4    0    0 -0.14705045246E-01  0.30681361231E-01 -0.59414979771E-01  0.68468863179E-01  0.51100000000E-03 0.  1.
</event>
<event>
 8    1  0.2825007E+004  0.1043930E+01  0.7957747E-01            NaN
         13   -1    0    0    0    0  0.00000000000E+00  0.00000000000E+00  0.74505805969E-08  0.10566000000E+00  0.10566000000E+00 0. -1.
     999900   -1    0    0    0    0 -0.00000000000E+00 -0.00000000000E+00 -0.74505805969E-08  0.93827000000E+00  0.93827000000E+00 0.  1.
     999902    2    1    2    0    0 -0.27904532445E-02 -0.59648562195E-02 -0.12347589088E-01  0.10299361051E+01  0.10298410321E+01 0.  0.
     999903    2    3    3    0    0 -0.12141206984E+00 -0.70962681124E-02 -0.55215763638E-01  0.14094226459E+00  0.44996596222E-01 0.  0.
         14    1    1    2    0    0  0.27904532445E-02  0.59648562195E-02  0.12347589088E-01  0.13993894930E-01  0.00000000000E+00 0. -1.
     999901    1    3    3    0    0  0.11862161659E+00  0.11314118929E-02  0.42868174550E-01  0.88899384048E+00  0.88000000000E+00 0.  1.
        -11    1    4    4    0    0 -0.95826669315E-01  0.95198423611E-02 -0.28610185346E-01  0.10045985157E+00  0.51100000000E-03 0. -1.
         11    1    4    4    0    0 -0.25585400521E-01 -0.16616110473E-01 -0.26605578292E-01  0.40482413025E-01  0.51100000000E-03 0.  1.
</event>
<event>
 8    1  0.2825007E+004  0.1043930E+01  0.7957747E-01            NaN
         13   -1    0    0    0    0  0.00000000000E+00  0.00000000000E+00  0.74505805969E-08  0.10566000000E+00  0.10566000000E+00 0.  1.
     999900   -1    0    0    0    0 -0.00000000000E+00 -0.00000000000E+00 -0.74505805969E-08  0.93827000000E+00  0.93827000000E+00 0. -1.
     999902    2    1    2    0    0 -0.36026483421E-02  0.67707540047E-02 -0.99178986082E-02  0.10313925801E+01  0.10313163760E+01 0.  0.
     999903    2    3    3    0    0  0.88468904726E-01 -0.78748476265E-01  0.51646891508E-01  0.14033650274E+00  0.54761875245E-01 0.  0.
         14    1    1    2    0    0  0.36026483421E-02 -0.67707540047E-02  0.99178986082E-02  0.12537419897E-01  0.00000000000E+00 0.  1.
     999901    1    3    3    0    0 -0.92071553068E-01  0.85519230270E-01 -0.61564790116E-01  0.89105607737E+00  0.88000000000E+00 0.  1.
        -11    1    4    4    0    0  0.24631265772E-01 -0.37977048274E-01  0.45747495468E-01  0.64358759401E-01  0.51100000000E-03 0.  1.
         11    1    4    4    0    0  0.63837638953E-01 -0.40771427992E-01  0.58993960404E-02  0.75977743335E-01  0.51100000000E-03 0. -1.
</event>
<event>
 7    1  0.2825007E+004  0.1043930E+01  0.7957747E-01            NaN
         13   -1    0    0    0    0  0.00000000000E+00  0.00000000000E+00  0.74505805969E-08  0.10566000000E+00  0.10566000000E+00 0. -1.
     999900   -1    0    0    0    0 -0.00000000000E+00 -0.00000000000E+00 -0.74505805969E-08  0.93827000000E+00  0.93827000000E+00 0. -1.
     999903    2    1    2    0    0 -0.83242315049E-01 -0.71292525291E-01  0.19282348524E-01  0.11987898346E+00  0.44578633144E-01 0.  0.
         14    1    1    2    0    0 -0.63057166266E-02  0.57890271397E-02 -0.35922627204E-01  0.36928444898E-01  0.00000000000E+00 0.  1.
     999901    1    1    2    0    0  0.89548031675E-01  0.65503498152E-01  0.16640278680E-01  0.88712257164E+00  0.88000000000E+00 0. -1.
        -11    1    3    3    0    0 -0.15969224530E-02 -0.15555860644E-01  0.13811975971E-01  0.20870236293E-01  0.51100000000E-03 0. -1.
         11    1    3    3    0    0 -0.81645392596E-01 -0.55736664647E-01  0.54703725526E-02  0.99008747164E-01  0.51100000000E-03 0.  1.
</event>
<event>
 8    1  0.2825007E+004  0.1043930E+01  0.7957747E-01            NaN
         13   -1    0    0    0    0  0.00000000000E+00  0.00000000000E+00  0.74505805969E-08  0.10566000000E+00  0.10566000000E+00 0.  1.
     999900   -1    0    0    0    0 -0.00000000000E+00 -0.00000000000E+00 -0.74505805969E-08  0.93827000000E+00  0.93827000000E+00 0.  1.
     999902    2    1    2    0    0  0.72873199995E-02 -0.65154696919E-02 -0.91165833814E-02  0.10305633074E+01  0.10304766189E+01 0.  0.
     999903    2    3    3    0    0 -0.22644704087E-01 -0.12901201819E+00  0.26604273175E-01  0.14085700191E+00  0.44452493483E-01 0.  0.
         14    1    1    2    0    0 -0.72873199995E-02  0.65154696919E-02  0.91165833814E-02  0.13366692584E-01  0.00000000000E+00 0.  1.
     999901    1    3    3    0    0  0.29932024086E-01  0.12249654849E+00 -0.35720856556E-01  0.88970630550E+00  0.88000000000E+00 0.  1.
        -11    1    4    4    0    0 -0.32374056110E-01 -0.56777374281E-01  0.10303298223E-01  0.66167732427E-01  0.51100000000E-03 0. -1.
         11    1    4    4    0    0  0.97293520227E-02 -0.72234643906E-01  0.16300974952E-01  0.74689269486E-01  0.51100000000E-03 0.  1.
</event>
<event>
 8    1  0.2825007E+004  0.1043930E+01  0.7957747E-01            NaN
         13   -1    0    0    0    0  0.00000000000E+00  0.00000000000E+00  0.74505805969E-08  0.10566000000E+00  0.10566000000E+00 0. -1.
     999900   -1    0    0    0    0 -0.00000000000E+00 -0.00000000000E+00 -0.74505805969E-08  0.93827000000E+00  0.93827000000E+00 0. -1.
     999902    2    1    2    0    0 -0.10716619235E-01 -0.87924181324E-02 -0.18512756349E-02  0.10299450164E+01  0.10298500653E+01 0.  0.
     999903    2    3    3    0    0 -0.58790648296E-01 -0.31914115751E-01 -0.11624898196E+00  0.14093851453E+00  0.43301131188E-01 0.  0.
         14    1    1    2    0    0  0.10716619235E-01  0.87924181324E-02  0.18512756349E-02  0.13984983586E-01  0.00000000000E+00 0. -1.
     999901    1    3    3    0    0  0.48074029062E-01  0.23121697619E-01  0.11439770632E+00  0.88900650188E+00  0.88000000000E+00 0.  1.
        -11    1    4    4    0    0 -0.18997132174E-01 -0.27598317592E-01 -0.26684678753E-01  0.42835631966E-01  0.51100000000E-03 0. -1.
         11    1    4    4    0    0 -0.39793516123E-01 -0.43157981591E-02 -0.89564303203E-01  0.98102882569E-01  0.51100000000E-03 0.  1.
</event>
<event>
 8    1  0.2825007E+004  0.1043930E+01  0.7957747E-01            NaN
         13   -1    0    0    0    0  0.00000000000E+00  0.00000000000E+00  0.74505805969E-08  0.10566000000E+00  0.10566000000E+00 0.  1.
     999900   -1    0    0    0    0 -0.00000000000E+00 -0.00000000000E+00 -0.74505805969E-08  0.93827000000E+00  0.93827000000E+00 0. -1.
     999902    2    1    2    0    0 -0.68755482078E-02 -0.10302746927E-02  0.12296295851E-01  0.10298043665E+01  0.10297074826E+01 0.  0.
     999903    2    3    3    0    0  0.46304110258E-01  0.80281390230E-01 -0.92377973892E-01  0.13829084130E+00  0.44738065267E-01 0.  0.
         14    1    1    2    0    0  0.68755482078E-02  0.10302746927E-02 -0.12296295851E-01  0.14125633464E-01  0.00000000000E+00 0. -1.
     999901    1    3    3    0    0 -0.53179658465E-01 -0.81311664923E-01  0.10467426974E+00  0.89151352523E+00  0.88000000000E+00 0. -1.
        -11    1    4    4    0    0  0.16528664483E-01 -0.58966169745E-03 -0.18035586886E-01  0.24476273529E-01  0.51100000000E-03 0. -1.
         11    1    4    4    0    0  0.29775445774E-01  0.80871051928E-01 -0.74342387006E-01  0.11381456777E+00  0.51100000000E-03 0.  1.
</event>
<event>
 8    1  0.2825007E+004  0.1043930E+01  0.7957747E-01            NaN
         13   -1    0    0    0    0  0.00000000000E+00  0.00000000000E+00  0.74505805969E-08  0.10566000000E+00  0.10566000000E+00 0. -1.
     999900   -1    0    0    0    0 -0.00000000000E+00 -0.00000000000E+00 -0.74505805969E-08  0.93827000000E+00  0.93827000000E+00 0. -1.
     999902    2    1    2    0    0 -0.40580139873E-02  0.31427186626E-02 -0.12917848411E-01  0.10300298214E+01  0.10299360262E+01 0.  0.
     999903    2    3    3    0    0 -0.12122565902E+00 -0.40279494374E-01 -0.37256171757E-01  0.14086948735E+00  0.46239507581E-01 0.  0.
         14    1    1    2    0    0  0.40580139873E-02 -0.31427186626E-02  0.12917848411E-01  0.13900178621E-01  0.00000000000E+00 0. -1.
     999901    1    3    3    0    0  0.11716764503E+00  0.43422213037E-01  0.24338323345E-01  0.88916033403E+00  0.88000000000E+00 0. -1.
        -11    1    4    4    0    0 -0.10053823705E+00 -0.45563130015E-01 -0.17471422632E-01  0.11175619739E+00  0.51100000000E-03 0. -1.
         11    1    4    4    0    0 -0.20687421964E-01  0.52836356408E-02 -0.19784749125E-01  0.29113289956E-01  0.51100000000E-03 0.  1.
</event>
<event>
 8    1  0.2825007E+004  0.1043930E+01  0.7957747E-01            NaN
         13   -1    0    0    0    0  0.00000000000E+00  0.00000000000E+00  0.74505805969E-08  0.10566000000E+00  0.10566000000E+00 0.  1.
     999900   -1    0    0    0    0 -0.00000000000E+00 -0.00000000000E+00 -0.74505805969E-08  0.93827000000E+00  0.93827000000E+00 0. -1.
     999902    2    1    2    0    0 -0.37849439488E-02  0.54054418022E-02 -0.11784606371E-01  0.10304236478E+01  0.10303351263E+01 0.  0.
     999903    2    3    3    0    0  0.52060265142E-01 -0.93994036731E-01  0.75255930761E-01  0.13880994290E+00  0.45382760875E-01 0.  0.
         14    1    1    2    0    0  0.37849439488E-02 -0.54054418022E-02  0.11784606371E-01  0.13506352175E-01  0.00000000000E+00 0.  1.
     999901    1    3    3    0    0 -0.55845209091E-01  0.99399478533E-01 -0.87040537132E-01  0.89161370493E+00  0.88000000000E+00 0.  1.
        -11    1    4    4    0    0  0.52536959399E-01 -0.62534538497E-01  0.38116850301E-01  0.90132435925E-01  0.51100000000E-03 0.  1.
         11    1    4    4    0    0 -0.47669425677E-03 -0.31459498234E-01  0.37139080460E-01  0.48677506972E-01  0.51100000000E-03 0. -1.
</event>
<event>
 8    1  0.2825007E+004  0.1043930E+01  0.7957747E-01            NaN
         13   -1    0    0    0    0  0.00000000000E+00  0.00000000000E+00  0.74505805969E-08  0.10566000000E+00  0.10566000000E+00 0. -1.
     999900   -1    0    0    0    0 -0.00000000000E+00 -0.00000000000E+00 -0.74505805969E-08  0.93827000000E+00  0.93827000000E+00 0. -1.
     999902    2    1    2    0    0 -0.87025299208E-02  0.52914809254E-02  0.86114760801E-02  0.10305924096E+01  0.10305061006E+01 0.  0.
     999903    2    3    3    0    0 -0.18004880913E-01  0.54182284915E-01  0.12198832947E+00  0.14192421768E+00  0.44737403835E-01 0.  0.
         14    1    1    2    0    0  0.87025299208E-02 -0.52914809254E-02 -0.86114760801E-02  0.13337590400E-01  0.00000000000E+00 0.  1.
     999901    1    3    3    0    0  0.93023509922E-02 -0.48890803990E-01 -0.11337685339E+00  0.88866819192E+00  0.88000000000E+00 0. -1.
        -11    1    4    4    0    0 -0.55139523174E-02  0.11435321362E-01  0.70860873092E-03  0.12725309118E-01  0.51100000000E-03 0. -1.
         11    1    4    4    0    0 -0.12490928596E-01  0.42746963553E-01  0.12127972074E+00  0.12919890856E+00  0.51100000000E-03 0.  1.
</event>
<event>
 8    1  0.2825007E+004  0.1043930E+01  0.7957747E-01            NaN
         13   -1    0    0    0    0  0.00000000000E+00  0.00000000000E+00  0.74505805969E-08  0.10566000000E+00  0.10566000000E+00 0. -1.
     999900   -1    0    0    0    0 -0.00000000000E+00 -0.00000000000E+00 -0.74505805969E-08  0.93827000000E+00  0.93827000000E+00 0.  1.
     999902    2    1    2    0    0 -0.45865656713E-02 -0.67802895724E-02 -0.10198995835E-01  0.10308522163E+01  0.10307692581E+01 0.  0.
     999903    2    3    3    0    0 -0.13335572901E+00 -0.38276621895E-02  0.10026440681E-01  0.14124596420E+00  0.45293392803E-01 0.  0.
         14    1    1    2    0    0  0.45865656713E-02  0.67802895724E-02  0.10198995835E-01  0.13077783734E-01  0.00000000000E+00 0. -1.
     999901    1    3    3    0    0  0.12876916334E+00 -0.29526273829E-02 -0.20225436516E-01  0.88960625207E+00  0.88000000000E+00 0.  1.
        -11    1    4    4    0    0 -0.50386140878E-01 -0.22403086971E-01 -0.30132089727E-02  0.55226823625E-01  0.51100000000E-03 0. -1.
         11    1    4    4    0    0 -0.82969588134E-01  0.18575424782E-01  0.13039649654E-01  0.86019140573E-01  0.51100000000E-03 0.  1.
</event>
<event>
 8    1  0.2825007E+004  0.1043930E+01  0.7957747E-01            NaN
         13   -1    0    0    0    0  0.00000000000E+00  0.00000000000E+00  0.74505805969E-08  0.10566000000E+00  0.10566000000E+00 0. -1.
     999900   -1    0    0    0    0 -0.00000000000E+00 -0.00000000000E+00 -0.74505805969E-08  0.93827000000E+00  0.93827000000E+00 0.  1.
     999902    2    1    2    0    0  0.60544432527E-02  0.11810913314E-01  0.18865041580E-02  0.10305242977E+01  0.10304370991E+01 0.  0.
     999903    2    3    3    0    0 -0.68114187173E-01  0.10090836807E+00 -0.54763839612E-01  0.14111516595E+00  0.45742438620E-01 0.  0.
         14    1    1    2    0    0 -0.60544432527E-02 -0.11810913314E-01 -0.18865041580E-02  0.13405702308E-01  0.00000000000E+00 0. -1.
     999901    1    3    3    0    0  0.74168630426E-01 -0.89097454753E-01  0.56650343770E-01  0.88940913175E+00  0.88000000000E+00 0. -1.
        -11    1    4    4    0    0 -0.62307389888E-01  0.56673090052E-01 -0.26497824064E-01  0.88297484516E-01  0.51100000000E-03 0. -1.
         11    1    4    4    0    0 -0.58067972851E-02  0.44235278015E-01 -0.28266015547E-01  0.52817681431E-01  0.51100000000E-03 0.  1.
</event>
<event>
 8    1  0.2825007E+004  0.1043930E+01  0.7957747E-01            NaN
         13   -1    0    0    0    0  0.00000000000E+00  0.00000000000E+00  0.74505805969E-08  0.10566000000E+00  0.10566000000E+00 0. -1.
     999900   -1    0    0    0    0 -0.00000000000E+00 -0.00000000000E+00 -0.74505805969E-08  0.93827000000E+00  0.93827000000E+00 0. -1.
     999902    2    1    2    0    0 -0.21210309630E-02 -0.12748318199E-01  0.31403296716E-02  0.10306303737E+01  0.10305445585E+01 0.  0.
     999903    2    3    3    0    0 -0.11769625069E+00 -0.27555192932E-01  0.57869897645E-01  0.14126419458E+00  0.44664880321E-01 0.  0.
         14    1    1    2    0    0  0.21210309630E-02  0.12748318199E-01 -0.31403296716E-02  0.13299626299E-01  0.00000000000E+00 0.  1.
     999901    1    3    3    0    0  0.11557521972E+00  0.14806874733E-01 -0.54729567973E-01  0.88936617912E+00  0.88000000000E+00 0. -1.
        -11    1    4    4    0    0 -0.82604765665E-01 -0.28984055208E-01  0.59910200527E-01  0.10608070520E+00  0.51100000000E-03 0. -1.
         11    1    4    4    0    0 -0.35091485020E-01  0.14288622756E-02 -0.20403028826E-02  0.35183489383E-01  0.51100000000E-03 0.  1.
</event>
<event>
 8    1  0.2825007E+004  0.1043930E+01  0.7957747E-01            NaN
         13   -1    0    0    0    0  0.00000000000E+00  0.00000000000E+00  0.74505805969E-08  0.10566000000E+00  0.10566000000E+00 0. -1.
     999900   -1    0    0    0    0 -0.00000000000E+00 -0.00000000000E+00 -0.74505805969E-08  0.93827000000E+00  0.93827000000E+00 0. -1.
     999902    2    1    2    0    0  0.20261186176E-01 -0.46507544487E-03 -0.46696283824E-02  0.10231324667E+01  0.10229210659E+01 0.  0.
     999903    2    3    3    0    0  0.31291174330E-01  0.11222320810E+00 -0.50213626565E-01  0.13470995146E+00  0.45300956962E-01 0.  0.
         14    1    1    2    0    0 -0.20261186176E-01  0.46507544487E-03  0.46696283824E-02  0.20797533259E-01  0.00000000000E+00 0.  1.
     999901    1    3    3    0    0 -0.11029988154E-01 -0.11268828355E+00  0.45543998182E-01  0.88842251528E+00  0.88000000000E+00 0.  1.
        -11    1    4    4    0    0  0.36345730912E-01  0.80158990811E-01 -0.51942762182E-01  0.10219974377E+00  0.51100000000E-03 0. -1.
         11    1    4    4    0    0 -0.50545565820E-02  0.32064217292E-01  0.17291356180E-02  0.32510207685E-01  0.51100000000E-03 0.  1.
</event>
<event>
 8    1  0.2825007E+004  0.1043930E+01  0.7957747E-01            NaN
         13   -1    0    0    0    0  0.00000000000E+00  0.00000000000E+00  0.74505805969E-08  0.10566000000E+00  0.10566000000E+00 0. -1.
     999900   -1    0    0    0    0 -0.00000000000E+00 -0.00000000000E+00 -0.74505805969E-08  0.93827000000E+00  0.93827000000E+00 0.  1.
     999902    2    1    2    0    0  0.60200176044E-02  0.43227979524E-02 -0.13532463247E-01  0.10285009768E+01  0.10283852413E+01 0.  0.
     999903    2    3    3    0    0 -0.15739450140E-01 -0.12861791817E+00  0.45521651287E-02  0.13806638507E+00  0.47447922110E-01 0.  0.
         14    1    1    2    0    0 -0.60200176044E-02 -0.43227979524E-02  0.13532463247E-01  0.15429023158E-01  0.00000000000E+00 0. -1.
     999901    1    3    3    0    0  0.21759467744E-01  0.13294071613E+00 -0.18084628375E-01  0.89043459177E+00  0.88000000000E+00 0.  1.
        -11    1    4    4    0    0  0.71663149234E-02 -0.77432882597E-01  0.19211004671E-01  0.80103253357E-01  0.51100000000E-03 0.  1.
         11    1    4    4    0    0 -0.22905765063E-01 -0.51185035578E-01 -0.14658839542E-01  0.57963131713E-01  0.51100000000E-03 0. -1.
</event>
<event>
 8    1  0.2825007E+004  0.1043930E+01  0.7957747E-01            NaN
         13   -1    0    0    0    0  0.00000000000E+00  0.00000000000E+00  0.74505805969E-08  0.10566000000E+00  0.10566000000E+00 0.  1.
     999900   -1    0    0    0    0 -0.00000000000E+00 -0.00000000000E+00 -0.74505805969E-08  0.93827000000E+00  0.93827000000E+00 0.  1.
     999902    2    1    2    0    0  0.87276052483E-02  0.10458586655E-01 -0.29954510133E-02  0.10299827474E+01  0.10298883115E+01 0.  0.
     999903    2    3    3    0    0  0.45874874819E-01  0.59565371130E-01  0.11000727573E+00  0.14062285840E+00  0.44951640846E-01 0.  0.
         14    1    1    2    0    0 -0.87276052483E-02 -0.10458586655E-01  0.29954510133E-02  0.13947252596E-01  0.00000000000E+00 0.  1.
     999901    1    3    3    0    0 -0.37147269571E-01 -0.49106784475E-01 -0.11300272674E+00  0.88935988900E+00  0.88000000000E+00 0.  1.
        -11    1    4    4    0    0 -0.67188072616E-02  0.14165506775E-01  0.35142384587E-01  0.38484441904E-01  0.51100000000E-03 0.  1.
         11    1    4    4    0    0  0.52593682081E-01  0.45399864355E-01  0.74864891138E-01  0.10213841650E+00  0.51100000000E-03 0. -1.
</event>
<event>
 8    1  0.2825007E+004  0.1043930E+01  0.7957747E-01            NaN
         13   -1    0    0    0    0  0.00000000000E+00  0.00000000000E+00  0.74505805969E-08  0.10566000000E+00  0.10566000000E+00 0. -1.
     999900   -1    0    0    0    0 -0.00000000000E+00 -0.00000000000E+00 -0.74505805969E-08  0.93827000000E+00  0.93827000000E+00 0. -1.
     999902    2    1    2    0    0 -0.11448275321E-01  0.57345548523E-02  0.51035826479E-02  0.10301461441E+01  0.10300539226E+01 0.  0.
     999903    2    3    3    0    0  0.52196927077E-01 -0.66152711040E-01  0.10176143476E+00  0.13966243783E+00  0.45271476262E-01 0.  0.
         14    1    1    2    0    0  0.11448275321E-01 -0.57345548523E-02 -0.51035826479E-02  0.13783855884E-01  0.00000000000E+00 0.  1.
     999901    1    3    3    0    0 -0.63645202398E-01  0.71887265893E-01 -0.96657852108E-01  0.89048370629E+00  0.88000000000E+00 0.  1.
        -11    1    4    4    0    0  0.27346099145E-01 -0.60128110917E-01  0.89665885592E-01  0.11137069193E+00  0.51100000000E-03 0.  1.
         11    1    4    4    0    0  0.24850827932E-01 -0.60246001232E-02  0.12095549164E-01  0.28291745901E-01  0.51100000000E-03 0. -1.
</event>
<event>
 8    1  0.2825007E+004  0.1043930E+01  0.7957747E-01            NaN
         13   -1    0    0    0    0  0.00000000000E+00  0.00000000000E+00  0.74505805969E-08  0.10566000000E+00  0.10566000000E+00 0. -1.
     999900   -1    0    0    0    0 -0.00000000000E+00 -0.00000000000E+00 -0.74505805969E-08  0.93827000000E+00  0.93827000000E+00 0. -1.
     999902    2    1    2    0    0  0.70116872639E-02 -0.83482805789E-02  0.11623200012E-01  0.10279939928E+01  0.10278704650E+01 0.  0.
     999903    2    3    3    0    0 -0.10977102786E+00 -0.29998955137E-02 -0.65916497545E-01  0.13688276940E+00  0.48303519316E-01 0.  0.
         14    1    1    2    0    0 -0.70116872639E-02  0.83482805789E-02 -0.11623200012E-01  0.15936007198E-01  0.00000000000E+00 0.  1.
     999901    1    3    3    0    0  0.11678271513E+00 -0.53483850652E-02  0.77539697557E-01  0.89111122340E+00  0.88000000000E+00 0.  1.
        -11    1    4    4    0    0 -0.96471669235E-02  0.15366853588E-01 -0.10859769624E-01  0.21151920389E-01  0.51100000000E-03 0. -1.
         11    1    4    4    0    0 -0.10012386094E+00 -0.18366749102E-01 -0.55056727921E-01  0.11573084901E+00  0.51100000000E-03 0.  1.
</event>
<event>
 8    1  0.2825007E+004  0.1043930E+01  0.7957747E-01            NaN
         13   -1    0    0    0    0  0.00000000000E+00  0.00000000000E+00  0.74505805969E-08  0.10566000000E+00  0.10566000000E+00 0.  1.
     999900   -1    0    0    0    0 -0.00000000000E+00 -0.00000000000E+00 -0.74505805969E-08  0.93827000000E+00  0.93827000000E+00 0.  1.
     999902    2    1    2    0    0 -0.89581680531E-02 -0.10563632161E-01  0.20239840940E-02  0.10299322998E+01  0.10298371748E+01 0.  0.
     999903    2    3    3    0    0  0.24401388424E-01 -0.35454096426E-02  0.13028228413E+00  0.13998156690E+00  0.44870567482E-01 0.  0.
         14    1    1    2    0    0  0.89581680531E-02  0.10563632161E-01 -0.20239840940E-02  0.13997700201E-01  0.00000000000E+00 0.  1.
     999901    1    3    3    0    0 -0.33359556477E-01 -0.70182225188E-02 -0.12825830004E+00  0.88995073290E+00  0.88000000000E+00 0.  1.
        -11    1    4    4    0    0  0.10294151209E-02 -0.59386890549E-02  0.10606276955E+00  0.10623511627E+00  0.51100000000E-03 0. -1.
         11    1    4    4    0    0  0.23371973303E-01  0.23932794123E-02  0.24219514581E-01  0.33746450628E-01  0.51100000000E-03 0.  1.
</event>
<event>
 8    1  0.2825007E+004  0.1043930E+01  0.7957747E-01            NaN
         13   -1    0    0    0    0  0.00000000000E+00  0.00000000000E+00  0.74505805969E-08  0.10566000000E+00  0.10566000000E+00 0.  1.
     999900   -1    0    0    0    0 -0.00000000000E+00 -0.00000000000E+00 -0.74505805969E-08  0.93827000000E+00  0.93827000000E+00 0. -1.
     999902    2    1    2    0    0  0.78090067878E-02  0.10895461793E-01 -0.22553043306E-02  0.10303366902E+01  0.10302470175E+01 0.  0.
     999903    2    3    3    0    0 -0.59159453085E-01 -0.10206809978E+00 -0.57678128704E-01  0.13886754862E+00  0.45162945507E-01 0.  0.
         14    1    1    2    0    0 -0.78090067878E-02 -0.10895461793E-01  0.22553043306E-02  0.13593309837E-01  0.00000000000E+00 0. -1.
     999901    1    3    3    0    0  0.66968459873E-01  0.11296356157E+00  0.55422824373E-01  0.89146914154E+00  0.88000000000E+00 0.  1.
        -11    1    4    4    0    0 -0.90349266639E-02 -0.60117799848E-01 -0.31319339037E-01  0.68388170593E-01  0.51100000000E-03 0.  1.
         11    1    4    4    0    0 -0.50124526421E-01 -0.41950299934E-01 -0.26358789667E-01  0.70479378028E-01  0.51100000000E-03 0. -1.
</event>
<event>
 8    1  0.2825007E+004  0.1043930E+01  0.7957747E-01            NaN
         13   -1    0    0    0    0  0.00000000000E+00  0.00000000000E+00  0.74505805969E-08  0.10566000000E+00  0.10566000000E+00 0. -1.
     999900   -1    0    0    0    0 -0.00000000000E+00 -0.00000000000E+00 -0.74505805969E-08  0.93827000000E+00  0.93827000000E+00 0. -1.
     999902    2    1    2    0    0 -0.76972855104E-02 -0.12203642919E-01  0.16650531310E-02  0.10294058991E+01  0.10293034322E+01 0.  0.
     999903    2    3    3    0    0  0.76217847225E-01  0.96915193081E-01 -0.40968849710E-01  0.13768491161E+00  0.45573823121E-01 0.  0.
         14    1    1    2    0    0  0.76972855104E-02  0.12203642919E-01 -0.16650531310E-02  0.14524100889E-01  0.00000000000E+00 0.  1.
     999901    1    3    3    0    0 -0.83915132736E-01 -0.10911883600E+00  0.42633902841E-01  0.89172098750E+00  0.88000000000E+00 0.  1.
        -11    1    4    4    0    0  0.31169954806E-01  0.59809730822E-01 -0.19416790992E-02  0.67474448663E-01  0.51100000000E-03 0. -1.
         11    1    4    4    0    0  0.45047892419E-01  0.37105462259E-01 -0.39027170611E-01  0.70210462951E-01  0.51100000000E-03 0.  1.
</event>
<event>
 8    1  0.2825007E+004  0.1043930E+01  0.7957747E-01            NaN
         13   -1    0    0    0    0  0.00000000000E+00  0.00000000000E+00  0.74505805969E-08  0.10566000000E+00  0.10566000000E+00 0.  1.
     999900   -1    0    0    0    0 -0.00000000000E+00 -0.00000000000E+00 -0.74505805969E-08  0.93827000000E+00  0.93827000000E+00 0.  1.
     999902    2    1    2    0    0 -0.50096000988E-02 -0.11384211256E-01 -0.43472387826E-02  0.10307544604E+01  0.10306702493E+01 0.  0.
     999903    2    3    3    0    0  0.10072873615E-01 -0.38267047378E-01 -0.12843978924E+00  0.14151370054E+00  0.44311604382E-01 0.  0.
         14    1    1    2    0    0  0.50096000988E-02  0.11384211256E-01  0.43472387826E-02  0.13175539613E-01  0.00000000000E+00 0.  1.
     999901    1    3    3    0    0 -0.15082473714E-01  0.26882836122E-01  0.12409255046E+00  0.88924075985E+00  0.88000000000E+00 0. -1.
        -11    1    4    4    0    0  0.27116804726E-01 -0.30042801558E-01 -0.86854535038E-01  0.95822035053E-01  0.51100000000E-03 0.  1.
         11    1    4    4    0    0 -0.17043931111E-01 -0.82242458196E-02 -0.41585254203E-01  0.45691665489E-01  0.51100000000E-03 0. -1.
</event>
<event>
 8    1  0.2825007E+004  0.1043930E+01  0.7957747E-01            NaN
         13   -1    0    0    0    0  0.00000000000E+00  0.00000000000E+00  0.74505805969E-08  0.10566000000E+00  0.10566000000E+00 0.  1.
     999900   -1    0    0    0    0 -0.00000000000E+00 -0.00000000000E+00 -0.74505805969E-08  0.93827000000E+00  0.93827000000E+00 0.  1.
     999902    2    1    2    0    0  0.39723391563E-02 -0.82948761416E-02 -0.10047469320E-01  0.10303088367E+01  0.10302187937E+01 0.  0.
     999903    2    3    3    0    0 -0.12846495477E+00  0.29057598768E-01  0.69772444127E-02  0.13945268389E+00  0.45285543558E-01 0.  0.
         14    1    1    2    0    0 -0.39723391563E-02  0.82948761416E-02  0.10047469320E-01  0.13621163251E-01  0.00000000000E+00 0.  1.
     999901    1    3    3    0    0  0.13243729393E+00 -0.37352474909E-01 -0.17024713733E-01  0.89085615286E+00  0.88000000000E+00 0. -1.
        -11    1    4    4    0    0 -0.72960967155E-01  0.28276254770E-01  0.23203262105E-01  0.81618023777E-01  0.51100000000E-03 0.  1.
         11    1    4    4    0    0 -0.55503987614E-01  0.78134399728E-03 -0.16226017692E-01  0.57834660115E-01  0.51100000000E-03 0. -1.
</event>
<event>
 8    1  0.2825007E+004  0.1043930E+01  0.7957747E-01            NaN
         13   -1    0    0    0    0  0.00000000000E+00  0.00000000000E+00  0.74505805969E-08  0.10566000000E+00  0.10566000000E+00 0. -1.
     999900   -1    0    0    0    0 -0.00000000000E+00 -0.00000000000E+00 -0.74505805969E-08  0.93827000000E+00  0.93827000000E+00 0. -1.
     999902    2    1    2    0    0 -0.21329936510E-02  0.12988703127E-01  0.56336518081E-02  0.10296123849E+01  0.10295128309E+01 0.  0.
     999903    2    3    3    0    0 -0.31099309773E-01  0.78513882112E-01  0.10403023613E+00  0.14123494009E+00  0.44647749344E-01 0.  0.
         14    1    1    2    0    0  0.21329936510E-02 -0.12988703127E-01 -0.56336518081E-02  0.14317615148E-01  0.00000000000E+00 0.  1.
     999901    1    3    3    0    0  0.28966316122E-01 -0.65525178985E-01 -0.98396584320E-01  0.88837744476E+00  0.88000000000E+00 0. -1.
        -11    1    4    4    0    0 -0.97035046750E-02  0.67812687496E-01  0.91263410620E-01  0.11411393354E+00  0.51100000000E-03 0.  1.
         11    1    4    4    0    0 -0.21395805098E-01  0.10701194617E-01  0.12766825507E-01  0.27121006555E-01  0.51100000000E-03 0. -1.
</event>
<event>
 8    1  0.2825007E+004  0.1043930E+01  0.7957747E-01            NaN
         13   -1    0    0    0    0  0.00000000000E+00  0.00000000000E+00  0.74505805969E-08  0.10566000000E+00  0.10566000000E+00 0.  1.
     999900   -1    0    0    0    0 -0.00000000000E+00 -0.00000000000E+00 -0.74505805969E-08  0.93827000000E+00  0.93827000000E+00 0. -1.
     999902    2    1    2    0    0  0.13784708861E-01 -0.12517773377E-02  0.82486048728E-03  0.10300640150E+01  0.10299706838E+01 0.  0.
     999903    2    3    3    0    0  0.35128756753E-01 -0.53281608630E-01  0.11667836620E+00  0.14069080510E+00  0.45903182150E-01 0.  0.
         14    1    1    2    0    0 -0.13784708861E-01  0.12517773377E-02 -0.82486048728E-03  0.13865984989E-01  0.00000000000E+00 0. -1.
     999901    1    3    3    0    0 -0.21344047891E-01  0.52029831293E-01 -0.11585350571E+00  0.88937320991E+00  0.88000000000E+00 0. -1.
        -11    1    4    4    0    0  0.10748445508E-01 -0.41481733768E-02  0.62635375395E-01  0.63688207661E-01  0.51100000000E-03 0. -1.
         11    1    4    4    0    0  0.24380311245E-01 -0.49133435254E-01  0.54042990802E-01  0.77002597437E-01  0.51100000000E-03 0.  1.
</event>
<event>
 8    1  0.2825007E+004  0.1043930E+01  0.7957747E-01            NaN
         13   -1    0    0    0    0  0.00000000000E+00  0.00000000000E+00  0.74505805969E-08  0.10566000000E+00  0.10566000000E+00 0. -1.
     999900   -1    0    0    0    0 -0.00000000000E+00 -0.00000000000E+00 -0.74505805969E-08  0.93827000000E+00  0.93827000000E+00 0. -1.
     999902    2    1    2    0    0 -0.16514176056E-02 -0.87795430146E-02  0.86186927459E-02  0.10315167240E+01  0.10314420306E+01 0.  0.
     999903    2    3    3    0    0 -0.88475409326E-01 -0.90101243839E-01  0.47966333094E-01  0.14264110767E+00  0.45821220952E-01 0.  0.
         14    1    1    2    0    0  0.16514176056E-02  0.87795430146E-02 -0.86186927459E-02  0.12413275970E-01  0.00000000000E+00 0.  1.
     999901    1    3    3    0    0  0.86823991720E-01  0.81321700824E-01 -0.39347640348E-01  0.88887561636E+00  0.88000000000E+00 0. -1.
        -11    1    4    4    0    0 -0.51396062753E-01 -0.44952929505E-01  0.49267526315E-01  0.84201374144E-01  0.51100000000E-03 0. -1.
         11    1    4    4    0    0 -0.37079346573E-01 -0.45148314334E-01 -0.13011932214E-02  0.58439733523E-01  0.51100000000E-03 0.  1.
</event>
<event>
 8    1  0.2825007E+004  0.1043930E+01  0.7957747E-01            NaN
         13   -1    0    0    0    0  0.00000000000E+00  0.00000000000E+00  0.74505805969E-08  0.10566000000E+00  0.10566000000E+00 0.  1.
     999900   -1    0    0    0    0 -0.00000000000E+00 -0.00000000000E+00 -0.74505805969E-08  0.93827000000E+00  0.93827000000E+00 0. -1.
     999902    2    1    2    0    0 -0.12379396384E-01  0.15420194806E-01 -0.44549301614E-02  0.10236598677E+01  0.10234591572E+01 0.  0.
     999903    2    3    3    0    0 -0.12337200903E+00  0.28428165394E-02  0.34278910344E-01  0.13575341937E+00  0.45002366133E-01 0.  0.
         14    1    1    2    0    0  0.12379396384E-01 -0.15420194806E-01  0.44549301614E-02  0.20270132349E-01  0.00000000000E+00 0. -1.
     999901    1    3    3    0    0  0.11099261264E+00  0.12577378267E-01 -0.38733840506E-01  0.88790644829E+00  0.88000000000E+00 0. -1.
        -11    1    4    4    0    0 -0.64613135085E-01 -0.57644430534E-02  0.39802370560E-01  0.76108973534E-01  0.51100000000E-03 0. -1.
         11    1    4    4    0    0 -0.58758873944E-01  0.86072595928E-02 -0.55234602159E-02  0.59644445832E-01  0.51100000000E-03 0.  1.
</event>
<event>
 7    1  0.2825007E+004  0.1043930E+01  0.7957747E-01            NaN
         13   -1    0    0    0    0  0.00000000000E+00  0.00000000000E+00  0.74505805969E-08  0.10566000000E+00  0.10566000000E+00 0. -1.
     999900   -1    0    0    0    0 -0.00000000000E+00 -0.00000000000E+00 -0.74505805969E-08  0.93827000000E+00  0.93827000000E+00 0. -1.
     999903    2    1    2    0    0  0.22518577558E-01 -0.82257307746E-01  0.66245152401E-01  0.11690799096E+00  0.44785121651E-01 0.  0.
         14    1    1    2    0    0 -0.15890895517E-01 -0.16233234503E-01 -0.34031837285E-01  0.40917043048E-01  0.00000000000E+00 0.  1.
     999901    1    1    2    0    0 -0.66276820412E-02  0.98490542249E-01 -0.32213315116E-01  0.88610496599E+00  0.88000000000E+00 0.  1.
        -11    1    3    3    0    0 -0.12894840298E-01 -0.24843136150E-01  0.12510712883E-01  0.30663290396E-01  0.51100000000E-03 0.  1.
         11    1    3    3    0    0  0.35413417857E-01 -0.57414171596E-01  0.53734439518E-01  0.86244700566E-01  0.51100000000E-03 0. -1.
</event>
<event>
 8    1  0.2825007E+004  0.1043930E+01  0.7957747E-01            NaN
         13   -1    0    0    0    0  0.00000000000E+00  0.00000000000E+00  0.74505805969E-08  0.10566000000E+00  0.10566000000E+00 0. -1.
     999900   -1    0    0    0    0 -0.00000000000E+00 -0.00000000000E+00 -0.74505805969E-08  0.93827000000E+00  0.93827000000E+00 0. -1.
     999902    2    1    2    0    0  0.89514413800E-02  0.46307440382E-02  0.93619270336E-02  0.10301743549E+01  0.10300825131E+01 0.  0.
     999903    2    3    3    0    0 -0.12427240101E+00 -0.22417769328E-01 -0.35516143670E-01  0.13860593049E+00  0.44766298387E-01 0.  0.
         14    1    1    2    0    0 -0.89514413800E-02 -0.46307440382E-02 -0.93619270336E-02  0.13755645056E-01  0.00000000000E+00 0.  1.
     999901    1    3    3    0    0  0.13322384239E+00  0.27048513366E-01  0.44878070703E-01  0.89156842446E+00  0.88000000000E+00 0.  1.
        -11    1    4    4    0    0 -0.75045895856E-01 -0.30869123082E-01 -0.79033622831E-02  0.81532285023E-01  0.51100000000E-03 0.  1.
         11    1    4    4    0    0 -0.49226505152E-01  0.84513537537E-02 -0.27612781387E-01  0.57073645465E-01  0.51100000000E-03 0. -1.
</event>
<event>
 8    1  0.2825007E+004  0.1043930E+01  0.7957747E-01            NaN
         13   -1    0    0    0    0  0.00000000000E+00  0.00000000000E+00  0.74505805969E-08  0.10566000000E+00  0.10566000000E+00 0.  1.
     999900   -1    0    0    0    0 -0.00000000000E+00 -0.00000000000E+00 -0.74505805969E-08  0.93827000000E+00  0.93827000000E+00 0.  1.
     999902    2    1    2    0    0 -0.34382118531E-02  0.68535967637E-02 -0.11921067021E-01  0.10297559064E+01  0.10296583520E+01 0.  0.
     999903    2    3    3    0    0  0.12210364773E+00  0.51156646774E-01 -0.24327649024E-02  0.13969211849E+00  0.44515910895E-01 0.  0.
         14    1    1    2    0    0  0.34382118531E-02 -0.68535967637E-02  0.11921067021E-01  0.14174093561E-01  0.00000000000E+00 0.  1.
     999901    1    3    3    0    0 -0.12554185959E+00 -0.44303050011E-01 -0.94883021187E-02  0.89006378795E+00  0.88000000000E+00 0. -1.
        -11    1    4    4    0    0  0.10822493156E+00  0.31842098219E-01  0.92445601445E-02  0.11319133379E+00  0.51100000000E-03 0.  1.
         11    1    4    4    0    0  0.13878716170E-01  0.19314548556E-01 -0.11677325047E-01  0.26500784699E-01  0.51100000000E-03 0. -1.
</event>
<event>
 8    1  0.2825007E+004  0.1043930E+01  0.7957747E-01            NaN
         13   -1    0    0    0    0  0.00000000000E+00  0.00000000000E+00  0.74505805969E-08  0.10566000000E+00  0.10566000000E+00 0.  1.
     999900   -1    0    0    0    0 -0.00000000000E+00 -0.00000000000E+00 -0.74505805969E-08  0.93827000000E+00  0.93827000000E+00 0.  1.
     999902    2    1    2    0    0 -0.67158143482E-02  0.10541035470E-01  0.82326829715E-02  0.10289636157E+01  0.10288547661E+01 0.  0.
     999903    2    3    3    0    0  0.27177327692E-01  0.12006097526E+00  0.57767835960E-01  0.14014580887E+00  0.33918725702E-01 0.  0.
         14    1    1    2    0    0  0.67158143482E-02 -0.10541035470E-01 -0.82326829715E-02  0.14966384335E-01  0.00000000000E+00 0. -1.
     999901    1    3    3    0    0 -0.33893142040E-01 -0.10951993979E+00 -0.49535152989E-01  0.88881780679E+00  0.88000000000E+00 0.  1.
        -11    1    4    4    0    0  0.18962720514E-01  0.87258995265E-01  0.24250338087E-01  0.92531384093E-01  0.51100000000E-03 0. -1.
         11    1    4    4    0    0  0.82146071777E-02  0.32801979992E-01  0.33517497873E-01  0.47614424780E-01  0.51100000000E-03 0.  1.
</event>
<event>
 8    1  0.2825007E+004  0.1043930E+01  0.7957747E-01            NaN
         13   -1    0    0    0    0  0.00000000000E+00  0.00000000000E+00  0.74505805969E-08  0.10566000000E+00  0.10566000000E+00 0.  1.
     999900   -1    0    0    0    0 -0.00000000000E+00 -0.00000000000E+00 -0.74505805969E-08  0.93827000000E+00  0.93827000000E+00 0.  1.
     999902    2    1    2    0    0  0.59737724499E-03 -0.15003758500E-01 -0.35532928400E-02  0.10284996559E+01  0.10283839004E+01 0.  0.
     999903    2    3    3    0    0  0.14454756629E-01 -0.13033519516E+00  0.24576263892E-01  0.14042047070E+00  0.43791697374E-01 0.  0.
         14    1    1    2    0    0 -0.59737724499E-03  0.15003758500E-01  0.35532928400E-02  0.15430344089E-01  0.00000000000E+00 0.  1.
     999901    1    3    3    0    0 -0.13857379384E-01  0.11533143666E+00 -0.28129556732E-01  0.88807918521E+00  0.88000000000E+00 0.  1.
        -11    1    4    4    0    0  0.64364012517E-02 -0.56728782701E-01  0.32924001397E-01  0.65907761582E-01  0.51100000000E-03 0. -1.
         11    1    4    4    0    0  0.80183553770E-02 -0.73606412456E-01 -0.83477375046E-02  0.74512709117E-01  0.51100000000E-03 0.  1.
</event>
<event>
 8    1  0.2825007E+004  0.1043930E+01  0.7957747E-01            NaN
         13   -1    0    0    0    0  0.00000000000E+00  0.00000000000E+00  0.74505805969E-08  0.10566000000E+00  0.10566000000E+00 0. -1.
     999900   -1    0    0    0    0 -0.00000000000E+00 -0.00000000000E+00 -0.74505805969E-08  0.93827000000E+00  0.93827000000E+00 0.  1.
     999902    2    1    2    0    0  0.73424835538E-02 -0.56060438476E-02  0.99182752281E-02  0.10303759609E+01  0.10302868090E+01 0.  0.
     999903    2    3    3    0    0 -0.47798548798E-01 -0.24136565526E-01 -0.12003206272E+00  0.13893274677E+00  0.45025958995E-01 0.  0.
         14    1    1    2    0    0 -0.73424835538E-02  0.56060438476E-02 -0.99182752281E-02  0.13554039098E-01  0.00000000000E+00 0.  1.
     999901    1    3    3    0    0  0.55141032352E-01  0.18530521678E-01  0.12995033795E+00  0.89144321413E+00  0.88000000000E+00 0. -1.
        -11    1    4    4    0    0 -0.98102124208E-02 -0.16729794067E-01 -0.83445187147E-01  0.85670803990E-01  0.51100000000E-03 0.  1.
         11    1    4    4    0    0 -0.37988336377E-01 -0.74067714581E-02 -0.36586875570E-01  0.53261942784E-01  0.51100000000E-03 0. -1.
</event>
<event>
 8    1  0.2825007E+004  0.1043930E+01  0.7957747E-01            NaN
         13   -1    0    0    0    0  0.00000000000E+00  0.00000000000E+00  0.74505805969E-08  0.10566000000E+00  0.10566000000E+00 0.  1.
     999900   -1    0    0    0    0 -0.00000000000E+00 -0.00000000000E+00 -0.74505805969E-08  0.93827000000E+00  0.93827000000E+00 0.  1.
     999902    2    1    2    0    0  0.94430301163E-02  0.54201933266E-02 -0.18066907095E-03  0.10330404658E+01  0.10329830696E+01 0.  0.
     999903    2    3    3    0    0 -0.76602137156E-01  0.11042298744E+00 -0.16509067165E-01  0.14248110554E+00  0.44353044597E-01 0.  0.
         14    1    1    2    0    0 -0.94430301163E-02 -0.54201933266E-02  0.18066907095E-03  0.10889534186E-01  0.00000000000E+00 0. -1.
     999901    1    3    3    0    0  0.86045167272E-01 -0.10500279412E+00  0.16328398094E-01  0.89055936027E+00  0.88000000000E+00 0.  1.
        -11    1    4    4    0    0 -0.42289627492E-01  0.27146815677E-01  0.29180220894E-02  0.50340224163E-01  0.51100000000E-03 0. -1.
         11    1    4    4    0    0 -0.34312509664E-01  0.83276171767E-01 -0.19427089254E-01  0.92140881380E-01  0.51100000000E-03 0.  1.
</event>
<event>
 8    1  0.2825007E+004  0.1043930E+01  0.7957747E-01            NaN
         13   -1    0    0    0    0  0.00000000000E+00  0.00000000000E+00  0.74505805969E-08  0.10566000000E+00  0.10566000000E+00 0. -1.
     999900   -1    0    0    0    0 -0.00000000000E+00 -0.00000000000E+00 -0.74505805969E-08  0.93827000000E+00  0.93827000000E+00 0.  1.
     999902    2    1    2    0    0  0.70621510453E-03  0.14289400990E-01  0.18608246722E-02  0.10295026514E+01  0.10294015547E+01 0.  0.
     999903    2    3    3    0    0  0.60652883992E-01 -0.11518228896E+00 -0.41031711411E-02  0.13799152363E+00  0.45597067380E-01 0.  0.
         14    1    1    2    0    0 -0.70621510453E-03 -0.14289400990E-01 -0.18608246722E-02  0.14427348644E-01  0.00000000000E+00 0. -1.
     999901    1    3    3    0    0 -0.59946668888E-01  0.12947168995E+00  0.59639958133E-02  0.89151112772E+00  0.88000000000E+00 0. -1.
        -11    1    4    4    0    0  0.17683979629E-01 -0.47518728218E-01  0.19666693658E-01  0.54385592094E-01  0.51100000000E-03 0. -1.
         11    1    4    4    0    0  0.42968904363E-01 -0.67663560744E-01 -0.23769864799E-01  0.83605931538E-01  0.51100000000E-03 0.  1.
</event>
<event>
 8    1  0.2825007E+004  0.1043930E+01  0.7957747E-01            NaN
         13   -1    0    0    0    0  0.00000000000E+00  0.00000000000E+00  0.74505805969E-08  0.10566000000E+00  0.10566000000E+00 0.  1.
     999900   -1    0    0    0    0 -0.00000000000E+00 -0.00000000000E+00 -0.74505805969E-08  0.93827000000E+00  0.93827000000E+00 0.  1.
     999902    2    1    2    0    0  0.86512362225E-02  0.49921116433E-02  0.98405323759E-02  0.10299085470E+01  0.10298130967E+01 0.  0.
     999903    2    3    3    0    0  0.13285165221E+00 -0.46852296105E-02  0.14309704225E-01  0.14112321422E+00  0.45160614312E-01 0.  0.
         14    1    1    2    0    0 -0.86512362225E-02 -0.49921116433E-02 -0.98405323759E-02  0.14021453002E-01  0.00000000000E+00 0.  1.
     999901    1    3    3    0    0 -0.12420041599E+00  0.96773412538E-02 -0.44691718490E-02  0.88878533278E+00  0.88000000000E+00 0. -1.
        -11    1    4    4    0    0  0.12420750786E+00 -0.41074667202E-02 -0.12964602108E-03  0.12427652321E+00  0.51100000000E-03 0. -1.
         11    1    4    4    0    0  0.86441443512E-02 -0.57776289029E-03  0.14439350246E-01  0.16846691012E-01  0.51100000000E-03 0.  1.
</event>
<event>
 8    1  0.2825007E+004  0.1043930E+01  0.7957747E-01            NaN
         13   -1    0    0    0    0  0.00000000000E+00  0.00000000000E+00  0.74505805969E-08  0.10566000000E+00  0.10566000000E+00 0.  1.
     999900   -1    0    0    0    0 -0.00000000000E+00 -0.00000000000E+00 -0.74505805969E-08  0.93827000000E+00  0.93827000000E+00 0.  1.
     999902    2    1    2    0    0 -0.12061124576E-01 -0.24654037710E-02 -0.24530609482E-02  0.10313774525E+01  0.10313010632E+01 0.  0.
     999903    2    3    3    0    0  0.34449891518E-01 -0.12887270368E+00 -0.10129474005E-01  0.14109603212E+00  0.44838769565E-01 0.  0.
         14    1    1    2    0    0  0.12061124576E-01  0.24654037710E-02  0.24530609482E-02  0.12552547542E-01  0.00000000000E+00 0.  1.
     999901    1    3    3    0    0 -0.46511016094E-01  0.12640729991E+00  0.76764130571E-02  0.89028142034E+00  0.88000000000E+00 0. -1.
        -11    1    4    4    0    0  0.23625196881E-01 -0.38843478080E-01  0.13425579708E-01  0.47407520802E-01  0.51100000000E-03 0.  1.
         11    1    4    4    0    0  0.10824694637E-01 -0.90029225599E-01 -0.23555053713E-01  0.93688511314E-01  0.51100000000E-03 0. -1.
</event>
<event>
 8    1  0.2825007E+004  0.1043930E+01  0.7957747E-01            NaN
         13   -1    0    0    0    0  0.00000000000E+00  0.00000000000E+00  0.74505805969E-08  0.10566000000E+00  0.10566000000E+00 0. -1.
     999900   -1    0    0    0    0 -0.00000000000E+00 -0.00000000000E+00 -0.74505805969E-08  0.93827000000E+00  0.93827000000E+00 0. -1.
     999902    2    1    2    0    0 -0.37949735964E-02 -0.11490024043E-01 -0.63647735171E-02  0.10302576623E+01  0.10301669369E+01 0.  0.
     999903    2    3    3    0    0 -0.59251448887E-01  0.11675096988E+00  0.74615654793E-02  0.13912785084E+00  0.46468922466E-01 0.  0.
         14    1    1    2    0    0  0.37949735964E-02  0.11490024043E-01  0.63647735171E-02  0.13672337731E-01  0.00000000000E+00 0. -1.
     999901    1    3    3    0    0  0.55456475290E-01 -0.12824099393E+00 -0.13826338996E-01  0.89112981143E+00  0.88000000000E+00 0. -1.
        -11    1    4    4    0    0 -0.50949074208E-01  0.49083084785E-01  0.33556253602E-02  0.70827104396E-01  0.51100000000E-03 0. -1.
         11    1    4    4    0    0 -0.83023746788E-02  0.67667885098E-01  0.41059401191E-02  0.68300746440E-01  0.51100000000E-03 0.  1.
</event>
<event>
 8    1  0.2825007E+004  0.1043930E+01  0.7957747E-01            NaN
         13   -1    0    0    0    0  0.00000000000E+00  0.00000000000E+00  0.74505805969E-08  0.10566000000E+00  0.10566000000E+00 0. -1.
     999900   -1    0    0    0    0 -0.00000000000E+00 -0.00000000000E+00 -0.74505805969E-08  0.93827000000E+00  0.93827000000E+00 0. -1.
     999902    2    1    2    0    0 -0.48034915882E-02  0.12279655901E-01  0.19429600423E-02  0.10306018878E+01  0.10305157023E+01 0.  0.
     999903    2    3    3    0    0 -0.79166254704E-01 -0.88382159742E-01 -0.58538064146E-01  0.13969191709E+00  0.44815451592E-01 0.  0.
         14    1    1    2    0    0  0.48034915882E-02 -0.12279655901E-01 -0.19429600423E-02  0.13328112177E-01  0.00000000000E+00 0. -1.
     999901    1    3    3    0    0  0.74362763116E-01  0.10066181564E+00  0.60481024188E-01  0.89090997073E+00  0.88000000000E+00 0.  1.
        -11    1    4    4    0    0 -0.58896943843E-01 -0.88241334197E-01 -0.44594095912E-01  0.11508378498E+00  0.51100000000E-03 0.  1.
         11    1    4    4    0    0 -0.20269310861E-01 -0.14082554583E-03 -0.13943968234E-01  0.24608132106E-01  0.51100000000E-03 0. -1.
</event>
<event>
 8    1  0.2825007E+004  0.1043930E+01  0.7957747E-01            NaN
         13   -1    0    0    0    0  0.00000000000E+00  0.00000000000E+00  0.74505805969E-08  0.10566000000E+00  0.10566000000E+00 0.  1.
     999900   -1    0    0    0    0 -0.00000000000E+00 -0.00000000000E+00 -0.74505805969E-08  0.93827000000E+00  0.93827000000E+00 0. -1.
     999902    2    1    2    0    0  0.11296516027E-01  0.56272691478E-02 -0.13591022850E-02  0.10312365138E+01  0.10311583888E+01 0.  0.
     999903    2    3    3    0    0  0.63086671152E-01 -0.82245959580E-01  0.84688428378E-01  0.14117578441E+00  0.44879240853E-01 0.  0.
         14    1    1    2    0    0 -0.11296516027E-01 -0.56272691478E-02  0.13591022850E-02  0.12693486181E-01  0.00000000000E+00 0.  1.
     999901    1    3    3    0    0 -0.51790155126E-01  0.87873228728E-01 -0.86047530663E-01  0.89006072940E+00  0.88000000000E+00 0. -1.
        -11    1    4    4    0    0  0.17908070370E-01 -0.37231591970E-01  0.59860607624E-01  0.72735437656E-01  0.51100000000E-03 0. -1.
         11    1    4    4    0    0  0.45178600782E-01 -0.45014367611E-01  0.24827820755E-01  0.68440346758E-01  0.51100000000E-03 0.  1.
</event>
<event>
 8    1  0.2825007E+004  0.1043930E+01  0.7957747E-01            NaN
         13   -1    0    0    0    0  0.00000000000E+00  0.00000000000E+00  0.74505805969E-08  0.10566000000E+00  0.10566000000E+00 0. -1.
     999900   -1    0    0    0    0 -0.00000000000E+00 -0.00000000000E+00 -0.74505805969E-08  0.93827000000E+00  0.93827000000E+00 0.  1.
     999902    2    1    2    0    0 -0.29393879765E-02  0.34951465501E-02 -0.12676305241E-01  0.10304561451E+01  0.10303680518E+01 0.  0.
     999903    2    3    3    0    0  0.82665542756E-01  0.18710954695E-01 -0.10391811913E+00  0.14147650890E+00  0.45088083830E-01 0.  0.
         14    1    1    2    0    0  0.29393879765E-02 -0.34951465501E-02  0.12676305241E-01  0.13473854892E-01  0.00000000000E+00 0. -1.
     999901    1    3    3    0    0 -0.85604930732E-01 -0.15215808145E-01  0.91241813889E-01  0.88897963620E+00  0.88000000000E+00 0. -1.
        -11    1    4    4    0    0  0.37712867431E-02 -0.83845439972E-02 -0.14101572043E-02  0.93151943662E-02  0.51100000000E-03 0.  1.
         11    1    4    4    0    0  0.78894256012E-01  0.27095498693E-01 -0.10250796193E+00  0.13216131454E+00  0.51100000000E-03 0. -1.
</event>
<event>
 8    1  0.2825007E+004  0.1043930E+01  0.7957747E-01            NaN
         13   -1    0    0    0    0  0.00000000000E+00  0.00000000000E+00  0.74505805969E-08  0.10566000000E+00  0.10566000000E+00 0.  1.
     999900   -1    0    0    0    0 -0.00000000000E+00 -0.00000000000E+00 -0.74505805969E-08  0.93827000000E+00  0.93827000000E+00 0. -1.
     999902    2    1    2    0    0 -0.23255543809E-03  0.30055529353E-02  0.13465298800E-01  0.10301313877E+01  0.10300389673E+01 0.  0.
     999903    2    3    3    0    0  0.12763814148E+00 -0.75648563633E-02 -0.38724593768E-01  0.13929670403E+00  0.39436726268E-01 0.  0.
         14    1    1    2    0    0  0.23255543809E-03 -0.30055529353E-02 -0.13465298800E-01  0.13798612331E-01  0.00000000000E+00 0. -1.
     999901    1    3    3    0    0 -0.12787069692E+00  0.10570409299E-01  0.52189892568E-01  0.89083468364E+00  0.88000000000E+00 0. -1.
        -11    1    4    4    0    0  0.25187232893E-01  0.81083383690E-03 -0.25156228839E-01  0.35611109540E-01  0.51100000000E-03 0.  1.
         11    1    4    4    0    0  0.10245090859E+00 -0.83756902002E-02 -0.13568364929E-01  0.10368559449E+00  0.51100000000E-03 0. -1.
</event>
<event>
 8    1  0.2825007E+004  0.1043930E+01  0.7957747E-01            NaN
         13   -1    0    0    0    0  0.00000000000E+00  0.00000000000E+00  0.74505805969E-08  0.10566000000E+00  0.10566000000E+00 0.  1.
     999900   -1    0    0    0    0 -0.00000000000E+00 -0.00000000000E+00 -0.74505805969E-08  0.93827000000E+00  0.93827000000E+00 0.  1.
     999902    2    1    2    0    0 -0.62620597263E-02  0.41177497261E-02  0.10964177260E-01  0.10306490950E+01  0.10305635228E+01 0.  0.
     999903    2    3    3    0    0  0.43491879814E-01  0.68518719653E-01  0.10712320927E+00  0.14167806123E+00  0.44843422242E-01 0.  0.
         14    1    1    2    0    0  0.62620597263E-02 -0.41177497261E-02 -0.10964177260E-01  0.13280905007E-01  0.00000000000E+00 0. -1.
     999901    1    3    3    0    0 -0.49753939540E-01 -0.64400969927E-01 -0.96159032008E-01  0.88897103376E+00  0.88000000000E+00 0.  1.
        -11    1    4    4    0    0  0.11917163496E-01  0.47634546025E-01  0.84044048480E-01  0.97338234865E-01  0.51100000000E-03 0.  1.
         11    1    4    4    0    0  0.31574716318E-01  0.20884173628E-01  0.23079160788E-01  0.44339826368E-01  0.51100000000E-03 0. -1.
</event>
<event>
 8    1  0.2825007E+004  0.1043930E+01  0.7957747E-01            NaN
         13   -1    0    0    0    0  0.00000000000E+00  0.00000000000E+00  0.74505805969E-08  0.10566000000E+00  0.10566000000E+00 0.  1.
     999900   -1    0    0    0    0 -0.00000000000E+00 -0.00000000000E+00 -0.74505805969E-08  0.93827000000E+00  0.93827000000E+00 0. -1.
     999902    2    1    2    0    0 -0.11255016696E-01  0.94516071219E-02  0.71939673970E-02  0.10275665821E+01  0.10274362848E+01 0.  0.
     999903    2    3    3    0    0  0.71204919367E-01 -0.70783822654E-01  0.81769594544E-01  0.13694944248E+00  0.44591401769E-01 0.  0.
         14    1    1    2    0    0  0.11255016696E-01 -0.94516071219E-02 -0.71939673970E-02  0.16363417887E-01  0.00000000000E+00 0. -1.
     999901    1    3    3    0    0 -0.82459936063E-01  0.80235429776E-01 -0.74575627147E-01  0.89061713963E+00  0.88000000000E+00 0.  1.
        -11    1    4    4    0    0  0.44474704209E-01 -0.44377291359E-01  0.76515796779E-01  0.99006421916E-01  0.51100000000E-03 0. -1.
         11    1    4    4    0    0  0.26730215159E-01 -0.26406531295E-01  0.52537977643E-02  0.37943020563E-01  0.51100000000E-03 0.  1.
</event>
<event>
 8    1  0.2825007E+004  0.1043930E+01  0.7957747E-01            NaN
         13   -1    0    0    0    0  0.00000000000E+00  0.00000000000E+00  0.74505805969E-08  0.10566000000E+00  0.10566000000E+00 0.  1.
     999900   -1    0    0    0    0 -0.00000000000E+00 -0.00000000000E+00 -0.74505805969E-08  0.93827000000E+00  0.93827000000E+00 0.  1.
     999902    2    1    2    0    0 -0.34089182474E-02  0.11041327385E-01 -0.11149883594E-01  0.10278722437E+01  0.10277468063E+01 0.  0.
     999903    2    3    3    0    0 -0.11337081960E+00  0.43828845082E-01  0.35444458297E-01  0.13920038423E+00  0.57849174149E-01 0.  0.
         14    1    1    2    0    0  0.34089182474E-02 -0.11041327385E-01  0.11149883594E-01  0.16057756326E-01  0.00000000000E+00 0.  1.
     999901    1    3    3    0    0  0.10996190135E+00 -0.32787517697E-01 -0.46594341892E-01  0.88867185944E+00  0.88000000000E+00 0.  1.
        -11    1    4    4    0    0 -0.73914060312E-01  0.35012034013E-01 -0.50909307482E-02  0.81946992223E-01  0.51100000000E-03 0. -1.
         11    1    4    4    0    0 -0.39456759285E-01  0.88168110685E-02  0.40535389046E-01  0.57253392011E-01  0.51100000000E-03 0.  1.
</event>
<event>
 7    1  0.2825007E+004  0.1043930E+01  0.7957747E-01            NaN
         13   -1    0    0    0    0  0.00000000000E+00  0.00000000000E+00  0.74505805969E-08  0.10566000000E+00  0.10566000000E+00 0. -1.
     999900   -1    0    0    0    0 -0.00000000000E+00 -0.00000000000E+00 -0.74505805969E-08  0.93827000000E+00  0.93827000000E+00 0.  1.
     999902    2    1    2    0    0  0.23593218426E-02  0.15697590154E-01 -0.21934049825E-02  0.10279052766E+01  0.10277803587E+01 0.  0.
         14    1    1    2    0    0 -0.23593218426E-02 -0.15697590154E-01  0.21934049825E-02  0.16024723449E-01  0.00000000000E+00 0. -1.
     999901    1    3    3    0    0  0.10923812318E+00  0.66344344923E-01  0.30170121695E-01  0.88974421937E+00  0.88000000000E+00 0.  1.
        -11    1    3    3    0    0 -0.97685640521E-01 -0.56635789666E-01 -0.10140612657E-01  0.11337191090E+00  0.51100000000E-03 0. -1.
         11    1    3    3    0    0 -0.91931608150E-02  0.59890348965E-02 -0.22222914021E-01  0.24789146281E-01  0.51100000000E-03 0.  1.
</event>
<event>
 8    1  0.2825007E+004  0.1043930E+01  0.7957747E-01            NaN
         13   -1    0    0    0    0  0.00000000000E+00  0.00000000000E+00  0.74505805969E-08  0.10566000000E+00  0.10566000000E+00 0.  1.
     999900   -1    0    0    0    0 -0.00000000000E+00 -0.00000000000E+00 -0.74505805969E-08  0.93827000000E+00  0.93827000000E+00 0. -1.
     999902    2    1    2    0    0  0.94887900540E-02 -0.57479681122E-02 -0.69805649923E-02  0.10308225761E+01  0.10307392390E+01 0.  0.
     999903    2    3    3    0    0 -0.19667776427E-02 -0.91295241043E-01 -0.98803250534E-01  0.14184508958E+00  0.44936153257E-01 0.  0.
         14    1    1    2    0    0 -0.94887900540E-02  0.57479681122E-02  0.69805649923E-02  0.13107423916E-01  0.00000000000E+00 0.  1.
     999901    1    3    3    0    0  0.11455567697E-01  0.85547272931E-01  0.91822685541E-01  0.88897748651E+00  0.88000000000E+00 0. -1.
        -11    1    4    4    0    0  0.11009148662E-01 -0.68959289555E-01 -0.91290718017E-01  0.11493842389E+00  0.51100000000E-03 0. -1.
         11    1    4    4    0    0 -0.12975926305E-01 -0.22335951487E-01 -0.75125325170E-02  0.26906665682E-01  0.51100000000E-03 0.  1.
</event>
<event>
 8    1  0.2825007E+004  0.1043930E+01  0.7957747E-01            NaN
         13   -1    0    0    0    0  0.00000000000E+00  0.00000000000E+00  0.74505805969E-08  0.10566000000E+00  0.10566000000E+00 0.  1.
     999900   -1    0    0    0    0 -0.00000000000E+00 -0.00000000000E+00 -0.74505805969E-08  0.93827000000E+00  0.93827000000E+00 0. -1.
     999902    2    1    2    0    0 -0.19301508579E-02 -0.13311870488E-01  0.59206500480E-02  0.10292335557E+01  0.10291286250E+01 0.  0.
     999903    2    3    3    0    0  0.58803204191E-01  0.10718386123E+00  0.45379858160E-01  0.13807431578E+00  0.45376075422E-01 0.  0.
         14    1    1    2    0    0  0.19301508579E-02  0.13311870488E-01 -0.59206500480E-02  0.14696444305E-01  0.00000000000E+00 0. -1.
     999901    1    3    3    0    0 -0.60733355049E-01 -0.12049573172E+00 -0.39459208112E-01  0.89115923991E+00  0.88000000000E+00 0.  1.
        -11    1    4    4    0    0  0.63856672700E-01  0.78212628320E-01  0.36144149318E-01  0.10724528208E+00  0.51100000000E-03 0.  1.
         11    1    4    4    0    0 -0.50534685091E-02  0.28971232910E-01  0.92357088420E-02  0.30829033704E-01  0.51100000000E-03 0. -1.
</event>
<event>
 8    1  0.2825007E+004  0.1043930E+01  0.7957747E-01            NaN
         13   -1    0    0    0    0  0.00000000000E+00  0.00000000000E+00  0.74505805969E-08  0.10566000000E+00  0.10566000000E+00 0. -1.
     999900   -1    0    0    0    0 -0.00000000000E+00 -0.00000000000E+00 -0.74505805969E-08  0.93827000000E+00  0.93827000000E+00 0. -1.
     999902    2    1    2    0    0 -0.18452640001E-02  0.14452610507E-01 -0.68364729602E-02  0.10278358920E+01  0.10277098815E+01 0.  0.
     999903    2    3    3    0    0  0.11094795746E+00  0.49205743341E-01 -0.50699352565E-01  0.13887355126E+00  0.44550919720E-01 0.  0.
         14    1    1    2    0    0  0.18452640001E-02 -0.14452610507E-01  0.68364729602E-02  0.16094107998E-01  0.00000000000E+00 0. -1.
     999901    1    3    3    0    0 -0.11279322146E+00 -0.34753132834E-01  0.43862879605E-01  0.88896234074E+00  0.88000000000E+00 0.  1.
        -11    1    4    4    0    0  0.72417188108E-01  0.34945102721E-01 -0.55209458775E-01  0.97538478545E-01  0.51100000000E-03 0.  1.
         11    1    4    4    0    0  0.38530769348E-01  0.14260640620E-01  0.45101062092E-02  0.41335072716E-01  0.51100000000E-03 0. -1.
</event>
<event>
 8    1  0.2825007E+004  0.1043930E+01  0.7957747E-01            NaN
         13   -1    0    0    0    0  0.00000000000E+00  0.00000000000E+00  0.74505805969E-08  0.10566000000E+00  0.10566000000E+00 0.  1.
     999900   -1    0    0    0    0 -0.00000000000E+00 -0.00000000000E+00 -0.74505805969E-08  0.93827000000E+00  0.93827000000E+00 0.  1.
     999902    2    1    2    0    0 -0.13622438011E-01  0.36295294912E-02 -0.11233548698E-02  0.10297876442E+01  0.10296905292E+01 0.  0.
     999903    2    3    3    0    0  0.10139679556E+00  0.82869233539E-01 -0.30391714473E-02  0.13877023407E+00  0.45818350937E-01 0.  0.
         14    1    1    2    0    0  0.13622438011E-01 -0.36295294912E-02  0.11233548698E-02  0.14142355810E-01  0.00000000000E+00 0.  1.
     999901    1    3    3    0    0 -0.11501923357E+00 -0.79239704048E-01  0.19158165775E-02  0.89101741012E+00  0.88000000000E+00 0.  1.
        -11    1    4    4    0    0  0.81131204459E-01  0.39011002553E-01  0.30205843920E-02  0.90075055971E-01  0.51100000000E-03 0.  1.
         11    1    4    4    0    0  0.20265591102E-01  0.43858230987E-01 -0.60597558393E-02  0.48695178096E-01  0.51100000000E-03 0. -1.
</event>
<event>
 8    1  0.2825007E+004  0.1043930E+01  0.7957747E-01            NaN
         13   -1    0    0    0    0  0.00000000000E+00  0.00000000000E+00  0.74505805969E-08  0.10566000000E+00  0.10566000000E+00 0.  1.
     999900   -1    0    0    0    0 -0.00000000000E+00 -0.00000000000E+00 -0.74505805969E-08  0.93827000000E+00  0.93827000000E+00 0. -1.
     999902    2    1    2    0    0  0.82127937849E-02  0.93678652650E-02  0.35687233345E-02  0.10309707304E+01  0.10308892784E+01 0.  0.
     999903    2    3    3    0    0 -0.60624418783E-01 -0.14530980988E-01 -0.11658126967E+00  0.13982218081E+00  0.45525599915E-01 0.  0.
         14    1    1    2    0    0 -0.82127937849E-02 -0.93678652650E-02 -0.35687233345E-02  0.12959269563E-01  0.00000000000E+00 0. -1.
     999901    1    3    3    0    0  0.68837212568E-01  0.23898846253E-01  0.12014999300E+00  0.89114854963E+00  0.88000000000E+00 0.  1.
        -11    1    4    4    0    0 -0.27290899285E-01  0.15498753875E-01 -0.37539735991E-01  0.48933602511E-01  0.51100000000E-03 0. -1.
         11    1    4    4    0    0 -0.33333519498E-01 -0.30029734862E-01 -0.79041533676E-01  0.90888578297E-01  0.51100000000E-03 0.  1.
</event>
<event>
 8    1  0.2825007E+004  0.1043930E+01  0.7957747E-01            NaN
         13   -1    0    0    0    0  0.00000000000E+00  0.00000000000E+00  0.74505805969E-08  0.10566000000E+00  0.10566000000E+00 0. -1.
     999900   -1    0    0    0    0 -0.00000000000E+00 -0.00000000000E+00 -0.74505805969E-08  0.93827000000E+00  0.93827000000E+00 0.  1.
     999902    2    1    2    0    0  0.97255416002E-03 -0.12835571330E-01  0.12964393263E-01  0.10256605379E+01  0.10254978136E+01 0.  0.
     999903    2    3    3    0    0  0.74079424344E-01  0.10072722168E+00 -0.20806710574E-01  0.13471631412E+00  0.45627094880E-01 0.  0.
         14    1    1    2    0    0 -0.97255416002E-03  0.12835571330E-01 -0.12964393263E-01  0.18269462106E-01  0.00000000000E+00 0.  1.
     999901    1    3    3    0    0 -0.73106870184E-01 -0.11356279301E+00  0.33771103837E-01  0.89094422377E+00  0.88000000000E+00 0. -1.
        -11    1    4    4    0    0  0.65604708681E-01  0.81683421036E-01  0.68732412592E-03  0.10477066674E+00  0.51100000000E-03 0. -1.
         11    1    4    4    0    0  0.84747156634E-02  0.19043800640E-01 -0.21494034700E-01  0.29945647381E-01  0.51100000000E-03 0.  1.
</event>
<event>
 8    1  0.2825007E+004  0.1043930E+01  0.7957747E-01            NaN
         13   -1    0    0    0    0  0.00000000000E+00  0.00000000000E+00  0.74505805969E-08  0.10566000000E+00  0.10566000000E+00 0. -1.
     999900   -1    0    0    0    0 -0.00000000000E+00 -0.00000000000E+00 -0.74505805969E-08  0.93827000000E+00  0.93827000000E+00 0. -1.
     999902    2    1    2    0    0 -0.13362381259E-01  0.85166702881E-02  0.15269697573E-04  0.10280842706E+01  0.10279621493E+01 0.  0.
     999903    2    3    3    0    0 -0.97869256434E-01 -0.84688894075E-01 -0.25362408555E-01  0.13877402347E+00  0.43178440067E-01 0.  0.
         14    1    1    2    0    0  0.13362381259E-01 -0.85166702881E-02 -0.15269697573E-04  0.15845729357E-01  0.00000000000E+00 0. -1.
     999901    1    3    3    0    0  0.84506875175E-01  0.93205564363E-01  0.25377678253E-01  0.88931024718E+00  0.88000000000E+00 0. -1.
        -11    1    4    4    0    0 -0.60594936803E-01 -0.27019694906E-01 -0.24842932135E-02  0.66394601533E-01  0.51100000000E-03 0.  1.
         11    1    4    4    0    0 -0.37274319631E-01 -0.57669199169E-01 -0.22878115342E-01  0.72379421933E-01  0.51100000000E-03 0. -1.
</event>
<event>
 8    1  0.2825007E+004  0.1043930E+01  0.7957747E-01            NaN
         13   -1    0    0    0    0  0.00000000000E+00  0.00000000000E+00  0.74505805969E-08  0.10566000000E+00  0.10566000000E+00 0.  1.
     999900   -1    0    0    0    0 -0.00000000000E+00 -0.00000000000E+00 -0.74505805969E-08  0.93827000000E+00  0.93827000000E+00 0. -1.
     999902    2    1    2    0    0  0.41407523490E-02 -0.20972273010E-02 -0.12927653784E-01  0.10301943375E+01  0.10301027641E+01 0.  0.
     999903    2    3    3    0    0 -0.92917047119E-01  0.92582694037E-01 -0.19170404821E-01  0.13978798313E+00  0.44362629824E-01 0.  0.
         14    1    1    2    0    0 -0.41407523490E-02  0.20972273010E-02  0.12927653784E-01  0.13735662515E-01  0.00000000000E+00 0.  1.
     999901    1    3    3    0    0  0.97057799468E-01 -0.94679921338E-01  0.62427510370E-02  0.89040635436E+00  0.88000000000E+00 0. -1.
        -11    1    4    4    0    0 -0.27872166789E-01  0.55711254385E-01  0.11443606366E-02  0.62307080087E-01  0.51100000000E-03 0.  1.
         11    1    4    4    0    0 -0.65044880330E-01  0.36871439652E-01 -0.20314765458E-01  0.77480903039E-01  0.51100000000E-03 0. -1.
</event>
<event>
 8    1  0.2825007E+004  0.1043930E+01  0.7957747E-01            NaN
         13   -1    0    0    0    0  0.00000000000E+00  0.00000000000E+00  0.74505805969E-08  0.10566000000E+00  0.10566000000E+00 0. -1.
     999900   -1    0    0    0    0 -0.00000000000E+00 -0.00000000000E+00 -0.74505805969E-08  0.93827000000E+00  0.93827000000E+00 0. -1.
     999902    2    1    2    0    0 -0.10753292087E-01 -0.32988067092E-03 -0.95766402492E-02  0.10295267313E+01  0.10294259741E+01 0.  0.
     999903    2    3    3    0    0 -0.12013342234E+00 -0.58425641169E-01  0.24244733883E-02  0.14077302128E+00  0.44334757686E-01 0.  0.
         14    1    1    2    0    0  0.10753292087E-01  0.32988067092E-03  0.95766402492E-02  0.14403268741E-01  0.00000000000E+00 0. -1.
     999901    1    3    3    0    0  0.10938013025E+00  0.58095760498E-01 -0.12001113637E-01  0.88875370998E+00  0.88000000000E+00 0.  1.
        -11    1    4    4    0    0 -0.58265566197E-01 -0.28914606725E-01 -0.20968198581E-01  0.68343669488E-01  0.51100000000E-03 0. -1.
         11    1    4    4    0    0 -0.61867856141E-01 -0.29511034444E-01  0.23392671970E-01  0.72429351787E-01  0.51100000000E-03 0.  1.
</event>
<event>
 7    1  0.2825007E+004  0.1043930E+01  0.7957747E-01            NaN
         13   -1    0    0    0    0  0.00000000000E+00  0.00000000000E+00  0.74505805969E-08  0.10566000000E+00  0.10566000000E+00 0.  1.
     999900   -1    0    0    0    0 -0.00000000000E+00 -0.00000000000E+00 -0.74505805969E-08  0.93827000000E+00  0.93827000000E+00 0. -1.
     999903    2    1    2    0    0 -0.48867932631E-01  0.79651483366E-01 -0.24355805012E-01  0.11284680869E+00  0.58384615711E-01 0.  0.
         14    1    1    2    0    0 -0.13384802449E-01  0.37689806371E-01 -0.67969730714E-02  0.40569363857E-01  0.00000000000E+00 0.  1.
     999901    1    1    2    0    0  0.62252735080E-01 -0.11734128974E+00  0.31152778084E-01  0.89051382745E+00  0.88000000000E+00 0.  1.
        -11    1    3    3    0    0  0.13380947743E-02  0.37300257684E-01  0.10104273189E-01  0.38671141418E-01  0.51100000000E-03 0. -1.
         11    1    3    3    0    0 -0.50206027405E-01  0.42351225682E-01 -0.34460078201E-01  0.74175667272E-01  0.51100000000E-03 0.  1.
</event>
<event>
 8    1  0.2825007E+004  0.1043930E+01  0.7957747E-01            NaN
         13   -1    0    0    0    0  0.00000000000E+00  0.00000000000E+00  0.74505805969E-08  0.10566000000E+00  0.10566000000E+00 0. -1.
     999900   -1    0    0    0    0 -0.00000000000E+00 -0.00000000000E+00 -0.74505805969E-08  0.93827000000E+00  0.93827000000E+00 0. -1.
     999902    2    1    2    0    0 -0.12274456518E-01 -0.54674776989E-02 -0.71255890880E-03  0.10304740223E+01  0.10303861642E+01 0.  0.
     999903    2    3    3    0    0 -0.63093159566E-01  0.14029815365E-03 -0.11780014139E+00  0.14124767897E+00  0.45752235310E-01 0.  0.
         14    1    1    2    0    0  0.12274456518E-01  0.54674776989E-02  0.71255890880E-03  0.13455977683E-01  0.00000000000E+00 0.  1.
     999901    1    3    3    0    0  0.50818703048E-01 -0.56077758526E-02  0.11708758248E+00  0.88922634335E+00  0.88000000000E+00 0.  1.
        -11    1    4    4    0    0 -0.24921340448E-01 -0.11803623734E-01 -0.85488717346E-01  0.89827505016E-01  0.51100000000E-03 0.  1.
         11    1    4    4    0    0 -0.38171819119E-01  0.11943921888E-01 -0.32311424043E-01  0.51420173955E-01  0.51100000000E-03 0. -1.
</event>
<event>
 8    1  0.2825007E+004  0.1043930E+01  0.7957747E-01            NaN
         13   -1    0    0    0    0  0.00000000000E+00  0.00000000000E+00  0.74505805969E-08  0.10566000000E+00  0.10566000000E+00 0.  1.
     999900   -1    0    0    0    0 -0.00000000000E+00 -0.00000000000E+00 -0.74505805969E-08  0.93827000000E+00  0.93827000000E+00 0. -1.
     999902    2    1    2    0    0  0.53789916037E-02 -0.11161358938E-01 -0.43301621555E-02  0.10308052224E+01  0.10307216630E+01 0.  0.
     999903    2    3    3    0    0  0.10660768989E+00 -0.58822799273E-01 -0.57632460819E-01  0.14212080295E+00  0.45293496588E-01 0.  0.
         14    1    1    2    0    0 -0.53789916037E-02  0.11161358938E-01  0.43301621555E-02  0.13124777648E-01  0.00000000000E+00 0.  1.
     999901    1    3    3    0    0 -0.10122869828E+00  0.47661440335E-01  0.53302298663E-01  0.88868441941E+00  0.88000000000E+00 0.  1.
        -11    1    4    4    0    0  0.25925241964E-01 -0.16246471331E-01 -0.38026424818E-01  0.48809180561E-01  0.51100000000E-03 0. -1.
         11    1    4    4    0    0  0.80682447921E-01 -0.42576327942E-01 -0.19606036001E-01  0.93311622386E-01  0.51100000000E-03 0.  1.
</event>
<event>
 8    1  0.2825007E+004  0.1043930E+01  0.7957747E-01            NaN
         13   -1    0    0    0    0  0.00000000000E+00  0.00000000000E+00  0.74505805969E-08  0.10566000000E+00  0.10566000000E+00 0. -1.
     999900   -1    0    0    0    0 -0.00000000000E+00 -0.00000000000E+00 -0.74505805969E-08  0.93827000000E+00  0.93827000000E+00 0. -1.
     999902    2    1    2    0    0  0.46783850150E-02 -0.19274018260E-02 -0.16994999259E-01  0.10261977648E+01  0.10260445509E+01 0.  0.
     999903    2    3    3    0    0 -0.89834990365E-01 -0.82055825545E-01  0.40129324755E-01  0.13568300875E+00  0.44676975703E-01 0.  0.
         14    1    1    2    0    0 -0.46783850150E-02  0.19274018260E-02  0.16994999259E-01  0.17732235165E-01  0.00000000000E+00 0. -1.
     999901    1    3    3    0    0  0.94513375380E-01  0.80128423719E-01 -0.57124324014E-01  0.89051475609E+00  0.88000000000E+00 0.  1.
        -11    1    4    4    0    0 -0.34961832528E-01 -0.59228983231E-01  0.11580152636E-01  0.69747854766E-01  0.51100000000E-03 0. -1.
         11    1    4    4    0    0 -0.54873157837E-01 -0.22826842313E-01  0.28549172119E-01  0.65935153983E-01  0.51100000000E-03 0.  1.
</event>
<event>
 8    1  0.2825007E+004  0.1043930E+01  0.7957747E-01            NaN
         13   -1    0    0    0    0  0.00000000000E+00  0.00000000000E+00  0.74505805969E-08  0.10566000000E+00  0.10566000000E+00 0.  1.
     999900   -1    0    0    0    0 -0.00000000000E+00 -0.00000000000E+00 -0.74505805969E-08  0.93827000000E+00  0.93827000000E+00 0. -1.
     999902    2    1    2    0    0 -0.24029424592E-02  0.12893209143E-01  0.62506957474E-02  0.10294014016E+01  0.10292988708E+01 0.  0.
     999903    2    3    3    0    0 -0.20742297575E-02 -0.13009200501E+00 -0.60768903049E-03  0.13783428860E+00  0.45493841698E-01 0.  0.
         14    1    1    2    0    0  0.24029424592E-02 -0.12893209143E-01 -0.62506957474E-02  0.14528598411E-01  0.00000000000E+00 0. -1.
     999901    1    3    3    0    0 -0.32871270175E-03  0.14298521415E+00  0.68583847779E-02  0.89156711299E+00  0.88000000000E+00 0. -1.
        -11    1    4    4    0    0 -0.52940645532E-03 -0.65863406599E-01 -0.23041083322E-01  0.69781238464E-01  0.51100000000E-03 0.  1.
         11    1    4    4    0    0 -0.15448233022E-02 -0.64228598409E-01  0.22433394291E-01  0.68053050138E-01  0.51100000000E-03 0. -1.
</event>
<event>
 8    1  0.2825007E+004  0.1043930E+01  0.7957747E-01            NaN
         13   -1    0    0    0    0  0.00000000000E+00  0.00000000000E+00  0.74505805969E-08  0.10566000000E+00  0.10566000000E+00 0. -1.
     999900   -1    0    0    0    0 -0.00000000000E+00 -0.00000000000E+00 -0.74505805969E-08  0.93827000000E+00  0.93827000000E+00 0. -1.
     999902    2    1    2    0    0 -0.12131651914E-01 -0.20801453958E-01 -0.73338174902E-02  0.10187573493E+01  0.10184463041E+01 0.  0.
     999903    2    3    3    0    0  0.10055235367E+00  0.38521272491E-01  0.50170075924E-01  0.12773346142E+00  0.46948230907E-01 0.  0.
         14    1    1    2    0    0  0.12131651914E-01  0.20801453958E-01  0.73338174902E-02  0.25172650713E-01  0.00000000000E+00 0. -1.
     999901    1    3    3    0    0 -0.11268400559E+00 -0.59322726450E-01 -0.57503893414E-01  0.89102388787E+00  0.88000000000E+00 0.  1.
        -11    1    4    4    0    0  0.43931321081E-01  0.28204176030E-01  0.12926641429E-02  0.52224214872E-01  0.51100000000E-03 0.  1.
         11    1    4    4    0    0  0.56621032591E-01  0.10317096461E-01  0.48877411781E-01  0.75509246549E-01  0.51100000000E-03 0. -1.
</event>
<event>
 8    1  0.2825007E+004  0.1043930E+01  0.7957747E-01            NaN
         13   -1    0    0    0    0  0.00000000000E+00  0.00000000000E+00  0.74505805969E-08  0.10566000000E+00  0.10566000000E+00 0. -1.
     999900   -1    0    0    0    0 -0.00000000000E+00 -0.00000000000E+00 -0.74505805969E-08  0.93827000000E+00  0.93827000000E+00 0.  1.
     999902    2    1    2    0    0 -0.23971162355E-03 -0.36155048645E-02  0.12614922174E-01  0.10308050010E+01  0.10307214388E+01 0.  0.
     999903    2    3    3    0    0 -0.22457320643E-01  0.11701866956E+00 -0.56972803640E-01  0.13957625496E+00  0.45143441594E-01 0.  0.
         14    1    1    2    0    0  0.23971162355E-03  0.36155048645E-02 -0.12614922174E-01  0.13124998992E-01  0.00000000000E+00 0.  1.
     999901    1    3    3    0    0  0.22217609019E-01 -0.12063417443E+00  0.69587725814E-01  0.89122874604E+00  0.88000000000E+00 0. -1.
        -11    1    4    4    0    0  0.69567344303E-02  0.51741677729E-01 -0.79730519501E-02  0.52815036179E-01  0.51100000000E-03 0.  1.
         11    1    4    4    0    0 -0.29414055073E-01  0.65276991832E-01 -0.48999751689E-01  0.86761218785E-01  0.51100000000E-03 0. -1.
</event>
<event>
 8    1  0.2825007E+004  0.1043930E+01  0.7957747E-01            NaN
         13   -1    0    0    0    0  0.00000000000E+00  0.00000000000E+00  0.74505805969E-08  0.10566000000E+00  0.10566000000E+00 0. -1.
     999900   -1    0    0    0    0 -0.00000000000E+00 -0.00000000000E+00 -0.74505805969E-08  0.93827000000E+00  0.93827000000E+00 0.  1.
     999902    2    1    2    0    0 -0.77004217627E-02  0.82248712628E-02  0.78087638183E-02  0.10302215429E+01  0.10301303343E+01 0.  0.
     999903    2    3    3    0    0 -0.11775825305E+00  0.29575601030E-01 -0.55825415554E-01  0.14082967842E+00  0.44438710189E-01 0.  0.
         14    1    1    2    0    0  0.77004217627E-02 -0.82248712628E-02 -0.78087638183E-02  0.13708457061E-01  0.00000000000E+00 0.  1.
     999901    1    3    3    0    0  0.11005783129E+00 -0.21350729768E-01  0.63634179372E-01  0.88939186452E+00  0.88000000000E+00 0.  1.
        -11    1    4    4    0    0 -0.13857262536E-02  0.63101795365E-02 -0.13245159099E-01  0.14745642190E-01  0.51100000000E-03 0. -1.
         11    1    4    4    0    0 -0.11637252680E+00  0.23265421494E-01 -0.42580256455E-01  0.12608403623E+00  0.51100000000E-03 0.  1.
</event>
<event>
 8    1  0.2825007E+004  0.1043930E+01  0.7957747E-01            NaN
         13   -1    0    0    0    0  0.00000000000E+00  0.00000000000E+00  0.74505805969E-08  0.10566000000E+00  0.10566000000E+00 0.  1.
     999900   -1    0    0    0    0 -0.00000000000E+00 -0.00000000000E+00 -0.74505805969E-08  0.93827000000E+00  0.93827000000E+00 0. -1.
     999902    2    1    2    0    0 -0.58854665606E-02  0.34533382259E-03  0.12348857100E-01  0.10302459858E+01  0.10301551044E+01 0.  0.
     999903    2    3    3    0    0 -0.90583211874E-01 -0.20666978815E-01 -0.93956168216E-01  0.13956311087E+00  0.44918349066E-01 0.  0.
         14    1    1    2    0    0  0.58854665606E-02 -0.34533382259E-03 -0.12348857100E-01  0.13684014169E-01  0.00000000000E+00 0. -1.
     999901    1    3    3    0    0  0.84697745313E-01  0.21012312637E-01  0.10630502532E+00  0.89068287496E+00  0.88000000000E+00 0.  1.
        -11    1    4    4    0    0 -0.65565929636E-01 -0.34535980311E-01 -0.73645820574E-01  0.10447771568E+00  0.51100000000E-03 0. -1.
         11    1    4    4    0    0 -0.25017282238E-01  0.13869001497E-01 -0.20310347642E-01  0.35085395187E-01  0.51100000000E-03 0.  1.
</event>
<event>
 8    1  0.2825007E+004  0.1043930E+01  0.7957747E-01            NaN
         13   -1    0    0    0    0  0.00000000000E+00  0.00000000000E+00  0.74505805969E-08  0.10566000000E+00  0.10566000000E+00 0.  1.
     999900   -1    0    0    0    0 -0.00000000000E+00 -0.00000000000E+00 -0.74505805969E-08  0.93827000000E+00  0.93827000000E+00 0. -1.
     999902    2    1    2    0    0  0.11555548382E-01 -0.79415705170E-02 -0.33827759731E-02  0.10295063245E+01  0.10294052797E+01 0.  0.
     999903    2    3    3    0    0  0.22614746984E-01  0.99059051626E-02  0.12915787442E+00  0.13933338500E+00  0.46070401715E-01 0.  0.
         14    1    1    2    0    0 -0.11555548382E-01  0.79415705170E-02  0.33827759731E-02  0.14423675467E-01  0.00000000000E+00 0.  1.
     999901    1    3    3    0    0 -0.11059198602E-01 -0.17847475680E-01 -0.13254065039E+00  0.89017293953E+00  0.88000000000E+00 0. -1.
        -11    1    4    4    0    0 -0.11307304417E-01  0.10883597727E-02  0.67128843419E-01  0.68085111442E-01  0.51100000000E-03 0.  1.
         11    1    4    4    0    0  0.33922051401E-01  0.88175453899E-02  0.62029031000E-01  0.71248273563E-01  0.51100000000E-03 0. -1.
</event>
<event>
 8    1  0.2825007E+004  0.1043930E+01  0.7957747E-01            NaN
         13   -1    0    0    0    0  0.00000000000E+00  0.00000000000E+00  0.74505805969E-08  0.10566000000E+00  0.10566000000E+00 0.  1.
     999900   -1    0    0    0    0 -0.00000000000E+00 -0.00000000000E+00 -0.74505805969E-08  0.93827000000E+00  0.93827000000E+00 0.  1.
     999902    2    1    2    0    0  0.19476656989E-02  0.11983691710E-01  0.65711487836E-02  0.10301248464E+01  0.10300323378E+01 0.  0.
     999903    2    3    3    0    0  0.12364395423E+00 -0.44099519962E-01 -0.19324283202E-01  0.13960483730E+00  0.43399165845E-01 0.  0.
         14    1    1    2    0    0 -0.19476656989E-02 -0.11983691710E-01 -0.65711487836E-02  0.13805153567E-01  0.00000000000E+00 0. -1.
     999901    1    3    3    0    0 -0.12169628853E+00  0.56083211672E-01  0.25895431986E-01  0.89052000914E+00  0.88000000000E+00 0. -1.
        -11    1    4    4    0    0  0.12032785064E+00 -0.30349374474E-01 -0.17854908878E-01  0.12537517722E+00  0.51100000000E-03 0.  1.
         11    1    4    4    0    0  0.33161035916E-02 -0.13750145488E-01 -0.14693743241E-02  0.14229660076E-01  0.51100000000E-03 0. -1.
</event>
<event>
 7    1  0.2825007E+004  0.1043930E+01  0.7957747E-01            NaN
         13   -1    0    0    0    0  0.00000000000E+00  0.00000000000E+00  0.74505805969E-08  0.10566000000E+00  0.10566000000E+00 0. -1.
     999900   -1    0    0    0    0 -0.00000000000E+00 -0.00000000000E+00 -0.74505805969E-08  0.93827000000E+00  0.93827000000E+00 0. -1.
     999903    2    1    2    0    0 -0.76707900157E-01 -0.77232938554E-01  0.32544649035E-01  0.12221346075E+00  0.45032733236E-01 0.  0.
         14    1    1    2    0    0  0.31258128868E-01 -0.15470023004E-01 -0.51699326801E-02  0.35257913097E-01  0.00000000000E+00 0. -1.
     999901    1    1    2    0    0  0.45449771289E-01  0.92702961558E-01 -0.27374716354E-01  0.88645862616E+00  0.88000000000E+00 0. -1.
        -11    1    3    3    0    0  0.80432265908E-03 -0.23016783976E-01  0.37856538748E-02  0.23345482985E-01  0.51100000000E-03 0. -1.
         11    1    3    3    0    0 -0.77512222816E-01 -0.54216154578E-01  0.28758995160E-01  0.98867977762E-01  0.51100000000E-03 0.  1.
</event>
<event>
 8    1  0.2825007E+004  0.1043930E+01  0.7957747E-01            NaN
         13   -1    0    0    0    0  0.00000000000E+00  0.00000000000E+00  0.74505805969E-08  0.10566000000E+00  0.10566000000E+00 0. -1.
     999900   -1    0    0    0    0 -0.00000000000E+00 -0.00000000000E+00 -0.74505805969E-08  0.93827000000E+00  0.93827000000E+00 0.  1.
     999902    2    1    2    0    0 -0.91720726630E-02  0.95032415674E-02  0.35750641431E-02  0.10302471786E+01  0.10301563131E+01 0.  0.
     999903    2    3    3    0    0  0.21652902985E-01 -0.19511264733E-01 -0.12848274439E+00  0.13938732124E+00  0.45513427216E-01 0.  0.
         14    1    1    2    0    0  0.91720726630E-02 -0.95032415674E-02 -0.35750641431E-02  0.13682821378E-01  0.00000000000E+00 0.  1.
     999901    1    3    3    0    0 -0.30824975648E-01  0.29014506300E-01  0.13205780854E+00  0.89085985738E+00  0.88000000000E+00 0. -1.
        -11    1    4    4    0    0 -0.12911122281E-01  0.22797565096E-02 -0.28426322587E-01  0.31308326451E-01  0.51100000000E-03 0. -1.
         11    1    4    4    0    0  0.34564025266E-01 -0.21791021242E-01 -0.10005642180E+00  0.10807899479E+00  0.51100000000E-03 0.  1.
</event>
<event>
 8    1  0.2825007E+004  0.1043930E+01  0.7957747E-01            NaN
         13   -1    0    0    0    0  0.00000000000E+00  0.00000000000E+00  0.74505805969E-08  0.10566000000E+00  0.10566000000E+00 0.  1.
     999900   -1    0    0    0    0 -0.00000000000E+00 -0.00000000000E+00 -0.74505805969E-08  0.93827000000E+00  0.93827000000E+00 0. -1.
     999902    2    1    2    0    0  0.40482329805E-02  0.10567042057E-01  0.59032063881E-02  0.10311668337E+01  0.10310878433E+01 0.  0.
     999903    2    3    3    0    0 -0.58156108253E-01 -0.29047028691E-01  0.11648034254E+00  0.14118595880E+00  0.46259506706E-01 0.  0.
         14    1    1    2    0    0 -0.40482329805E-02 -0.10567042057E-01 -0.59032063881E-02  0.12763166291E-01  0.00000000000E+00 0. -1.
     999901    1    3    3    0    0  0.62204341233E-01  0.39614070748E-01 -0.11057713615E+00  0.88998087491E+00  0.88000000000E+00 0. -1.
        -11    1    4    4    0    0 -0.23718025776E-01 -0.23332802849E-01  0.93865064977E-01  0.99588533374E-01  0.51100000000E-03 0.  1.
         11    1    4    4    0    0 -0.34438082477E-01 -0.57142258427E-02  0.22615277562E-01  0.41597425423E-01  0.51100000000E-03 0. -1.
</event>
<event>
 8    1  0.2825007E+004  0.1043930E+01  0.7957747E-01            NaN
         13   -1    0    0    0    0  0.00000000000E+00  0.00000000000E+00  0.74505805969E-08  0.10566000000E+00  0.10566000000E+00 0.  1.
     999900   -1    0    0    0    0 -0.00000000000E+00 -0.00000000000E+00 -0.74505805969E-08  0.93827000000E+00  0.93827000000E+00 0.  1.
     999902    2    1    2    0    0 -0.11744260676E-01  0.57763957814E-02 -0.18862667590E-02  0.10307068230E+01  0.10306219979E+01 0.  0.
     999903    2    3    3    0    0  0.52036822546E-01 -0.96787597670E-01 -0.73086972209E-01  0.13960809685E+00  0.45530706522E-01 0.  0.
         14    1    1    2    0    0  0.11744260676E-01 -0.57763957814E-02  0.18862667590E-02  0.13223176976E-01  0.00000000000E+00 0.  1.
     999901    1    3    3    0    0 -0.63781083222E-01  0.10256399345E+00  0.71200705450E-01  0.89109872617E+00  0.88000000000E+00 0. -1.
        -11    1    4    4    0    0  0.25334574134E-01 -0.47554550727E-01 -0.62647374696E-01  0.82633108490E-01  0.51100000000E-03 0.  1.
         11    1    4    4    0    0  0.26702248412E-01 -0.49233046943E-01 -0.10439597512E-01  0.56974988362E-01  0.51100000000E-03 0. -1.
</event>
<event>
 8    1  0.2825007E+004  0.1043930E+01  0.7957747E-01            NaN
         13   -1    0    0    0    0  0.00000000000E+00  0.00000000000E+00  0.74505805969E-08  0.10566000000E+00  0.10566000000E+00 0.  1.
     999900   -1    0    0    0    0 -0.00000000000E+00 -0.00000000000E+00 -0.74505805969E-08  0.93827000000E+00  0.93827000000E+00 0. -1.
     999902    2    1    2    0    0  0.52414450230E-02 -0.12679073157E-01  0.25971410743E-02  0.10299665913E+01  0.10298719349E+01 0.  0.
     999903    2    3    3    0    0 -0.12445638091E+00 -0.18160100192E-02 -0.43398668492E-01  0.13920559823E+00  0.44744446714E-01 0.  0.
         14    1    1    2    0    0 -0.52414450230E-02  0.12679073157E-01 -0.25971410743E-02  0.13963408746E-01  0.00000000000E+00 0. -1.
     999901    1    3    3    0    0  0.12969782593E+00 -0.10863063137E-01  0.45995809566E-01  0.89076099302E+00  0.88000000000E+00 0. -1.
        -11    1    4    4    0    0 -0.63881890799E-01 -0.21585655365E-01 -0.13289918563E-01  0.68729320861E-01  0.51100000000E-03 0. -1.
         11    1    4    4    0    0 -0.60574490108E-01  0.19769645346E-01 -0.30108749929E-01  0.70476277372E-01  0.51100000000E-03 0.  1.
</event>
<event>
 8    1  0.2825007E+004  0.1043930E+01  0.7957747E-01            NaN
         13   -1    0    0    0    0  0.00000000000E+00  0.00000000000E+00  0.74505805969E-08  0.10566000000E+00  0.10566000000E+00 0. -1.
     999900   -1    0    0    0    0 -0.00000000000E+00 -0.00000000000E+00 -0.74505805969E-08  0.93827000000E+00  0.93827000000E+00 0.  1.
     999902    2    1    2    0    0  0.76860971919E-02 -0.11139639481E-01 -0.29641257792E-02  0.10300752644E+01  0.10299820856E+01 0.  0.
     999903    2    3    3    0    0  0.77025144118E-01  0.18636044084E-01  0.10647559551E+00  0.14009124914E+00  0.44814402600E-01 0.  0.
         14    1    1    2    0    0 -0.76860971919E-02  0.11139639481E-01  0.29641257792E-02  0.13854735632E-01  0.00000000000E+00 0. -1.
     999901    1    3    3    0    0 -0.69339046927E-01 -0.29775683565E-01 -0.10943972129E+00  0.88998401523E+00  0.88000000000E+00 0.  1.
        -11    1    4    4    0    0  0.55303293505E-01  0.29551977525E-01  0.93359752831E-01  0.11246367510E+00  0.51100000000E-03 0. -1.
         11    1    4    4    0    0  0.21721850613E-01 -0.10915933441E-01  0.13115842683E-01  0.27627574038E-01  0.51100000000E-03 0.  1.
</event>
<event>
 8    1  0.2825007E+004  0.1043930E+01  0.7957747E-01            NaN
         13   -1    0    0    0    0  0.00000000000E+00  0.00000000000E+00  0.74505805969E-08  0.10566000000E+00  0.10566000000E+00 0.  1.
     999900   -1    0    0    0    0 -0.00000000000E+00 -0.00000000000E+00 -0.74505805969E-08  0.93827000000E+00  0.93827000000E+00 0. -1.
     999902    2    1    2    0    0 -0.42131930877E-02 -0.11277021469E-01  0.56930355078E-02  0.10306133614E+01  0.10305273252E+01 0.  0.
     999903    2    3    3    0    0 -0.11922248567E+00 -0.43811571094E-01 -0.42312137525E-01  0.14123710196E+00  0.44990522745E-01 0.  0.
         14    1    1    2    0    0  0.42131930877E-02  0.11277021469E-01 -0.56930355078E-02  0.13316638559E-01  0.00000000000E+00 0. -1.
     999901    1    3    3    0    0  0.11500929258E+00  0.32534549625E-01  0.48005173033E-01  0.88937625949E+00  0.88000000000E+00 0.  1.
        -11    1    4    4    0    0 -0.35731122740E-01 -0.30905027139E-01 -0.29729656243E-01  0.55820671942E-01  0.51100000000E-03 0.  1.
         11    1    4    4    0    0 -0.83491362926E-01 -0.12906543955E-01 -0.12582481281E-01  0.85416430014E-01  0.51100000000E-03 0. -1.
</event>
<event>
 8    1  0.2825007E+004  0.1043930E+01  0.7957747E-01            NaN
         13   -1    0    0    0    0  0.00000000000E+00  0.00000000000E+00  0.74505805969E-08  0.10566000000E+00  0.10566000000E+00 0.  1.
     999900   -1    0    0    0    0 -0.00000000000E+00 -0.00000000000E+00 -0.74505805969E-08  0.93827000000E+00  0.93827000000E+00 0.  1.
     999902    2    1    2    0    0 -0.52685581106E-02  0.12568333097E-01 -0.29166755680E-02  0.10299934402E+01  0.10298991500E+01 0.  0.
     999903    2    3    3    0    0 -0.88909460397E-01  0.54863865362E-01  0.82331485944E-01  0.14091978659E+00  0.46529311236E-01 0.  0.
         14    1    1    2    0    0  0.52685581106E-02 -0.12568333097E-01  0.29166755680E-02  0.13936559754E-01  0.00000000000E+00 0.  1.
     999901    1    3    3    0    0  0.83640902287E-01 -0.42295532265E-01 -0.85248161512E-01  0.88907365366E+00  0.88000000000E+00 0. -1.
        -11    1    4    4    0    0 -0.91362475723E-01  0.54398844933E-01  0.67671171538E-01  0.12603961631E+00  0.51100000000E-03 0.  1.
         11    1    4    4    0    0  0.24530153255E-02  0.46502042889E-03  0.14660314406E-01  0.14880170284E-01  0.51100000000E-03 0. -1.
</event>
<event>
 8    1  0.2825007E+004  0.1043930E+01  0.7957747E-01            NaN
         13   -1    0    0    0    0  0.00000000000E+00  0.00000000000E+00  0.74505805969E-08  0.10566000000E+00  0.10566000000E+00 0.  1.
     999900   -1    0    0    0    0 -0.00000000000E+00 -0.00000000000E+00 -0.74505805969E-08  0.93827000000E+00  0.93827000000E+00 0.  1.
     999902    2    1    2    0    0 -0.95868775972E-02  0.48269533644E-02  0.14166906065E-02  0.10331034256E+01  0.10330466946E+01 0.  0.
     999903    2    3    3    0    0 -0.13396450053E+00  0.24161905388E-01  0.96817020212E-02  0.14410851906E+00  0.46295192355E-01 0.  0.
         14    1    1    2    0    0  0.95868775972E-02 -0.48269533644E-02 -0.14166906065E-02  0.10826574395E-01  0.00000000000E+00 0. -1.
     999901    1    3    3    0    0  0.12437762294E+00 -0.19334952023E-01 -0.82650114147E-02  0.88899490655E+00  0.88000000000E+00 0.  1.
        -11    1    4    4    0    0 -0.84566933926E-01 -0.50291735633E-02  0.16547767668E-01  0.86318877635E-01  0.51100000000E-03 0. -1.
         11    1    4    4    0    0 -0.49397566608E-01  0.29191078951E-01 -0.68660656463E-02  0.57789641421E-01  0.51100000000E-03 0.  1.
</event>
<event>
 8    1  0.2825007E+004  0.1043930E+01  0.7957747E-01            NaN
         13   -1    0    0    0    0  0.00000000000E+00  0.00000000000E+00  0.74505805969E-08  0.10566000000E+00  0.10566000000E+00 0.  1.
     999900   -1    0    0    0    0 -0.00000000000E+00 -0.00000000000E+00 -0.74505805969E-08  0.93827000000E+00  0.93827000000E+00 0. -1.
     999902    2    1    2    0    0  0.67578982200E-03  0.11805821781E-01 -0.48266728324E-02  0.10311577296E+01  0.10310786258E+01 0.  0.
     999903    2    3    3    0    0  0.27065562916E-01  0.13181805687E+00  0.13734979121E-01  0.14242611006E+00  0.44587020107E-01 0.  0.
         14    1    1    2    0    0 -0.67578982200E-03 -0.11805821781E-01  0.48266728324E-02  0.12772270372E-01  0.00000000000E+00 0. -1.
     999901    1    3    3    0    0 -0.26389773094E-01 -0.12001223509E+00 -0.18561651953E-01  0.88873161957E+00  0.88000000000E+00 0.  1.
        -11    1    4    4    0    0  0.31668964618E-01  0.66295227736E-01 -0.63263669718E-02  0.73744590178E-01  0.51100000000E-03 0.  1.
         11    1    4    4    0    0 -0.46034017026E-02  0.65522829137E-01  0.20061346092E-01  0.68681519883E-01  0.51100000000E-03 0. -1.
</event>
<event>
 8    1  0.2825007E+004  0.1043930E+01  0.7957747E-01            NaN
         13   -1    0    0    0    0  0.00000000000E+00  0.00000000000E+00  0.74505805969E-08  0.10566000000E+00  0.10566000000E+00 0.  1.
     999900   -1    0    0    0    0 -0.00000000000E+00 -0.00000000000E+00 -0.74505805969E-08  0.93827000000E+00  0.93827000000E+00 0. -1.
     999902    2    1    2    0    0 -0.18632204684E-03  0.12772274749E-01 -0.73651356775E-02  0.10291851385E+01  0.10290795102E+01 0.  0.
     999903    2    3    3    0    0 -0.10348781497E+00 -0.30669041970E-01  0.74581402086E-01  0.13830154254E+00  0.43756292685E-01 0.  0.
         14    1    1    2    0    0  0.18632204684E-03 -0.12772274749E-01  0.73651356775E-02  0.14744861536E-01  0.00000000000E+00 0. -1.
     999901    1    3    3    0    0  0.10330149292E+00  0.43441316719E-01 -0.81946537763E-01  0.89088359593E+00  0.88000000000E+00 0.  1.
        -11    1    4    4    0    0 -0.25566326072E-02  0.42836009079E-02 -0.33935678931E-02  0.60550005013E-02  0.51100000000E-03 0. -1.
         11    1    4    4    0    0 -0.10093118236E+00 -0.34952642878E-01  0.77974969979E-01  0.13224654204E+00  0.51100000000E-03 0.  1.
</event>
<event>
 8    1  0.2825007E+004  0.1043930E+01  0.7957747E-01            NaN
         13   -1    0    0    0    0  0.00000000000E+00  0.00000000000E+00  0.74505805969E-08  0.10566000000E+00  0.10566000000E+00 0.  1.
     999900   -1    0    0    0    0 -0.00000000000E+00 -0.00000000000E+00 -0.74505805969E-08  0.93827000000E+00  0.93827000000E+00 0.  1.
     999902    2    1    2    0    0  0.95571847672E-02  0.90842407138E-02  0.64888775769E-02  0.10292341250E+01  0.10291292024E+01 0.  0.
     999903    2    3    3    0    0  0.43279017703E-01  0.24328250174E-01 -0.12182700017E+00  0.13915856285E+00  0.45369047985E-01 0.  0.
         14    1    1    2    0    0 -0.95571847672E-02 -0.90842407138E-02 -0.64888775769E-02  0.14695875007E-01  0.00000000000E+00 0.  1.
     999901    1    3    3    0    0 -0.33721832935E-01 -0.15244009461E-01  0.12831587774E+00  0.89007556214E+00  0.88000000000E+00 0. -1.
        -11    1    4    4    0    0  0.44029410273E-01  0.79798098326E-02 -0.11058761163E+00  0.11929856370E+00  0.51100000000E-03 0. -1.
         11    1    4    4    0    0 -0.75039257081E-03  0.16348440342E-01 -0.11239388542E-01  0.19859999155E-01  0.51100000000E-03 0.  1.
</event>
<event>
 8    1  0.2825007E+004  0.1043930E+01  0.7957747E-01            NaN
         13   -1    0    0    0    0  0.00000000000E+00  0.00000000000E+00  0.74505805969E-08  0.10566000000E+00  0.10566000000E+00 0. -1.
     999900   -1    0    0    0    0 -0.00000000000E+00 -0.00000000000E+00 -0.74505805969E-08  0.93827000000E+00  0.93827000000E+00 0.  1.
     999902    2    1    2    0    0  0.15785039268E-02 -0.12836310928E-01 -0.48801613630E-02  0.10301068843E+01  0.10300141332E+01 0.  0.
     999903    2    3    3    0    0 -0.82432896592E-01  0.74946053810E-01 -0.70931381738E-01  0.13930588368E+00  0.44303215362E-01 0.  0.
         14    1    1    2    0    0 -0.15785039268E-02  0.12836310928E-01  0.48801613630E-02  0.13823115706E-01  0.00000000000E+00 0. -1.
     999901    1    3    3    0    0  0.84011400519E-01 -0.87782364738E-01  0.66051220375E-01  0.89080100061E+00  0.88000000000E+00 0.  1.
        -11    1    4    4    0    0 -0.83124134247E-01  0.59272480391E-01 -0.69582435297E-01  0.12355090064E+00  0.51100000000E-03 0.  1.
         11    1    4    4    0    0  0.69123765569E-03  0.15673573418E-01 -0.13489464416E-02  0.15754983044E-01  0.51100000000E-03 0. -1.
</event>
<event>
 8    1  0.2825007E+004  0.1043930E+01  0.7957747E-01            NaN
         13   -1    0    0    0    0  0.00000000000E+00  0.00000000000E+00  0.74505805969E-08  0.10566000000E+00  0.10566000000E+00 0. -1.
     999900   -1    0    0    0    0 -0.00000000000E+00 -0.00000000000E+00 -0.74505805969E-08  0.93827000000E+00  0.93827000000E+00 0.  1.
     999902    2    1    2    0    0 -0.11617925955E-01 -0.49791344894E-02 -0.56934477082E-02  0.10300669797E+01  0.10299736887E+01 0.  0.
     999903    2    3    3    0    0 -0.80936207347E-01  0.56697003077E-01  0.88524231308E-01  0.14018724567E+00  0.45284704946E-01 0.  0.
         14    1    1    2    0    0  0.11617925955E-01  0.49791344894E-02  0.56934477082E-02  0.13863020254E-01  0.00000000000E+00 0. -1.
     999901    1    3    3    0    0  0.69318281392E-01 -0.61676137567E-01 -0.94217679017E-01  0.88987973408E+00  0.88000000000E+00 0.  1.
        -11    1    4    4    0    0 -0.71147219310E-01  0.36625686999E-01  0.46386144248E-01  0.92494882360E-01  0.51100000000E-03 0. -1.
         11    1    4    4    0    0 -0.97889880372E-02  0.20071316079E-01  0.42138087061E-01  0.47692363310E-01  0.51100000000E-03 0.  1.
</event>
<event>
 8    1  0.2825007E+004  0.1043930E+01  0.7957747E-01            NaN
         13   -1    0    0    0    0  0.00000000000E+00  0.00000000000E+00  0.74505805969E-08  0.10566000000E+00  0.10566000000E+00 0. -1.
     999900   -1    0    0    0    0 -0.00000000000E+00 -0.00000000000E+00 -0.74505805969E-08  0.93827000000E+00  0.93827000000E+00 0. -1.
     999902    2    1    2    0    0  0.50079785362E-02  0.11467963329E-01 -0.27149299050E-02  0.10311251229E+01  0.10310456121E+01 0.  0.
     999903    2    3    3    0    0  0.30658183301E-01  0.13061636478E+00 -0.17495572931E-01  0.14260233653E+00  0.45041895627E-01 0.  0.
         14    1    1    2    0    0 -0.50079785362E-02 -0.11467963329E-01  0.27149299050E-02  0.12804877052E-01  0.00000000000E+00 0. -1.
     999901    1    3    3    0    0 -0.25650204765E-01 -0.11914840145E+00  0.14780643026E-01  0.88852278642E+00  0.88000000000E+00 0. -1.
        -11    1    4    4    0    0  0.30249129780E-01  0.84622506862E-01 -0.30328007209E-01  0.94847391436E-01  0.51100000000E-03 0. -1.
         11    1    4    4    0    0  0.40905352148E-03  0.45993857914E-01  0.12832434278E-01  0.47754945096E-01  0.51100000000E-03 0.  1.
</event>
<event>
 8    1  0.2825007E+004  0.1043930E+01  0.7957747E-01            NaN
         13   -1    0    0    0    0  0.00000000000E+00  0.00000000000E+00  0.74505805969E-08  0.10566000000E+00  0.10566000000E+00 0. -1.
     999900   -1    0    0    0    0 -0.00000000000E+00 -0.00000000000E+00 -0.74505805969E-08  0.93827000000E+00  0.93827000000E+00 0. -1.
     999902    2    1    2    0    0  0.40697294190E-02 -0.19320874348E-01 -0.66265488556E-02  0.10231028535E+01  0.10228908440E+01 0.  0.
     999903    2    3    3    0    0 -0.85641917624E-01  0.89120711479E-01  0.83360717855E-02  0.13179390749E+00  0.44978936076E-01 0.  0.
         14    1    1    2    0    0 -0.40697294190E-02  0.19320874348E-01  0.66265488556E-02  0.20827146536E-01  0.00000000000E+00 0. -1.
     999901    1    3    3    0    0  0.89711647043E-01 -0.10844158583E+00 -0.14962620641E-01  0.89130894597E+00  0.88000000000E+00 0. -1.
        -11    1    4    4    0    0 -0.60745734680E-01  0.33849753055E-01  0.13899845162E-01  0.70917676782E-01  0.51100000000E-03 0.  1.
         11    1    4    4    0    0 -0.24896182944E-01  0.55270958424E-01 -0.55637733767E-02  0.60876230710E-01  0.51100000000E-03 0. -1.
</event>
<event>
 8    1  0.2825007E+004  0.1043930E+01  0.7957747E-01            NaN
         13   -1    0    0    0    0  0.00000000000E+00  0.00000000000E+00  0.74505805969E-08  0.10566000000E+00  0.10566000000E+00 0. -1.
     999900   -1    0    0    0    0 -0.00000000000E+00 -0.00000000000E+00 -0.74505805969E-08  0.93827000000E+00  0.93827000000E+00 0.  1.
     999902    2    1    2    0    0  0.65381128979E-02 -0.93497826226E-02  0.82062199937E-02  0.10298762673E+01  0.10297803740E+01 0.  0.
     999903    2    3    3    0    0  0.96095771673E-01  0.21380766650E-01  0.90543414326E-01  0.14097562357E+00  0.44547525719E-01 0.  0.
         14    1    1    2    0    0 -0.65381128979E-02  0.93497826226E-02 -0.82062199937E-02  0.14053732669E-01  0.00000000000E+00 0.  1.
     999901    1    3    3    0    0 -0.89557658775E-01 -0.30730549273E-01 -0.82337194332E-01  0.88890064376E+00  0.88000000000E+00 0.  1.
        -11    1    4    4    0    0  0.64496179663E-02  0.36283380134E-02  0.31060749622E-01  0.31934208879E-01  0.51100000000E-03 0. -1.
         11    1    4    4    0    0  0.89646153707E-01  0.17752428637E-01  0.59482664704E-01  0.10904141469E+00  0.51100000000E-03 0.  1.
</event>
<event>
 8    1  0.2825007E+004  0.1043930E+01  0.7957747E-01            NaN
         13   -1    0    0    0    0  0.00000000000E+00  0.00000000000E+00  0.74505805969E-08  0.10566000000E+00  0.10566000000E+00 0. -1.
     999900   -1    0    0    0    0 -0.00000000000E+00 -0.00000000000E+00 -0.74505805969E-08  0.93827000000E+00  0.93827000000E+00 0. -1.
     999902    2    1    2    0    0 -0.16300814799E-03  0.12590365886E-01  0.60172621241E-02  0.10299746667E+01  0.10298801205E+01 0.  0.
     999903    2    3    3    0    0  0.32514999897E-01 -0.11378148725E+00 -0.55674615198E-01  0.13821035633E+00  0.44710040936E-01 0.  0.
         14    1    1    2    0    0  0.16300814799E-03 -0.12590365886E-01 -0.60172621241E-02  0.13955333327E-01  0.00000000000E+00 0.  1.
     999901    1    3    3    0    0 -0.32678008045E-01  0.12637185313E+00  0.61691877322E-01  0.89176431034E+00  0.88000000000E+00 0. -1.
        -11    1    4    4    0    0  0.92120532561E-02 -0.97647894747E-01 -0.41250522940E-01  0.10640413543E+00  0.51100000000E-03 0. -1.
         11    1    4    4    0    0  0.23302946641E-01 -0.16133592501E-01 -0.14424092258E-01  0.31806220895E-01  0.51100000000E-03 0.  1.
</event>
<event>
 8    1  0.2825007E+004  0.1043930E+01  0.7957747E-01            NaN
         13   -1    0    0    0    0  0.00000000000E+00  0.00000000000E+00  0.74505805969E-08  0.10566000000E+00  0.10566000000E+00 0.  1.
     999900   -1    0    0    0    0 -0.00000000000E+00 -0.00000000000E+00 -0.74505805969E-08  0.93827000000E+00  0.93827000000E+00 0. -1.
     999902    2    1    2    0    0  0.69674274214E-03 -0.14163486384E-01 -0.33309793757E-02  0.10293634211E+01  0.10292603497E+01 0.  0.
     999903    2    3    3    0    0  0.11820370298E+00  0.56491620973E-01  0.36117410601E-02  0.13871858097E+00  0.45457467959E-01 0.  0.
         14    1    1    2    0    0 -0.69674274214E-03  0.14163486384E-01  0.33309793757E-02  0.14566578891E-01  0.00000000000E+00 0. -1.
     999901    1    3    3    0    0 -0.11750696024E+00 -0.70655107357E-01 -0.69427204358E-02  0.89064484014E+00  0.88000000000E+00 0. -1.
        -11    1    4    4    0    0  0.79326595449E-01  0.55472848440E-01  0.15534407497E-01  0.98038383284E-01  0.51100000000E-03 0.  1.
         11    1    4    4    0    0  0.38877107534E-01  0.10187725332E-02 -0.11922666437E-01  0.40680197685E-01  0.51100000000E-03 0. -1.
</event>
<event>
 8    1  0.2825007E+004  0.1043930E+01  0.7957747E-01            NaN
         13   -1    0    0    0    0  0.00000000000E+00  0.00000000000E+00  0.74505805969E-08  0.10566000000E+00  0.10566000000E+00 0.  1.
     999900   -1    0    0    0    0 -0.00000000000E+00 -0.00000000000E+00 -0.74505805969E-08  0.93827000000E+00  0.93827000000E+00 0. -1.
     999902    2    1    2    0    0  0.85887067089E-02  0.97397782259E-02  0.47754405633E-02  0.10300940325E+01  0.10300011077E+01 0.  0.
     999903    2    3    3    0    0 -0.87060487810E-01  0.89332876473E-01  0.46375331283E-01  0.14036689426E+00  0.44635213620E-01 0.  0.
         14    1    1    2    0    0 -0.85887067089E-02 -0.97397782259E-02 -0.47754405633E-02  0.13835967454E-01  0.00000000000E+00 0. -1.
     999901    1    3    3    0    0  0.95649194519E-01 -0.79593098248E-01 -0.41599890720E-01  0.88972713829E+00  0.88000000000E+00 0.  1.
        -11    1    4    4    0    0 -0.43426120458E-01  0.15223569396E-01  0.10629717287E-01  0.47231737357E-01  0.51100000000E-03 0. -1.
         11    1    4    4    0    0 -0.43634367352E-01  0.74109307078E-01  0.35745613996E-01  0.93135156900E-01  0.51100000000E-03 0.  1.
</event>
<event>
 8    1  0.2825007E+004  0.1043930E+01  0.7957747E-01            NaN
         13   -1    0    0    0    0  0.00000000000E+00  0.00000000000E+00  0.74505805969E-08  0.10566000000E+00  0.10566000000E+00 0.  1.
     999900   -1    0    0    0    0 -0.00000000000E+00 -0.00000000000E+00 -0.74505805969E-08  0.93827000000E+00  0.93827000000E+00 0. -1.
     999902    2    1    2    0    0 -0.23999710389E-02  0.11290311679E-01  0.42903194361E-02  0.10316158683E+01  0.10315423704E+01 0.  0.
     999903    2    3    3    0    0 -0.34826918114E-03 -0.39897910217E-02 -0.13302679252E+00  0.14083324596E+00  0.46063390177E-01 0.  0.
         14    1    1    2    0    0  0.23999710389E-02 -0.11290311679E-01 -0.42903194361E-02  0.12314131705E-01  0.00000000000E+00 0.  1.
     999901    1    3    3    0    0 -0.20517018577E-02  0.15280102700E-01  0.13731711196E+00  0.89078262234E+00  0.88000000000E+00 0.  1.
        -11    1    4    4    0    0 -0.19360326179E-01 -0.10179739248E-01 -0.98776651485E-01  0.10117083236E+00  0.51100000000E-03 0.  1.
         11    1    4    4    0    0  0.19012056998E-01  0.61899482266E-02 -0.34250141038E-01  0.39662413599E-01  0.51100000000E-03 0. -1.
</event>
<event>
 8    1  0.2825007E+004  0.1043930E+01  0.7957747E-01            NaN
         13   -1    0    0    0    0  0.00000000000E+00  0.00000000000E+00  0.74505805969E-08  0.10566000000E+00  0.10566000000E+00 0. -1.
     999900   -1    0    0    0    0 -0.00000000000E+00 -0.00000000000E+00 -0.74505805969E-08  0.93827000000E+00  0.93827000000E+00 0. -1.
     999902    2    1    2    0    0 -0.95597240094E-02 -0.73046474179E-03  0.95968012998E-02  0.10303645845E+01  0.10302752819E+01 0.  0.
     999903    2    3    3    0    0 -0.79524209122E-01  0.10442301488E+00 -0.13786452550E-01  0.14103952583E+00  0.49737467761E-01 0.  0.
         14    1    1    2    0    0  0.95597240094E-02  0.73046474179E-03 -0.95968012998E-02  0.13565415477E-01  0.00000000000E+00 0.  1.
     999901    1    3    3    0    0  0.69964485113E-01 -0.10515347963E+00  0.23383253850E-01  0.88932505869E+00  0.88000000000E+00 0. -1.
        -11    1    4    4    0    0 -0.35883670627E-01  0.11726976373E-01 -0.79843689423E-03  0.37763188623E-01  0.51100000000E-03 0.  1.
         11    1    4    4    0    0 -0.43640538496E-01  0.92696038511E-01 -0.12988015656E-01  0.10327633721E+00  0.51100000000E-03 0. -1.
</event>
<event>
 8    1  0.2825007E+004  0.1043930E+01  0.7957747E-01            NaN
         13   -1    0    0    0    0  0.00000000000E+00  0.00000000000E+00  0.74505805969E-08  0.10566000000E+00  0.10566000000E+00 0. -1.
     999900   -1    0    0    0    0 -0.00000000000E+00 -0.00000000000E+00 -0.74505805969E-08  0.93827000000E+00  0.93827000000E+00 0.  1.
     999902    2    1    2    0    0  0.15876991771E-01  0.99266998037E-03  0.13227711560E-01  0.10232409542E+01  0.10230317756E+01 0.  0.
     999903    2    3    3    0    0 -0.10855072817E+00 -0.14687498645E-01 -0.57680227298E-01  0.13152571888E+00  0.44418722440E-01 0.  0.
         14    1    1    2    0    0 -0.15876991771E-01 -0.99266998037E-03 -0.13227711560E-01  0.20689045761E-01  0.00000000000E+00 0.  1.
     999901    1    3    3    0    0  0.12442771994E+00  0.15680168626E-01  0.70907938858E-01  0.89171523536E+00  0.88000000000E+00 0. -1.
        -11    1    4    4    0    0 -0.61705590059E-01 -0.11423621387E-02 -0.55026929482E-01  0.82686812280E-01  0.51100000000E-03 0.  1.
         11    1    4    4    0    0 -0.46845138112E-01 -0.13545136506E-01 -0.26532978153E-02  0.48838906601E-01  0.51100000000E-03 0. -1.
</event>
<event>
 8    1  0.2825007E+004  0.1043930E+01  0.7957747E-01            NaN
         13   -1    0    0    0    0  0.00000000000E+00  0.00000000000E+00  0.74505805969E-08  0.10566000000E+00  0.10566000000E+00 0.  1.
     999900   -1    0    0    0    0 -0.00000000000E+00 -0.00000000000E+00 -0.74505805969E-08  0.93827000000E+00  0.93827000000E+00 0. -1.
     999902    2    1    2    0    0 -0.51337474690E-02 -0.62102280126E-02 -0.10272390026E-01  0.10308745685E+01  0.10307918954E+01 0.  0.
     999903    2    3    3    0    0 -0.97937338276E-01 -0.67973452084E-01 -0.61625802666E-01  0.14235649028E+00  0.47492297843E-01 0.  0.
         14    1    1    2    0    0  0.51337474690E-02  0.62102280126E-02  0.10272390026E-01  0.13055431509E-01  0.00000000000E+00 0.  1.
     999901    1    3    3    0    0  0.92803590807E-01  0.61763224071E-01  0.51353412640E-01  0.88851807821E+00  0.88000000000E+00 0.  1.
        -11    1    4    4    0    0 -0.11902303528E-01 -0.19029859864E-01 -0.31894504331E-01  0.39004114184E-01  0.51100000000E-03 0.  1.
         11    1    4    4    0    0 -0.86035034748E-01 -0.48943592219E-01 -0.29731298334E-01  0.10335237610E+00  0.51100000000E-03 0. -1.
</event>
<event>
 8    1  0.2825007E+004  0.1043930E+01  0.7957747E-01            NaN
         13   -1    0    0    0    0  0.00000000000E+00  0.00000000000E+00  0.74505805969E-08  0.10566000000E+00  0.10566000000E+00 0.  1.
     999900   -1    0    0    0    0 -0.00000000000E+00 -0.00000000000E+00 -0.74505805969E-08  0.93827000000E+00  0.93827000000E+00 0.  1.
     999902    2    1    2    0    0  0.55931425606E-03 -0.79989065137E-02  0.11325539839E-01  0.10300532860E+01  0.10299598094E+01 0.  0.
     999903    2    3    3    0    0  0.68613727650E-01  0.43197434745E-01 -0.10266629865E+00  0.13862375557E+00  0.45851005879E-01 0.  0.
         14    1    1    2    0    0 -0.55931425606E-03  0.79989065137E-02 -0.11325539839E-01  0.13876713966E-01  0.00000000000E+00 0. -1.
     999901    1    3    3    0    0 -0.68054413394E-01 -0.51196341258E-01  0.11399183849E+00  0.89142953046E+00  0.88000000000E+00 0. -1.
        -11    1    4    4    0    0  0.48253303565E-01  0.91130371487E-02 -0.77057454970E-01  0.91375824146E-01  0.51100000000E-03 0.  1.
         11    1    4    4    0    0  0.20360424085E-01  0.34084397596E-01 -0.25608843678E-01  0.47247931425E-01  0.51100000000E-03 0. -1.
</event>
<event>
 8    1  0.2825007E+004  0.1043930E+01  0.7957747E-01            NaN
         13   -1    0    0    0    0  0.00000000000E+00  0.00000000000E+00  0.74505805969E-08  0.10566000000E+00  0.10566000000E+00 0. -1.
     999900   -1    0    0    0    0 -0.00000000000E+00 -0.00000000000E+00 -0.74505805969E-08  0.93827000000E+00  0.93827000000E+00 0. -1.
     999902    2    1    2    0    0 -0.22978379088E-02  0.10066567682E-01 -0.89425098429E-02  0.10302704127E+01  0.10301798575E+01 0.  0.
     999903    2    3    3    0    0  0.54655255081E-01 -0.11949390766E+00 -0.12221781180E-01  0.13895659296E+00  0.43515191796E-01 0.  0.
         14    1    1    2    0    0  0.22978379088E-02 -0.10066567682E-01  0.89425098429E-02  0.13659587338E-01  0.00000000000E+00 0. -1.
     999901    1    3    3    0    0 -0.56953092990E-01  0.12956047534E+00  0.32792713369E-02  0.89131381970E+00  0.88000000000E+00 0. -1.
        -11    1    4    4    0    0  0.21638353247E-01 -0.68615665064E-01 -0.26448730027E-01  0.76655882126E-01  0.51100000000E-03 0. -1.
         11    1    4    4    0    0  0.33016901834E-01 -0.50878242592E-01  0.14226948848E-01  0.62300710834E-01  0.51100000000E-03 0.  1.
</event>
<event>
 8    1  0.2825007E+004  0.1043930E+01  0.7957747E-01            NaN
         13   -1    0    0    0    0  0.00000000000E+00  0.00000000000E+00  0.74505805969E-08  0.10566000000E+00  0.10566000000E+00 0. -1.
     999900   -1    0    0    0    0 -0.00000000000E+00 -0.00000000000E+00 -0.74505805969E-08  0.93827000000E+00  0.93827000000E+00 0.  1.
     999902    2    1    2    0    0 -0.64125436691E-02 -0.11690276695E-01  0.11341350459E-02  0.10305483130E+01  0.10304614286E+01 0.  0.
     999903    2    3    3    0    0 -0.39976342026E-01 -0.33106243608E-01  0.12343636767E+00  0.14119854583E+00  0.44792423412E-01 0.  0.
         14    1    1    2    0    0  0.64125436691E-02  0.11690276695E-01 -0.11341350459E-02  0.13381687031E-01  0.00000000000E+00 0.  1.
     999901    1    3    3    0    0  0.33563798356E-01  0.21415966913E-01 -0.12230223262E+00  0.88934976714E+00  0.88000000000E+00 0.  1.
        -11    1    4    4    0    0 -0.40851200575E-01 -0.30492241011E-01  0.64585272566E-01  0.82280714045E-01  0.51100000000E-03 0. -1.
         11    1    4    4    0    0  0.87485854993E-03 -0.26140025966E-02  0.58851095101E-01  0.58917831788E-01  0.51100000000E-03 0.  1.
</event>
<event>
 8    1  0.2825007E+004  0.1043930E+01  0.7957747E-01            NaN
         13   -1    0    0    0    0  0.00000000000E+00  0.00000000000E+00  0.74505805969E-08  0.10566000000E+00  0.10566000000E+00 0.  1.
     999900   -1    0    0    0    0 -0.00000000000E+00 -0.00000000000E+00 -0.74505805969E-08  0.93827000000E+00  0.93827000000E+00 0. -1.
     999902    2    1    2    0    0  0.55675566399E-02 -0.11228017986E-01  0.54357279514E-02  0.10302693553E+01  0.10301787861E+01 0.  0.
     999903    2    3    3    0    0 -0.54994256625E-01  0.23349108973E-01  0.11873415585E+00  0.14026944256E+00  0.44812583044E-01 0.  0.
         14    1    1    2    0    0 -0.55675566399E-02  0.11228017986E-01 -0.54357279514E-02  0.13660644685E-01  0.00000000000E+00 0. -1.
     999901    1    3    3    0    0  0.60561813265E-01 -0.34577126959E-01 -0.11329842790E+00  0.88999991275E+00  0.88000000000E+00 0. -1.
        -11    1    4    4    0    0 -0.47721089270E-01  0.24502570145E-01  0.57682564817E-01  0.78773204262E-01  0.51100000000E-03 0.  1.
         11    1    4    4    0    0 -0.72731673549E-02 -0.11534611724E-02  0.61051591037E-01  0.61496238301E-01  0.51100000000E-03 0. -1.
</event>
<event>
 8    1  0.2825007E+004  0.1043930E+01  0.7957747E-01            NaN
         13   -1    0    0    0    0  0.00000000000E+00  0.00000000000E+00  0.74505805969E-08  0.10566000000E+00  0.10566000000E+00 0. -1.
     999900   -1    0    0    0    0 -0.00000000000E+00 -0.00000000000E+00 -0.74505805969E-08  0.93827000000E+00  0.93827000000E+00 0. -1.
     999902    2    1    2    0    0 -0.77835607546E-02 -0.38466796569E-02 -0.10550251196E-01  0.10302665977E+01  0.10301759916E+01 0.  0.
     999903    2    3    3    0    0  0.86837381904E-01  0.28545843659E-01 -0.96539796599E-01  0.14043706330E+00  0.45244229845E-01 0.  0.
         14    1    1    2    0    0  0.77835607546E-02  0.38466796569E-02  0.10550251196E-01  0.13663402310E-01  0.00000000000E+00 0.  1.
     999901    1    3    3    0    0 -0.94620942659E-01 -0.32392523316E-01  0.85989545404E-01  0.88982953439E+00  0.88000000000E+00 0.  1.
        -11    1    4    4    0    0  0.48412482203E-01  0.38998858860E-01 -0.58770532147E-01  0.85550663324E-01  0.51100000000E-03 0. -1.
         11    1    4    4    0    0  0.38424899701E-01 -0.10453015201E-01 -0.37769264452E-01  0.54886399974E-01  0.51100000000E-03 0.  1.
</event>
<event>
 8    1  0.2825007E+004  0.1043930E+01  0.7957747E-01            NaN
         13   -1    0    0    0    0  0.00000000000E+00  0.00000000000E+00  0.74505805969E-08  0.10566000000E+00  0.10566000000E+00 0. -1.
     999900   -1    0    0    0    0 -0.00000000000E+00 -0.00000000000E+00 -0.74505805969E-08  0.93827000000E+00  0.93827000000E+00 0. -1.
     999902    2    1    2    0    0  0.22661129615E-02  0.77072456212E-02 -0.11429811775E-01  0.10299594059E+01  0.10298646514E+01 0.  0.
     999903    2    3    3    0    0 -0.84640563288E-02  0.13357499008E+00 -0.42712494292E-03  0.14087061124E+00  0.43936641326E-01 0.  0.
         14    1    1    2    0    0 -0.22661129615E-02 -0.77072456212E-02  0.11429811775E-01  0.13970594126E-01  0.00000000000E+00 0. -1.
     999901    1    3    3    0    0  0.10730169290E-01 -0.12586774446E+00 -0.11002686832E-01  0.88908879463E+00  0.88000000000E+00 0. -1.
        -11    1    4    4    0    0  0.55255110279E-02  0.98155345139E-01  0.15614635854E-01  0.99544367120E-01  0.51100000000E-03 0.  1.
         11    1    4    4    0    0 -0.13989567357E-01  0.35419644940E-01 -0.16041760797E-01  0.41326244119E-01  0.51100000000E-03 0. -1.
</event>
<event>
 8    1  0.2825007E+004  0.1043930E+01  0.7957747E-01            NaN
         13   -1    0    0    0    0  0.00000000000E+00  0.00000000000E+00  0.74505805969E-08  0.10566000000E+00  0.10566000000E+00 0. -1.
     999900   -1    0    0    0    0 -0.00000000000E+00 -0.00000000000E+00 -0.74505805969E-08  0.93827000000E+00  0.93827000000E+00 0.  1.
     999902    2    1    2    0    0  0.28175350694E-03 -0.18368397467E-01 -0.73950355559E-02  0.10241268699E+01  0.10239353894E+01 0.  0.
     999903    2    3    3    0    0 -0.17394979833E-01  0.11974219993E+00  0.29137996102E-01  0.13243092037E+00  0.45256448022E-01 0.  0.
         14    1    1    2    0    0 -0.28175350694E-03  0.18368397467E-01  0.73950355559E-02  0.19803130092E-01  0.00000000000E+00 0.  1.
     999901    1    3    3    0    0  0.17676733340E-01 -0.13811059739E+00 -0.36533031658E-01  0.89169594953E+00  0.88000000000E+00 0. -1.
        -11    1    4    4    0    0 -0.17842257631E-01  0.96948533299E-01  0.42414098737E-02  0.98669219846E-01  0.51100000000E-03 0.  1.
         11    1    4    4    0    0  0.44727779731E-03  0.22793666627E-01  0.24896586228E-01  0.33761700528E-01  0.51100000000E-03 0. -1.
</event>
<event>
 8    1  0.2825007E+004  0.1043930E+01  0.7957747E-01            NaN
         13   -1    0    0    0    0  0.00000000000E+00  0.00000000000E+00  0.74505805969E-08  0.10566000000E+00  0.10566000000E+00 0. -1.
     999900   -1    0    0    0    0 -0.00000000000E+00 -0.00000000000E+00 -0.74505805969E-08  0.93827000000E+00  0.93827000000E+00 0.  1.
     999902    2    1    2    0    0  0.14401452923E-01 -0.41203730094E-02 -0.19003670443E-02  0.10288306386E+01  0.10287198317E+01 0.  0.
     999903    2    3    3    0    0  0.27839027987E-01 -0.12331210979E+00 -0.40146566887E-01  0.13987056618E+00  0.44397528640E-01 0.  0.
         14    1    1    2    0    0 -0.14401452923E-01  0.41203730094E-02  0.19003670443E-02  0.15099361408E-01  0.00000000000E+00 0. -1.
     999901    1    3    3    0    0 -0.13437575064E-01  0.11919173679E+00  0.38246199843E-01  0.88896007241E+00  0.88000000000E+00 0. -1.
        -11    1    4    4    0    0 -0.80913052926E-02 -0.64409662312E-01 -0.17217658217E-01  0.67162360709E-01  0.51100000000E-03 0.  1.
         11    1    4    4    0    0  0.35930333279E-01 -0.58902447482E-01 -0.22928908671E-01  0.72708205471E-01  0.51100000000E-03 0. -1.
</event>
<event>
 8    1  0.2825007E+004  0.1043930E+01  0.7957747E-01            NaN
         13   -1    0    0    0    0  0.00000000000E+00  0.00000000000E+00  0.74505805969E-08  0.10566000000E+00  0.10566000000E+00 0. -1.
     999900   -1    0    0    0    0 -0.00000000000E+00 -0.00000000000E+00 -0.74505805969E-08  0.93827000000E+00  0.93827000000E+00 0. -1.
     999902    2    1    2    0    0 -0.10537281119E-01 -0.12561981149E-01 -0.43309019545E-02  0.10269713923E+01  0.10268313621E+01 0.  0.
     999903    2    3    3    0    0  0.90527839651E-01  0.45915963559E-01 -0.78750730344E-01  0.13614473153E+00  0.45057129661E-01 0.  0.
         14    1    1    2    0    0  0.10537281119E-01  0.12561981149E-01  0.43309019545E-02  0.16958607712E-01  0.00000000000E+00 0.  1.
     999901    1    3    3    0    0 -0.10106512077E+00 -0.58477944708E-01  0.74419828389E-01  0.89082666075E+00  0.88000000000E+00 0.  1.
        -11    1    4    4    0    0  0.18057468554E-02  0.59726776019E-02 -0.23356682175E-01  0.24181177032E-01  0.51100000000E-03 0. -1.
         11    1    4    4    0    0  0.88722092795E-01  0.39943285957E-01 -0.55394048169E-01  0.11196355450E+00  0.51100000000E-03 0.  1.
</event>
<event>
 8    1  0.2825007E+004  0.1043930E+01  0.7957747E-01            NaN
         13   -1    0    0    0    0  0.00000000000E+00  0.00000000000E+00  0.74505805969E-08  0.10566000000E+00  0.10566000000E+00 0. -1.
     999900   -1    0    0    0    0 -0.00000000000E+00 -0.00000000000E+00 -0.74505805969E-08  0.93827000000E+00  0.93827000000E+00 0. -1.
     999902    2    1    2    0    0 -0.39213976127E-02 -0.77989261144E-02  0.10021644959E-01  0.10306396285E+01  0.10305539335E+01 0.  0.
     999903    2    3    3    0    0  0.21305276152E-01 -0.10086919489E+00  0.87671479997E-01  0.14197323612E+00  0.42913891698E-01 0.  0.
         14    1    1    2    0    0  0.39213976127E-02  0.77989261144E-02 -0.10021644959E-01  0.13290371532E-01  0.00000000000E+00 0.  1.
     999901    1    3    3    0    0 -0.25226673765E-01  0.93070268777E-01 -0.77649835038E-01  0.88866639234E+00  0.88000000000E+00 0. -1.
        -11    1    4    4    0    0  0.20015252284E-01 -0.39360906973E-01  0.60034112746E-01  0.74526821588E-01  0.51100000000E-03 0. -1.
         11    1    4    4    0    0  0.12900238680E-02 -0.61508287919E-01  0.27637367251E-01  0.67446414537E-01  0.51100000000E-03 0.  1.
</event>
<event>
 8    1  0.2825007E+004  0.1043930E+01  0.7957747E-01            NaN
         13   -1    0    0    0    0  0.00000000000E+00  0.00000000000E+00  0.74505805969E-08  0.10566000000E+00  0.10566000000E+00 0. -1.
     999900   -1    0    0    0    0 -0.00000000000E+00 -0.00000000000E+00 -0.74505805969E-08  0.93827000000E+00  0.93827000000E+00 0. -1.
     999902    2    1    2    0    0 -0.11312884399E-01 -0.40865057211E-02  0.10170516718E-01  0.10281781654E+01  0.10280574982E+01 0.  0.
     999903    2    3    3    0    0 -0.94100542053E-01 -0.92885694730E-01  0.76265700551E-02  0.13983951158E+00  0.44880509456E-01 0.  0.
         14    1    1    2    0    0  0.11312884399E-01  0.40865057211E-02 -0.10170516718E-01  0.15751834584E-01  0.00000000000E+00 0.  1.
     999901    1    3    3    0    0  0.82787657653E-01  0.88799189009E-01  0.25439466633E-02  0.88833865383E+00  0.88000000000E+00 0.  1.
        -11    1    4    4    0    0 -0.55736324051E-01 -0.82116445459E-01  0.10959659550E-01  0.99850005969E-01  0.51100000000E-03 0.  1.
         11    1    4    4    0    0 -0.38364218001E-01 -0.10769249271E-01 -0.33330894951E-02  0.39989505615E-01  0.51100000000E-03 0. -1.
</event>
<event>
 8    1  0.2825007E+004  0.1043930E+01  0.7957747E-01            NaN
         13   -1    0    0    0    0  0.00000000000E+00  0.00000000000E+00  0.74505805969E-08  0.10566000000E+00  0.10566000000E+00 0.  1.
     999900   -1    0    0    0    0 -0.00000000000E+00 -0.00000000000E+00 -0.74505805969E-08  0.93827000000E+00  0.93827000000E+00 0. -1.
     999902    2    1    2    0    0 -0.95369373958E-02 -0.52407369809E-02  0.75942048903E-02  0.10306600924E+01  0.10305746628E+01 0.  0.
     999903    2    3    3    0    0 -0.68626684371E-01 -0.11710412456E+00 -0.15636765793E-01  0.14130937776E+00  0.36067076436E-01 0.  0.
         14    1    1    2    0    0  0.95369373958E-02  0.52407369809E-02 -0.75942048903E-02  0.13269907570E-01  0.00000000000E+00 0.  1.
     999901    1    3    3    0    0  0.59089746975E-01  0.11186338758E+00  0.23230970683E-01  0.88935071467E+00  0.88000000000E+00 0. -1.
        -11    1    4    4    0    0 -0.18028363936E-01 -0.45379691739E-01 -0.21458743657E-01  0.53339264420E-01  0.51100000000E-03 0.  1.
         11    1    4    4    0    0 -0.50598320435E-01 -0.71724432822E-01  0.58219778642E-02  0.87970113344E-01  0.51100000000E-03 0. -1.
</event>
<event>
 8    1  0.2825007E+004  0.1043930E+01  0.7957747E-01            NaN
         13   -1    0    0    0    0  0.00000000000E+00  0.00000000000E+00  0.74505805969E-08  0.10566000000E+00  0.10566000000E+00 0. -1.
     999900   -1    0    0    0    0 -0.00000000000E+00 -0.00000000000E+00 -0.74505805969E-08  0.93827000000E+00  0.93827000000E+00 0. -1.
     999902    2    1    2    0    0  0.85470464910E-02  0.14176432399E-01  0.26562580556E-02  0.10271645908E+01  0.10270277589E+01 0.  0.
     999903    2    3    3    0    0  0.12761089967E+00 -0.40895836193E-02 -0.20622601564E-01  0.13865361517E+00  0.49982665960E-01 0.  0.
         14    1    1    2    0    0 -0.85470464910E-02 -0.14176432399E-01 -0.26562580556E-02  0.16765409215E-01  0.00000000000E+00 0.  1.
     999901    1    3    3    0    0 -0.11906385318E+00  0.18266016019E-01  0.23278859619E-01  0.88851097561E+00  0.88000000000E+00 0. -1.
        -11    1    4    4    0    0  0.50517029266E-01 -0.10475583210E-01  0.14647385640E-01  0.53633153147E-01  0.51100000000E-03 0. -1.
         11    1    4    4    0    0  0.77093870406E-01  0.63859995910E-02 -0.35269987204E-01  0.85020462027E-01  0.51100000000E-03 0.  1.
</event>
<event>
 8    1  0.2825007E+004  0.1043930E+01  0.7957747E-01            NaN
         13   -1    0    0    0    0  0.00000000000E+00  0.00000000000E+00  0.74505805969E-08  0.10566000000E+00  0.10566000000E+00 0.  1.
     999900   -1    0    0    0    0 -0.00000000000E+00 -0.00000000000E+00 -0.74505805969E-08  0.93827000000E+00  0.93827000000E+00 0. -1.
     999902    2    1    2    0    0  0.52067647581E-04 -0.48740518164E-02 -0.13372259289E-01  0.10296970660E+01  0.10295986943E+01 0.  0.
     999903    2    3    3    0    0 -0.49488221791E-01  0.10147221981E+00 -0.69922293466E-01  0.14011195138E+00  0.44682617498E-01 0.  0.
         14    1    1    2    0    0 -0.52067647581E-04  0.48740518164E-02  0.13372259289E-01  0.14232934014E-01  0.00000000000E+00 0.  1.
     999901    1    3    3    0    0  0.49540289439E-01 -0.10634627163E+00  0.56550034177E-01  0.88958511461E+00  0.88000000000E+00 0. -1.
        -11    1    4    4    0    0 -0.27819476536E-01  0.93549589689E-01 -0.50189275289E-01  0.10974822769E+00  0.51100000000E-03 0. -1.
         11    1    4    4    0    0 -0.21668745255E-01  0.79226301202E-02 -0.19733018177E-01  0.30363723690E-01  0.51100000000E-03 0.  1.
</event>
<event>
 8    1  0.2825007E+004  0.1043930E+01  0.7957747E-01            NaN
         13   -1    0    0    0    0  0.00000000000E+00  0.00000000000E+00  0.74505805969E-08  0.10566000000E+00  0.10566000000E+00 0. -1.
     999900   -1    0    0    0    0 -0.00000000000E+00 -0.00000000000E+00 -0.74505805969E-08  0.93827000000E+00  0.93827000000E+00 0. -1.
     999902    2    1    2    0    0  0.12854588699E-01 -0.29535489936E-02 -0.36070585446E-02  0.10302561281E+01  0.10301653822E+01 0.  0.
     999903    2    3    3    0    0  0.48524866614E-02  0.10145617950E+00  0.84724098213E-01  0.13965643219E+00  0.44820121026E-01 0.  0.
         14    1    1    2    0    0 -0.12854588699E-01  0.29535489936E-02  0.36070585446E-02  0.13673871933E-01  0.00000000000E+00 0.  1.
     999901    1    3    3    0    0  0.80021020378E-02 -0.10440972849E+00 -0.88331156757E-01  0.89059969588E+00  0.88000000000E+00 0. -1.
        -11    1    4    4    0    0  0.18259858567E-01  0.56755235933E-01  0.27070726717E-01  0.65480261199E-01  0.51100000000E-03 0. -1.
         11    1    4    4    0    0 -0.13407371906E-01  0.44700943567E-01  0.57653371495E-01  0.74176170992E-01  0.51100000000E-03 0.  1.
</event>
<event>
 8    1  0.2825007E+004  0.1043930E+01  0.7957747E-01            NaN
         13   -1    0    0    0    0  0.00000000000E+00  0.00000000000E+00  0.74505805969E-08  0.10566000000E+00  0.10566000000E+00 0. -1.
     999900   -1    0    0    0    0 -0.00000000000E+00 -0.00000000000E+00 -0.74505805969E-08  0.93827000000E+00  0.93827000000E+00 0. -1.
     999902    2    1    2    0    0  0.30120471158E-02 -0.11717682058E-01 -0.10689808608E-01  0.10277853876E+01  0.10276585788E+01 0.  0.
     999903    2    3    3    0    0 -0.19177338605E-01 -0.98140557434E-01 -0.86961305925E-01  0.13999114146E+00  0.45121077435E-01 0.  0.
         14    1    1    2    0    0 -0.30120471158E-02  0.11717682058E-01  0.10689808608E-01  0.16144612374E-01  0.00000000000E+00 0.  1.
     999901    1    3    3    0    0  0.22189385721E-01  0.86422875376E-01  0.76271497317E-01  0.88779424617E+00  0.88000000000E+00 0. -1.
        -11    1    4    4    0    0 -0.11561527559E-01 -0.90387944215E-01 -0.55487657950E-01  0.10669016208E+00  0.51100000000E-03 0.  1.
         11    1    4    4    0    0 -0.76158110463E-02 -0.77526132185E-02 -0.31473647975E-01  0.33300979377E-01  0.51100000000E-03 0. -1.
</event>
<event>
 8    1  0.2825007E+004  0.1043930E+01  0.7957747E-01            NaN
         13   -1    0    0    0    0  0.00000000000E+00  0.00000000000E+00  0.74505805969E-08  0.10566000000E+00  0.10566000000E+00 0. -1.
     999900   -1    0    0    0    0 -0.00000000000E+00 -0.00000000000E+00 -0.74505805969E-08  0.93827000000E+00  0.93827000000E+00 0. -1.
     999902    2    1    2    0    0  0.97644378264E-02  0.32864417322E-02  0.96365919970E-02  0.10298229503E+01  0.10297263229E+01 0.  0.
     999903    2    3    3    0    0 -0.97573391687E-01  0.27496703969E-01 -0.82358300343E-01  0.13821170843E+00  0.45199017894E-01 0.  0.
         14    1    1    2    0    0 -0.97644378264E-02 -0.32864417322E-02 -0.96365919970E-02  0.14107049679E-01  0.00000000000E+00 0.  1.
     999901    1    3    3    0    0  0.10733782951E+00 -0.24210262237E-01  0.91994892340E-01  0.89161124189E+00  0.88000000000E+00 0.  1.
        -11    1    4    4    0    0 -0.16231435325E-01 -0.62653741931E-02 -0.32854685220E-01  0.37180719041E-01  0.51100000000E-03 0. -1.
         11    1    4    4    0    0 -0.81341956362E-01  0.33762078162E-01 -0.49503615123E-01  0.10103098939E+00  0.51100000000E-03 0.  1.
</event>
<event>
 8    1  0.2825007E+004  0.1043930E+01  0.7957747E-01            NaN
         13   -1    0    0    0    0  0.00000000000E+00  0.00000000000E+00  0.74505805969E-08  0.10566000000E+00  0.10566000000E+00 0. -1.
     999900   -1    0    0    0    0 -0.00000000000E+00 -0.00000000000E+00 -0.74505805969E-08  0.93827000000E+00  0.93827000000E+00 0. -1.
     999902    2    1    2    0    0 -0.69064493175E-02  0.49256739610E-02 -0.80543236192E-02  0.10322324176E+01  0.10321661351E+01 0.  0.
     999903    2    3    3    0    0 -0.93209497548E-02 -0.10288856137E+00  0.84726214260E-01  0.14080773349E+00  0.44444912655E-01 0.  0.
         14    1    1    2    0    0  0.69064493175E-02 -0.49256739610E-02  0.80543236192E-02  0.11697582447E-01  0.00000000000E+00 0.  1.
     999901    1    3    3    0    0  0.24145004373E-02  0.10781423534E+00 -0.92780537879E-01  0.89142468407E+00  0.88000000000E+00 0. -1.
        -11    1    4    4    0    0 -0.17242904677E-01 -0.10130666274E+00  0.83912850173E-01  0.13267247349E+00  0.51100000000E-03 0.  1.
         11    1    4    4    0    0  0.79219549220E-02 -0.15818986367E-02  0.81336408692E-03  0.81352599971E-02  0.51100000000E-03 0. -1.
</event>
<event>
 8    1  0.2825007E+004  0.1043930E+01  0.7957747E-01            NaN
         13   -1    0    0    0    0  0.00000000000E+00  0.00000000000E+00  0.74505805969E-08  0.10566000000E+00  0.10566000000E+00 0.  1.
     999900   -1    0    0    0    0 -0.00000000000E+00 -0.00000000000E+00 -0.74505805969E-08  0.93827000000E+00  0.93827000000E+00 0. -1.
     999902    2    1    2    0    0  0.17436387585E-01 -0.19967179525E-02  0.37616897365E-02  0.10259810501E+01  0.10258240347E+01 0.  0.
     999903    2    3    3    0    0 -0.55746299313E-01  0.10843305619E+00 -0.37072405695E-01  0.13512872557E+00  0.44944762198E-01 0.  0.
         14    1    1    2    0    0 -0.17436387585E-01  0.19967179525E-02 -0.37616897365E-02  0.17948949949E-01  0.00000000000E+00 0. -1.
     999901    1    3    3    0    0  0.73182686898E-01 -0.11042977414E+00  0.40834095431E-01  0.89085232448E+00  0.88000000000E+00 0.  1.
        -11    1    4    4    0    0 -0.88987884238E-02  0.32891376975E-01  0.86644094555E-02  0.35161971318E-01  0.51100000000E-03 0.  1.
         11    1    4    4    0    0 -0.46847510889E-01  0.75541679215E-01 -0.45736815150E-01  0.99966754255E-01  0.51100000000E-03 0. -1.
</event>
<event>
 8    1  0.2825007E+004  0.1043930E+01  0.7957747E-01            NaN
         13   -1    0    0    0    0  0.00000000000E+00  0.00000000000E+00  0.74505805969E-08  0.10566000000E+00  0.10566000000E+00 0. -1.
     999900   -1    0    0    0    0 -0.00000000000E+00 -0.00000000000E+00 -0.74505805969E-08  0.93827000000E+00  0.93827000000E+00 0. -1.
     999902    2    1    2    0    0 -0.31968734327E-02  0.11580998064E-01  0.67086303535E-02  0.10301697225E+01  0.10300778184E+01 0.  0.
     999903    2    3    3    0    0 -0.68272503838E-01 -0.25257294774E-01  0.11173858658E+00  0.14077487812E+00  0.45088677719E-01 0.  0.
         14    1    1    2    0    0  0.31968734327E-02 -0.11580998064E-01 -0.67086303535E-02  0.13760277509E-01  0.00000000000E+00 0.  1.
     999901    1    3    3    0    0  0.65075630405E-01  0.36838292837E-01 -0.10502995623E+00  0.88939484437E+00  0.88000000000E+00 0. -1.
        -11    1    4    4    0    0 -0.37238977900E-01 -0.34456528153E-01  0.50949772188E-01  0.71903645348E-01  0.51100000000E-03 0.  1.
         11    1    4    4    0    0 -0.31033525938E-01  0.91992333788E-02  0.60788814394E-01  0.68871232770E-01  0.51100000000E-03 0. -1.
</event>
<event>
 8    1  0.2825007E+004  0.1043930E+01  0.7957747E-01            NaN
         13   -1    0    0    0    0  0.00000000000E+00  0.00000000000E+00  0.74505805969E-08  0.10566000000E+00  0.10566000000E+00 0.  1.
     999900   -1    0    0    0    0 -0.00000000000E+00 -0.00000000000E+00 -0.74505805969E-08  0.93827000000E+00  0.93827000000E+00 0. -1.
     999902    2    1    2    0    0 -0.99754911781E-02 -0.85603880660E-02 -0.26201307576E-02  0.10305264276E+01  0.10304392569E+01 0.  0.
     999903    2    3    3    0    0  0.37533890159E-01  0.72995698277E-01  0.10300274265E+00  0.13919891881E+00  0.45051183406E-01 0.  0.
         14    1    1    2    0    0  0.99754911781E-02  0.85603880660E-02  0.26201307576E-02  0.13403572407E-01  0.00000000000E+00 0.  1.
     999901    1    3    3    0    0 -0.47509381337E-01 -0.81556086343E-01 -0.10562287341E+00  0.89132750879E+00  0.88000000000E+00 0.  1.
        -11    1    4    4    0    0 -0.55380585630E-02  0.35930622212E-02  0.26394395407E-01  0.27212229212E-01  0.51100000000E-03 0. -1.
         11    1    4    4    0    0  0.43071948722E-01  0.69402636055E-01  0.76608347240E-01  0.11198668959E+00  0.51100000000E-03 0.  1.
</event>
<event>
 8    1  0.2825007E+004  0.1043930E+01  0.7957747E-01            NaN
         13   -1    0    0    0    0  0.00000000000E+00  0.00000000000E+00  0.74505805969E-08  0.10566000000E+00  0.10566000000E+00 0.  1.
     999900   -1    0    0    0    0 -0.00000000000E+00 -0.00000000000E+00 -0.74505805969E-08  0.93827000000E+00  0.93827000000E+00 0.  1.
     999902    2    1    2    0    0 -0.75131093098E-03 -0.39697217300E-02  0.13509877747E-01  0.10298289378E+01  0.10297323930E+01 0.  0.
     999903    2    3    3    0    0 -0.84914306340E-01 -0.83000825973E-01 -0.58000413849E-01  0.13941159349E+00  0.44406844721E-01 0.  0.
         14    1    1    2    0    0  0.75131093098E-03  0.39697217300E-02 -0.13509877747E-01  0.14101062210E-01  0.00000000000E+00 0. -1.
     999901    1    3    3    0    0  0.84162995409E-01  0.79031104243E-01  0.71510291596E-01  0.89041734430E+00  0.88000000000E+00 0.  1.
        -11    1    4    4    0    0 -0.48722416625E-01 -0.61867121344E-01 -0.57476518432E-01  0.97494747947E-01  0.51100000000E-03 0.  1.
         11    1    4    4    0    0 -0.36191889715E-01 -0.21133704629E-01 -0.52389541745E-03  0.41916845539E-01  0.51100000000E-03 0. -1.
</event>
<event>
 8    1  0.2825007E+004  0.1043930E+01  0.7957747E-01            NaN
         13   -1    0    0    0    0  0.00000000000E+00  0.00000000000E+00  0.74505805969E-08  0.10566000000E+00  0.10566000000E+00 0. -1.
     999900   -1    0    0    0    0 -0.00000000000E+00 -0.00000000000E+00 -0.74505805969E-08  0.93827000000E+00  0.93827000000E+00 0. -1.
     999902    2    1    2    0    0 -0.53212714417E-02  0.13097387778E-01 -0.17668149676E-02  0.10296829255E+01  0.10295843569E+01 0.  0.
     999903    2    3    3    0    0 -0.10639952924E+00 -0.51072840893E-01  0.59820925093E-01  0.13944268705E+00  0.44004829218E-01 0.  0.
         14    1    1    2    0    0  0.53212714417E-02 -0.13097387778E-01  0.17668149676E-02  0.14247074489E-01  0.00000000000E+00 0. -1.
     999901    1    3    3    0    0  0.10107825780E+00  0.64170228671E-01 -0.61587740060E-01  0.89024023846E+00  0.88000000000E+00 0. -1.
        -11    1    4    4    0    0 -0.86365820126E-01 -0.49001422518E-01  0.30521039511E-01  0.10388449966E+00  0.51100000000E-03 0. -1.
         11    1    4    4    0    0 -0.20033709112E-01 -0.20714183746E-02  0.29299885581E-01  0.35558187396E-01  0.51100000000E-03 0.  1.
</event>
<event>
 8    1  0.2825007E+004  0.1043930E+01  0.7957747E-01            NaN
         13   -1    0    0    0    0  0.00000000000E+00  0.00000000000E+00  0.74505805969E-08  0.10566000000E+00  0.10566000000E+00 0. -1.
     999900   -1    0    0    0    0 -0.00000000000E+00 -0.00000000000E+00 -0.74505805969E-08  0.93827000000E+00  0.93827000000E+00 0. -1.
     999902    2    1    2    0    0 -0.12610574245E-01 -0.42893767547E-02 -0.10212983903E-02  0.10305707940E+01  0.10304842032E+01 0.  0.
     999903    2    3    3    0    0  0.49638492607E-01  0.26619703440E-01  0.11888603378E+00  0.13972395759E+00  0.47077667049E-01 0.  0.
         14    1    1    2    0    0  0.12610574245E-01  0.42893767547E-02  0.10212983903E-02  0.13359206044E-01  0.00000000000E+00 0. -1.
     999901    1    3    3    0    0 -0.62249066851E-01 -0.30909080195E-01 -0.11990733217E+00  0.89084683637E+00  0.88000000000E+00 0. -1.
        -11    1    4    4    0    0  0.22130114176E-01 -0.11764701123E-01  0.53334694962E-01  0.58932172483E-01  0.51100000000E-03 0. -1.
         11    1    4    4    0    0  0.27508378430E-01  0.38384404563E-01  0.65551338823E-01  0.80791785102E-01  0.51100000000E-03 0.  1.
</event>
<event>
 8    1  0.2825007E+004  0.1043930E+01  0.7957747E-01            NaN
         13   -1    0    0    0    0  0.00000000000E+00  0.00000000000E+00  0.74505805969E-08  0.10566000000E+00  0.10566000000E+00 0. -1.
     999900   -1    0    0    0    0 -0.00000000000E+00 -0.00000000000E+00 -0.74505805969E-08  0.93827000000E+00  0.93827000000E+00 0.  1.
     999902    2    1    2    0    0 -0.26009799185E-02  0.16767737123E-02  0.13868734080E-01  0.10297201987E+01  0.10296221488E+01 0.  0.
     999903    2    3    3    0    0 -0.33549959375E-01  0.17232920975E-01 -0.12501813064E+00  0.13815450053E+00  0.45106093693E-01 0.  0.
         14    1    1    2    0    0  0.26009799185E-02 -0.16767737123E-02 -0.13868734080E-01  0.14209801251E-01  0.00000000000E+00 0.  1.
     999901    1    3    3    0    0  0.30948979457E-01 -0.15556147262E-01  0.13888686472E+00  0.89156569822E+00  0.88000000000E+00 0. -1.
        -11    1    4    4    0    0 -0.34822028237E-01 -0.49226566180E-02 -0.61211375440E-01  0.70596740739E-01  0.51100000000E-03 0.  1.
         11    1    4    4    0    0  0.12720688615E-02  0.22155577593E-01 -0.63806755202E-01  0.67557759792E-01  0.51100000000E-03 0. -1.
</event>
<event>
 8    1  0.2825007E+004  0.1043930E+01  0.7957747E-01            NaN
         13   -1    0    0    0    0  0.00000000000E+00  0.00000000000E+00  0.74505805969E-08  0.10566000000E+00  0.10566000000E+00 0. -1.
     999900   -1    0    0    0    0 -0.00000000000E+00 -0.00000000000E+00 -0.74505805969E-08  0.93827000000E+00  0.93827000000E+00 0.  1.
     999902    2    1    2    0    0 -0.98891255276E-02  0.37885614588E-03 -0.95721029771E-02  0.10301617942E+01  0.10300697834E+01 0.  0.
     999903    2    3    3    0    0 -0.41644067252E-01 -0.12447518931E+00  0.89953690513E-02  0.14058792992E+00  0.49555507099E-01 0.  0.
         14    1    1    2    0    0  0.98891255276E-02 -0.37885614588E-03  0.95721029771E-02  0.13768205805E-01  0.00000000000E+00 0. -1.
     999901    1    3    3    0    0  0.31754941724E-01  0.12485404545E+00 -0.18567472028E-01  0.88957386428E+00  0.88000000000E+00 0.  1.
        -11    1    4    4    0    0 -0.29932748239E-01 -0.12358342026E+00  0.25556987120E-02  0.12718342619E+00  0.51100000000E-03 0.  1.
         11    1    4    4    0    0 -0.11711319013E-01 -0.89176904423E-03  0.64396703393E-02  0.13404503726E-01  0.51100000000E-03 0. -1.
</event>
<event>
 8    1  0.2825007E+004  0.1043930E+01  0.7957747E-01            NaN
         13   -1    0    0    0    0  0.00000000000E+00  0.00000000000E+00  0.74505805969E-08  0.10566000000E+00  0.10566000000E+00 0.  1.
     999900   -1    0    0    0    0 -0.00000000000E+00 -0.00000000000E+00 -0.74505805969E-08  0.93827000000E+00  0.93827000000E+00 0. -1.
     999902    2    1    2    0    0 -0.52493401438E-02 -0.67331837970E-02 -0.10581050069E-01  0.10303340463E+01  0.10302443385E+01 0.  0.
     999903    2    3    3    0    0  0.84379717518E-01  0.65270245076E-01 -0.78859297933E-01  0.14023305155E+00  0.45457433463E-01 0.  0.
         14    1    1    2    0    0  0.52493401438E-02  0.67331837970E-02  0.10581050069E-01  0.13595953683E-01  0.00000000000E+00 0.  1.
     999901    1    3    3    0    0 -0.89629057662E-01 -0.72003428874E-01  0.68278247864E-01  0.89010099476E+00  0.88000000000E+00 0.  1.
        -11    1    4    4    0    0  0.63148888505E-01  0.49100024577E-01 -0.31702610658E-01  0.86045982918E-01  0.51100000000E-03 0. -1.
         11    1    4    4    0    0  0.21230829013E-01  0.16170220499E-01 -0.47156687275E-01  0.54187068636E-01  0.51100000000E-03 0.  1.
</event>
<event>
 8    1  0.2825007E+004  0.1043930E+01  0.7957747E-01            NaN
         13   -1    0    0    0    0  0.00000000000E+00  0.00000000000E+00  0.74505805969E-08  0.10566000000E+00  0.10566000000E+00 0. -1.
     999900   -1    0    0    0    0 -0.00000000000E+00 -0.00000000000E+00 -0.74505805969E-08  0.93827000000E+00  0.93827000000E+00 0.  1.
     999902    2    1    2    0    0  0.10551295175E-01 -0.87270338436E-03  0.10028480663E-01  0.10293470694E+01  0.10292437648E+01 0.  0.
     999903    2    3    3    0    0 -0.44364391830E-01  0.88163000357E-01 -0.85368842267E-01  0.13803133495E+00  0.44987735038E-01 0.  0.
         14    1    1    2    0    0 -0.10551295175E-01  0.87270338436E-03 -0.10028480663E-01  0.14582930620E-01  0.00000000000E+00 0.  1.
     999901    1    3    3    0    0  0.54915687005E-01 -0.89035703741E-01  0.95397322929E-01  0.89131573443E+00  0.88000000000E+00 0. -1.
        -11    1    4    4    0    0 -0.43854129744E-01  0.38259872844E-01 -0.51516498308E-01  0.77725242261E-01  0.51100000000E-03 0. -1.
         11    1    4    4    0    0 -0.51026208641E-03  0.49903127513E-01 -0.33852343959E-01  0.60306092689E-01  0.51100000000E-03 0.  1.
</event>
<event>
 8    1  0.2825007E+004  0.1043930E+01  0.7957747E-01            NaN
         13   -1    0    0    0    0  0.00000000000E+00  0.00000000000E+00  0.74505805969E-08  0.10566000000E+00  0.10566000000E+00 0. -1.
     999900   -1    0    0    0    0 -0.00000000000E+00 -0.00000000000E+00 -0.74505805969E-08  0.93827000000E+00  0.93827000000E+00 0.  1.
     999902    2    1    2    0    0 -0.75683663227E-02  0.96481748801E-02  0.74193246082E-02  0.10295977348E+01  0.10294979756E+01 0.  0.
     999903    2    3    3    0    0  0.59943890183E-01  0.17953712022E-01  0.11622697050E+00  0.14029126879E+00  0.47511321626E-01 0.  0.
         14    1    1    2    0    0  0.75683663227E-02 -0.96481748801E-02 -0.74193246082E-02  0.14332265172E-01  0.00000000000E+00 0. -1.
     999901    1    3    3    0    0 -0.67512256506E-01 -0.83055371420E-02 -0.10880764589E+00  0.88930646603E+00  0.88000000000E+00 0.  1.
        -11    1    4    4    0    0  0.30934269260E-01  0.10732833897E-01  0.17487223531E-01  0.37123938987E-01  0.51100000000E-03 0. -1.
         11    1    4    4    0    0  0.29009620923E-01  0.72208781251E-02  0.98739746969E-01  0.10316732981E+00  0.51100000000E-03 0.  1.
</event>
<event>
 8    1  0.2825007E+004  0.1043930E+01  0.7957747E-01            NaN
         13   -1    0    0    0    0  0.00000000000E+00  0.00000000000E+00  0.74505805969E-08  0.10566000000E+00  0.10566000000E+00 0.  1.
     999900   -1    0    0    0    0 -0.00000000000E+00 -0.00000000000E+00 -0.74505805969E-08  0.93827000000E+00  0.93827000000E+00 0.  1.
     999902    2    1    2    0    0 -0.12813473879E-01 -0.50936264562E-02  0.44357656748E-03  0.10301340983E+01  0.10300417145E+01 0.  0.
     999903    2    3    3    0    0 -0.11149250621E+00  0.57789776311E-01  0.46222488586E-01  0.14120913941E+00  0.45091744420E-01 0.  0.
         14    1    1    2    0    0  0.12813473879E-01  0.50936264562E-02 -0.44357656748E-03  0.13795901692E-01  0.00000000000E+00 0.  1.
     999901    1    3    3    0    0  0.98679032331E-01 -0.62883402767E-01 -0.45778912018E-01  0.88892495890E+00  0.88000000000E+00 0.  1.
        -11    1    4    4    0    0 -0.42214356480E-01  0.23773086701E-01 -0.48002083764E-02  0.48687931418E-01  0.51100000000E-03 0.  1.
         11    1    4    4    0    0 -0.69278149730E-01  0.34016689610E-01  0.51022696962E-01  0.92521207992E-01  0.51100000000E-03 0. -1.
</event>
<event>
 8    1  0.2825007E+004  0.1043930E+01  0.7957747E-01            NaN
         13   -1    0    0    0    0  0.00000000000E+00  0.00000000000E+00  0.74505805969E-08  0.10566000000E+00  0.10566000000E+00 0.  1.
     999900   -1    0    0    0    0 -0.00000000000E+00 -0.00000000000E+00 -0.74505805969E-08  0.93827000000E+00  0.93827000000E+00 0. -1.
     999902    2    1    2    0    0  0.36729657887E-02  0.13006653837E-01  0.36643914402E-03  0.10304097190E+01  0.10303210135E+01 0.  0.
     999903    2    3    3    0    0  0.12663545911E+00  0.13594115536E-01  0.43950735400E-01  0.14079198602E+00  0.40858006616E-01 0.  0.
         14    1    1    2    0    0 -0.36729657887E-02 -0.13006653837E-01 -0.36643914402E-03  0.13520281038E-01  0.00000000000E+00 0.  1.
     999901    1    3    3    0    0 -0.12296249332E+00 -0.58746169899E-03 -0.43584296256E-01  0.88961773294E+00  0.88000000000E+00 0. -1.
        -11    1    4    4    0    0  0.37560564634E-01  0.10529004429E-01  0.32799800469E-01  0.50968068255E-01  0.51100000000E-03 0. -1.
         11    1    4    4    0    0  0.89074894479E-01  0.30651111066E-02  0.11150934931E-01  0.89823917769E-01  0.51100000000E-03 0.  1.
</event>
<event>
 8    1  0.2825007E+004  0.1043930E+01  0.7957747E-01            NaN
         13   -1    0    0    0    0  0.00000000000E+00  0.00000000000E+00  0.74505805969E-08  0.10566000000E+00  0.10566000000E+00 0.  1.
     999900   -1    0    0    0    0 -0.00000000000E+00 -0.00000000000E+00 -0.74505805969E-08  0.93827000000E+00  0.93827000000E+00 0. -1.
     999902    2    1    2    0    0 -0.73233475307E-02  0.11688790894E-01 -0.18975397201E-02  0.10300066416E+01  0.10299125312E+01 0.  0.
     999903    2    3    3    0    0  0.98713991424E-01 -0.40978110764E-01  0.75803430715E-01  0.13868449975E+00  0.45426563786E-01 0.  0.
         14    1    1    2    0    0  0.73233475307E-02 -0.11688790894E-01  0.18975397201E-02  0.13923358381E-01  0.00000000000E+00 0.  1.
     999901    1    3    3    0    0 -0.10603733895E+00  0.52666901658E-01 -0.77700970435E-01  0.89132214187E+00  0.88000000000E+00 0. -1.
        -11    1    4    4    0    0  0.42147902657E-01 -0.27575497836E-01  0.10869358515E-01  0.51529194200E-01  0.51100000000E-03 0. -1.
         11    1    4    4    0    0  0.56566088767E-01 -0.13402612927E-01  0.64934072200E-01  0.87155305548E-01  0.51100000000E-03 0.  1.
</event>
<event>
 8    1  0.2825007E+004  0.1043930E+01  0.7957747E-01            NaN
         13   -1    0    0    0    0  0.00000000000E+00  0.00000000000E+00  0.74505805969E-08  0.10566000000E+00  0.10566000000E+00 0.  1.
     999900   -1    0    0    0    0 -0.00000000000E+00 -0.00000000000E+00 -0.74505805969E-08  0.93827000000E+00  0.93827000000E+00 0. -1.
     999902    2    1    2    0    0  0.48326004298E-02  0.76551651873E-02  0.17718296583E-01  0.10240329245E+01  0.10238396050E+01 0.  0.
     999903    2    3    3    0    0  0.11393991813E+00 -0.53244368553E-01  0.23060856102E-01  0.13519002332E+00  0.43900701512E-01 0.  0.
         14    1    1    2    0    0 -0.48326004298E-02 -0.76551651873E-02 -0.17718296583E-01  0.19897075532E-01  0.00000000000E+00 0. -1.
     999901    1    3    3    0    0 -0.10910731770E+00  0.60899533740E-01 -0.53425595196E-02  0.88884290115E+00  0.88000000000E+00 0. -1.
        -11    1    4    4    0    0  0.56837505429E-01 -0.50387407380E-01  0.15389638502E-01  0.77501580242E-01  0.51100000000E-03 0.  1.
         11    1    4    4    0    0  0.57102412704E-01 -0.28569611728E-02  0.76712176000E-02  0.57688443073E-01  0.51100000000E-03 0. -1.
</event>
<event>
 8    1  0.2825007E+004  0.1043930E+01  0.7957747E-01            NaN
         13   -1    0    0    0    0  0.00000000000E+00  0.00000000000E+00  0.74505805969E-08  0.10566000000E+00  0.10566000000E+00 0. -1.
     999900   -1    0    0    0    0 -0.00000000000E+00 -0.00000000000E+00 -0.74505805969E-08  0.93827000000E+00  0.93827000000E+00 0. -1.
     999902    2    1    2    0    0  0.66106975993E-02  0.26318728171E-02 -0.11754169569E-01  0.10301899644E+01  0.10300983322E+01 0.  0.
     999903    2    3    3    0    0  0.66935424657E-01 -0.45872826121E-01 -0.10714232836E+00  0.14165708407E+00  0.44750236770E-01 0.  0.
         14    1    1    2    0    0 -0.66106975993E-02 -0.26318728171E-02  0.11754169569E-01  0.13740035645E-01  0.00000000000E+00 0. -1.
     999901    1    3    3    0    0 -0.60324727058E-01  0.48504698938E-01  0.95388158786E-01  0.88853288029E+00  0.88000000000E+00 0.  1.
        -11    1    4    4    0    0  0.23842224148E-01 -0.34935594789E-01 -0.77274682534E-01  0.88094183221E-01  0.51100000000E-03 0.  1.
         11    1    4    4    0    0  0.43093200509E-01 -0.10937231331E-01 -0.29867645822E-01  0.53562900848E-01  0.51100000000E-03 0. -1.
</event>
<event>
 8    1  0.2825007E+004  0.1043930E+01  0.7957747E-01            NaN
         13   -1    0    0    0    0  0.00000000000E+00  0.00000000000E+00  0.74505805969E-08  0.10566000000E+00  0.10566000000E+00 0.  1.
     999900   -1    0    0    0    0 -0.00000000000E+00 -0.00000000000E+00 -0.74505805969E-08  0.93827000000E+00  0.93827000000E+00 0.  1.
     999902    2    1    2    0    0  0.64245188868E-02 -0.95585560071E-02 -0.75883287498E-02  0.10301378584E+01  0.10300455253E+01 0.  0.
     999903    2    3    3    0    0 -0.11861085012E+00  0.56188288476E-01 -0.99172735001E-02  0.13886802552E+00  0.44275486110E-01 0.  0.
         14    1    1    2    0    0 -0.64245188868E-02  0.95585560071E-02  0.75883287498E-02  0.13792141570E-01  0.00000000000E+00 0.  1.
     999901    1    3    3    0    0  0.12503536901E+00 -0.65746844483E-01  0.23289447503E-02  0.89126983291E+00  0.88000000000E+00 0.  1.
        -11    1    4    4    0    0 -0.61764160670E-01  0.50378848034E-01 -0.16337425354E-01  0.81363459001E-01  0.51100000000E-03 0.  1.
         11    1    4    4    0    0 -0.56846689455E-01  0.58094404421E-02  0.64201518535E-02  0.57504566524E-01  0.51100000000E-03 0. -1.
</event>
<event>
 8    1  0.2825007E+004  0.1043930E+01  0.7957747E-01            NaN
         13   -1    0    0    0    0  0.00000000000E+00  0.00000000000E+00  0.74505805969E-08  0.10566000000E+00  0.10566000000E+00 0.  1.
     999900   -1    0    0    0    0 -0.00000000000E+00 -0.00000000000E+00 -0.74505805969E-08  0.93827000000E+00  0.93827000000E+00 0.  1.
     999902    2    1    2    0    0  0.16032714030E-03  0.11163879724E-02  0.13598434714E-01  0.10302848744E+01  0.10301945122E+01 0.  0.
     999903    2    3    3    0    0 -0.69132867267E-02  0.21015807782E-01  0.13273675839E+00  0.14200565977E+00  0.45355293716E-01 0.  0.
         14    1    1    2    0    0 -0.16032714030E-03 -0.11163879724E-02 -0.13598434714E-01  0.13645125634E-01  0.00000000000E+00 0. -1.
     999901    1    3    3    0    0  0.70736138670E-02 -0.19899419809E-01 -0.11913832367E+00  0.88827921460E+00  0.88000000000E+00 0.  1.
        -11    1    4    4    0    0  0.25085466937E-04  0.33087984181E-01  0.66017749730E-01  0.73847272982E-01  0.51100000000E-03 0.  1.
         11    1    4    4    0    0 -0.69383721936E-02 -0.12072176399E-01  0.66719008659E-01  0.68158386785E-01  0.51100000000E-03 0. -1.
</event>
<event>
 7    1  0.2825007E+004  0.1043930E+01  0.7957747E-01            NaN
         13   -1    0    0    0    0  0.00000000000E+00  0.00000000000E+00  0.74505805969E-08  0.10566000000E+00  0.10566000000E+00 0.  1.
     999900   -1    0    0    0    0 -0.00000000000E+00 -0.00000000000E+00 -0.74505805969E-08  0.93827000000E+00  0.93827000000E+00 0. -1.
     999903    2    1    2    0    0  0.23930178324E-01 -0.74343101996E-01  0.85327026264E-01  0.12389891128E+00  0.44392438059E-01 0.  0.
         14    1    1    2    0    0  0.22475366956E-01 -0.19557688900E-01 -0.89800296716E-03  0.29806907324E-01  0.00000000000E+00 0. -1.
     999901    1    1    2    0    0 -0.46405545279E-01  0.93900790897E-01 -0.84429023296E-01  0.89022418139E+00  0.88000000000E+00 0. -1.
        -11    1    3    3    0    0  0.13625902015E-01 -0.72405421052E-01  0.55395224330E-01  0.92179727723E-01  0.51100000000E-03 0.  1.
         11    1    3    3    0    0  0.10304276308E-01 -0.19376809444E-02  0.29931801933E-01  0.31719183559E-01  0.51100000000E-03 0. -1.
</event>
<event>
 8    1  0.2825007E+004  0.1043930E+01  0.7957747E-01            NaN
         13   -1    0    0    0    0  0.00000000000E+00  0.00000000000E+00  0.74505805969E-08  0.10566000000E+00  0.10566000000E+00 0. -1.
     999900   -1    0    0    0    0 -0.00000000000E+00 -0.00000000000E+00 -0.74505805969E-08  0.93827000000E+00  0.93827000000E+00 0. -1.
     999902    2    1    2    0    0  0.10710284949E-01  0.54690163717E-02  0.21737388491E-02  0.10317093010E+01  0.10316369208E+01 0.  0.
     999903    2    3    3    0    0  0.65380274545E-01 -0.18979282897E-01  0.11668790414E+00  0.14227126427E+00  0.44612242556E-01 0.  0.
         14    1    1    2    0    0 -0.10710284949E-01 -0.54690163717E-02 -0.21737388491E-02  0.12220699012E-01  0.00000000000E+00 0. -1.
     999901    1    3    3    0    0 -0.54669989596E-01  0.24448299268E-01 -0.11451416530E+00  0.88943803671E+00  0.88000000000E+00 0. -1.
        -11    1    4    4    0    0  0.22622920912E-01 -0.11589604255E-01  0.84501410132E-01  0.88243214542E-01  0.51100000000E-03 0.  1.
         11    1    4    4    0    0  0.42757353633E-01 -0.73896786413E-02  0.32186494012E-01  0.54028049733E-01  0.51100000000E-03 0. -1.
</event>
<event>
 8    1  0.2825007E+004  0.1043930E+01  0.7957747E-01            NaN
         13   -1    0    0    0    0  0.00000000000E+00  0.00000000000E+00  0.74505805969E-08  0.10566000000E+00  0.10566000000E+00 0. -1.
     999900   -1    0    0    0    0 -0.00000000000E+00 -0.00000000000E+00 -0.74505805969E-08  0.93827000000E+00  0.93827000000E+00 0. -1.
     999902    2    1    2    0    0  0.78690514820E-04  0.14398140316E-01  0.19871197016E-02  0.10293951701E+01  0.10292925507E+01 0.  0.
     999903    2    3    3    0    0  0.10069569291E-01 -0.52835737335E-01 -0.11935380781E+00  0.13847214720E+00  0.45124192473E-01 0.  0.
         14    1    1    2    0    0 -0.78690514820E-04 -0.14398140316E-01 -0.19871197016E-02  0.14534829943E-01  0.00000000000E+00 0.  1.
     999901    1    3    3    0    0 -0.99908787767E-02  0.67233877651E-01  0.12134092751E+00  0.89092302285E+00  0.88000000000E+00 0.  1.
        -11    1    4    4    0    0  0.24661099697E-01 -0.18999462923E-01 -0.72190903544E-01  0.78618936047E-01  0.51100000000E-03 0.  1.
         11    1    4    4    0    0 -0.14591530406E-01 -0.33836274413E-01 -0.47162904268E-01  0.59853211156E-01  0.51100000000E-03 0. -1.
</event>
<event>
 8    1  0.2825007E+004  0.1043930E+01  0.7957747E-01            NaN
         13   -1    0    0    0    0  0.00000000000E+00  0.00000000000E+00  0.74505805969E-08  0.10566000000E+00  0.10566000000E+00 0.  1.
     999900   -1    0    0    0    0 -0.00000000000E+00 -0.00000000000E+00 -0.74505805969E-08  0.93827000000E+00  0.93827000000E+00 0. -1.
     999902    2    1    2    0    0 -0.13228801984E-01  0.12101352972E-02 -0.15017384970E-02  0.10305613483E+01  0.10304746342E+01 0.  0.
     999903    2    3    3    0    0 -0.41041616730E-01  0.12606006911E+00 -0.18213988194E-01  0.14115685208E+00  0.44921622803E-01 0.  0.
         14    1    1    2    0    0  0.13228801984E-01 -0.12101352972E-02  0.15017384970E-02  0.13368651686E-01  0.00000000000E+00 0.  1.
     999901    1    3    3    0    0  0.27812814746E-01 -0.12484993381E+00  0.16712249697E-01  0.88940449624E+00  0.88000000000E+00 0. -1.
        -11    1    4    4    0    0 -0.10516387049E-01  0.76415178711E-01 -0.27996595609E-01  0.82060614309E-01  0.51100000000E-03 0.  1.
         11    1    4    4    0    0 -0.30525229681E-01  0.49644890396E-01  0.97826074150E-02  0.59096237769E-01  0.51100000000E-03 0. -1.
</event>
<event>
 8    1  0.2825007E+004  0.1043930E+01  0.7957747E-01            NaN
         13   -1    0    0    0    0  0.00000000000E+00  0.00000000000E+00  0.74505805969E-08  0.10566000000E+00  0.10566000000E+00 0.  1.
     999900   -1    0    0    0    0 -0.00000000000E+00 -0.00000000000E+00 -0.74505805969E-08  0.93827000000E+00  0.93827000000E+00 0.  1.
     999902    2    1    2    0    0  0.12203876720E-01 -0.90256395723E-03  0.44059072886E-02  0.10309237996E+01  0.10308417529E+01 0.  0.
     999903    2    3    3    0    0  0.43812128268E-01 -0.12670028980E+00 -0.15467506552E-01  0.14119400809E+00  0.41521538297E-01 0.  0.
         14    1    1    2    0    0 -0.12203876720E-01  0.90256395723E-03 -0.44059072886E-02  0.13006200357E-01  0.00000000000E+00 0. -1.
     999901    1    3    3    0    0 -0.31608251548E-01  0.12579772585E+00  0.19873413841E-01  0.88972979155E+00  0.88000000000E+00 0.  1.
        -11    1    4    4    0    0 -0.56357090440E-02 -0.18275156619E-01 -0.10720194805E-01  0.21930031088E-01  0.51100000000E-03 0. -1.
         11    1    4    4    0    0  0.49447837312E-01 -0.10842513319E+00 -0.47473117470E-02  0.11926397700E+00  0.51100000000E-03 0.  1.
</event>
<event>
 8    1  0.2825007E+004  0.1043930E+01  0.7957747E-01            NaN
         13   -1    0    0    0    0  0.00000000000E+00  0.00000000000E+00  0.74505805969E-08  0.10566000000E+00  0.10566000000E+00 0.  1.
     999900   -1    0    0    0    0 -0.00000000000E+00 -0.00000000000E+00 -0.74505805969E-08  0.93827000000E+00  0.93827000000E+00 0. -1.
     999902    2    1    2    0    0  0.23537860432E-02 -0.11744532808E-01 -0.16185329929E-03  0.10319508282E+01  0.10318812971E+01 0.  0.
     999903    2    3    3    0    0 -0.63544365759E-01  0.68848275611E-01  0.94121241338E-01  0.14081275301E+00  0.46812945495E-01 0.  0.
         14    1    1    2    0    0 -0.23537860432E-02  0.11744532808E-01  0.16185329929E-03  0.11979171762E-01  0.00000000000E+00 0.  1.
     999901    1    3    3    0    0  0.65898151803E-01 -0.80592808419E-01 -0.94283094637E-01  0.89113807522E+00  0.88000000000E+00 0. -1.
        -11    1    4    4    0    0 -0.18532119954E-03  0.30384421114E-01  0.23274375009E-01  0.38277996858E-01  0.51100000000E-03 0.  1.
         11    1    4    4    0    0 -0.63359044560E-01  0.38463854497E-01  0.70846866329E-01  0.10253475616E+00  0.51100000000E-03 0. -1.
</event>
<event>
 8    1  0.2825007E+004  0.1043930E+01  0.7957747E-01            NaN
         13   -1    0    0    0    0  0.00000000000E+00  0.00000000000E+00  0.74505805969E-08  0.10566000000E+00  0.10566000000E+00 0.  1.
     999900   -1    0    0    0    0 -0.00000000000E+00 -0.00000000000E+00 -0.74505805969E-08  0.93827000000E+00  0.93827000000E+00 0. -1.
     999902    2    1    2    0    0 -0.43229824536E-02 -0.91052256759E-02  0.89988967350E-02  0.10304180255E+01  0.10303294298E+01 0.  0.
     999903    2    3    3    0    0 -0.14998061082E-01 -0.11459399432E+00 -0.66204404834E-01  0.14086905319E+00  0.45873102745E-01 0.  0.
         14    1    1    2    0    0  0.43229824536E-02  0.91052256759E-02 -0.89988967350E-02  0.13511974480E-01  0.00000000000E+00 0. -1.
     999901    1    3    3    0    0  0.10675078628E-01  0.10548876864E+00  0.75203301569E-01  0.88954897233E+00  0.88000000000E+00 0. -1.
        -11    1    4    4    0    0 -0.28037553068E-02 -0.80517515889E-01 -0.66814130138E-01  0.10466766700E+00  0.51100000000E-03 0. -1.
         11    1    4    4    0    0 -0.12194305775E-01 -0.34076478431E-01  0.60972530366E-03  0.36201386183E-01  0.51100000000E-03 0.  1.
</event>
<event>
 8    1  0.2825007E+004  0.1043930E+01  0.7957747E-01            NaN
         13   -1    0    0    0    0  0.00000000000E+00  0.00000000000E+00  0.74505805969E-08  0.10566000000E+00  0.10566000000E+00 0. -1.
     999900   -1    0    0    0    0 -0.00000000000E+00 -0.00000000000E+00 -0.74505805969E-08  0.93827000000E+00  0.93827000000E+00 0. -1.
     999902    2    1    2    0    0  0.10119179790E-01  0.42012479278E-02  0.61930105162E-02  0.10313442278E+01  0.10312674311E+01 0.  0.
     999903    2    3    3    0    0 -0.94239929151E-01  0.89371048956E-01  0.30681930472E-01  0.14075766496E+00  0.44754784658E-01 0.  0.
         14    1    1    2    0    0 -0.10119179790E-01 -0.42012479278E-02 -0.61930105162E-02  0.12585772246E-01  0.00000000000E+00 0.  1.
     999901    1    3    3    0    0  0.10435910894E+00 -0.85169801029E-01 -0.24488919956E-01  0.89058656279E+00  0.88000000000E+00 0. -1.
        -11    1    4    4    0    0 -0.39352161127E-01  0.19524884759E-01  0.27575228023E-01  0.51869721725E-01  0.51100000000E-03 0. -1.
         11    1    4    4    0    0 -0.54887768024E-01  0.69846164197E-01  0.31067024490E-02  0.88887943237E-01  0.51100000000E-03 0.  1.
</event>
<event>
 8    1  0.2825007E+004  0.1043930E+01  0.7957747E-01            NaN
         13   -1    0    0    0    0  0.00000000000E+00  0.00000000000E+00  0.74505805969E-08  0.10566000000E+00  0.10566000000E+00 0. -1.
     999900   -1    0    0    0    0 -0.00000000000E+00 -0.00000000000E+00 -0.74505805969E-08  0.93827000000E+00  0.93827000000E+00 0. -1.
     999902    2    1    2    0    0  0.10271183504E-01  0.45124677899E-02  0.40517635076E-02  0.10320020344E+01  0.10319330999E+01 0.  0.
     999903    2    3    3    0    0  0.80878204155E-01 -0.77760008587E-01  0.75240684251E-01  0.14249544410E+00  0.45341903125E-01 0.  0.
         14    1    1    2    0    0 -0.10271183504E-01 -0.45124677899E-02 -0.40517635076E-02  0.11927965613E-01  0.00000000000E+00 0.  1.
     999901    1    3    3    0    0 -0.70607020651E-01  0.82272476377E-01 -0.71188920743E-01  0.88950659029E+00  0.88000000000E+00 0. -1.
        -11    1    4    4    0    0  0.37753188978E-01 -0.49652465481E-01  0.16769769606E-01  0.64592235601E-01  0.51100000000E-03 0. -1.
         11    1    4    4    0    0  0.43125015177E-01 -0.28107543106E-01  0.58470914645E-01  0.77903208495E-01  0.51100000000E-03 0.  1.
</event>
<event>
 8    1  0.2825007E+004  0.1043930E+01  0.7957747E-01            NaN
         13   -1    0    0    0    0  0.00000000000E+00  0.00000000000E+00  0.74505805969E-08  0.10566000000E+00  0.10566000000E+00 0. -1.
     999900   -1    0    0    0    0 -0.00000000000E+00 -0.00000000000E+00 -0.74505805969E-08  0.93827000000E+00  0.93827000000E+00 0.  1.
     999902    2    1    2    0    0  0.13534613417E-01  0.73298625179E-02  0.20708065074E-02  0.10283993566E+01  0.10282820799E+01 0.  0.
     999903    2    3    3    0    0 -0.50053625429E-01 -0.93976498645E-01  0.74492719563E-01  0.13735986453E+00  0.44515383860E-01 0.  0.
         14    1    1    2    0    0 -0.13534613417E-01 -0.73298625179E-02 -0.20708065074E-02  0.15530643401E-01  0.00000000000E+00 0.  1.
     999901    1    3    3    0    0  0.63588238846E-01  0.10130636116E+00 -0.72421913056E-01  0.89103949207E+00  0.88000000000E+00 0. -1.
        -11    1    4    4    0    0 -0.22924321451E-01 -0.40037485094E-01  0.59232604294E-01  0.75081870375E-01  0.51100000000E-03 0.  1.
         11    1    4    4    0    0 -0.27129303978E-01 -0.53939013551E-01  0.15260115270E-01  0.62277994157E-01  0.51100000000E-03 0. -1.
</event>
<event>
 8    1  0.2825007E+004  0.1043930E+01  0.7957747E-01            NaN
         13   -1    0    0    0    0  0.00000000000E+00  0.00000000000E+00  0.74505805969E-08  0.10566000000E+00  0.10566000000E+00 0.  1.
     999900   -1    0    0    0    0 -0.00000000000E+00 -0.00000000000E+00 -0.74505805969E-08  0.93827000000E+00  0.93827000000E+00 0. -1.
     999902    2    1    2    0    0  0.35342674484E-02  0.53089444943E-02  0.12055844376E-01  0.10302911100E+01  0.10302008309E+01 0.  0.
     999903    2    3    3    0    0  0.17180950120E-01  0.99419317459E-01  0.88941250360E-01  0.14183494339E+00  0.45024653478E-01 0.  0.
         14    1    1    2    0    0 -0.35342674484E-02 -0.53089444943E-02 -0.12055844376E-01  0.13638890045E-01  0.00000000000E+00 0. -1.
     999901    1    3    3    0    0 -0.13646682672E-01 -0.94110372965E-01 -0.76885405984E-01  0.88845616656E+00  0.88000000000E+00 0. -1.
        -11    1    4    4    0    0  0.12810811215E-01  0.42244072773E-02  0.20350553817E-01  0.24420660567E-01  0.51100000000E-03 0. -1.
         11    1    4    4    0    0  0.43701389048E-02  0.95194910182E-01  0.68590696543E-01  0.11741428283E+00  0.51100000000E-03 0.  1.
</event>
<event>
 8    1  0.2825007E+004  0.1043930E+01  0.7957747E-01            NaN
         13   -1    0    0    0    0  0.00000000000E+00  0.00000000000E+00  0.74505805969E-08  0.10566000000E+00  0.10566000000E+00 0. -1.
     999900   -1    0    0    0    0 -0.00000000000E+00 -0.00000000000E+00 -0.74505805969E-08  0.93827000000E+00  0.93827000000E+00 0.  1.
     999902    2    1    2    0    0 -0.13081200388E-01  0.53315168180E-02 -0.96637015912E-03  0.10297710189E+01  0.10296736738E+01 0.  0.
     999903    2    3    3    0    0  0.10714871754E+00  0.70455813223E-01 -0.28393859630E-01  0.13878915917E+00  0.44848078576E-01 0.  0.
         14    1    1    2    0    0  0.13081200388E-01 -0.53315168180E-02  0.96637015912E-03  0.14158981124E-01  0.00000000000E+00 0. -1.
     999901    1    3    3    0    0 -0.12022991792E+00 -0.65124296405E-01  0.27427489471E-01  0.89098185971E+00  0.88000000000E+00 0. -1.
        -11    1    4    4    0    0  0.28134187393E-01  0.36086128096E-01  0.57162273460E-02  0.46115913927E-01  0.51100000000E-03 0.  1.
         11    1    4    4    0    0  0.79014530143E-01  0.34369685127E-01 -0.34110086976E-01  0.92673245244E-01  0.51100000000E-03 0. -1.
</event>
<event>
 8    1  0.2825007E+004  0.1043930E+01  0.7957747E-01            NaN
         13   -1    0    0    0    0  0.00000000000E+00  0.00000000000E+00  0.74505805969E-08  0.10566000000E+00  0.10566000000E+00 0.  1.
     999900   -1    0    0    0    0 -0.00000000000E+00 -0.00000000000E+00 -0.74505805969E-08  0.93827000000E+00  0.93827000000E+00 0.  1.
     999902    2    1    2    0    0 -0.73277377690E-02 -0.66597267504E-02 -0.93509352616E-02  0.10303106134E+01  0.10302205940E+01 0.  0.
     999903    2    3    3    0    0 -0.27983707345E-01 -0.96748241632E-02 -0.13107051527E+00  0.14168728709E+00  0.44934588575E-01 0.  0.
         14    1    1    2    0    0  0.73277377690E-02  0.66597267504E-02  0.93509352616E-02  0.13619386604E-01  0.00000000000E+00 0.  1.
     999901    1    3    3    0    0  0.20655969576E-01  0.30150974128E-02  0.12171958001E+00  0.88862332630E+00  0.88000000000E+00 0. -1.
        -11    1    4    4    0    0 -0.15308675023E-01  0.17749372666E-01 -0.62590713791E-01  0.66837521908E-01  0.51100000000E-03 0.  1.
         11    1    4    4    0    0 -0.12675032323E-01 -0.27424196829E-01 -0.68479801482E-01  0.74849765185E-01  0.51100000000E-03 0. -1.
</event>
<event>
 8    1  0.2825007E+004  0.1043930E+01  0.7957747E-01            NaN
         13   -1    0    0    0    0  0.00000000000E+00  0.00000000000E+00  0.74505805969E-08  0.10566000000E+00  0.10566000000E+00 0. -1.
     999900   -1    0    0    0    0 -0.00000000000E+00 -0.00000000000E+00 -0.74505805969E-08  0.93827000000E+00  0.93827000000E+00 0.  1.
     999902    2    1    2    0    0  0.69310490090E-02 -0.11017062396E-01  0.46047357159E-02  0.10301235271E+01  0.10300310006E+01 0.  0.
     999903    2    3    3    0    0 -0.36411158964E-01  0.11736150167E-01 -0.12583926549E+00  0.13916230841E+00  0.45465565282E-01 0.  0.
         14    1    1    2    0    0 -0.69310490090E-02  0.11017062396E-01 -0.46047357159E-02  0.13806472947E-01  0.00000000000E+00 0. -1.
     999901    1    3    3    0    0  0.43342207973E-01 -0.22753212564E-01  0.13044400120E+00  0.89096121864E+00  0.88000000000E+00 0. -1.
        -11    1    4    4    0    0 -0.27424327997E-01  0.21454413412E-01 -0.43293989326E-01  0.55560923802E-01  0.51100000000E-03 0. -1.
         11    1    4    4    0    0 -0.89868309674E-02 -0.97182632446E-02 -0.82545276160E-01  0.83601384610E-01  0.51100000000E-03 0.  1.
</event>
<event>
 8    1  0.2825007E+004  0.1043930E+01  0.7957747E-01            NaN
         13   -1    0    0    0    0  0.00000000000E+00  0.00000000000E+00  0.74505805969E-08  0.10566000000E+00  0.10566000000E+00 0.  1.
     999900   -1    0    0    0    0 -0.00000000000E+00 -0.00000000000E+00 -0.74505805969E-08  0.93827000000E+00  0.93827000000E+00 0. -1.
     999902    2    1    2    0    0 -0.64397283261E-02 -0.10685188944E-01 -0.48967438810E-02  0.10305277068E+01  0.10304405528E+01 0.  0.
     999903    2    3    3    0    0  0.12450943451E+00  0.61621503832E-02 -0.45145429581E-01  0.13976877596E+00  0.44233805420E-01 0.  0.
         14    1    1    2    0    0  0.64397283261E-02  0.10685188944E-01  0.48967438810E-02  0.13402293248E-01  0.00000000000E+00 0. -1.
     999901    1    3    3    0    0 -0.13094916283E+00 -0.16847339327E-01  0.40248685700E-01  0.89075893079E+00  0.88000000000E+00 0.  1.
        -11    1    4    4    0    0  0.55786060162E-01 -0.25191966197E-02  0.21582032208E-02  0.55886937849E-01  0.51100000000E-03 0.  1.
         11    1    4    4    0    0  0.68723374345E-01  0.86813470029E-02 -0.47303632802E-01  0.83881838109E-01  0.51100000000E-03 0. -1.
</event>
<event>
 8    1  0.2825007E+004  0.1043930E+01  0.7957747E-01            NaN
         13   -1    0    0    0    0  0.00000000000E+00  0.00000000000E+00  0.74505805969E-08  0.10566000000E+00  0.10566000000E+00 0.  1.
     999900   -1    0    0    0    0 -0.00000000000E+00 -0.00000000000E+00 -0.74505805969E-08  0.93827000000E+00  0.93827000000E+00 0. -1.
     999902    2    1    2    0    0 -0.51531194961E-02 -0.25166660291E-02 -0.12019461901E-01  0.10306125035E+01  0.10305264561E+01 0.  0.
     999903    2    3    3    0    0 -0.10632192799E+00 -0.59480935932E-01  0.53624389245E-01  0.14056240882E+00  0.45165047775E-01 0.  0.
         14    1    1    2    0    0  0.51531194961E-02  0.25166660291E-02  0.12019461901E-01  0.13317496493E-01  0.00000000000E+00 0.  1.
     999901    1    3    3    0    0  0.10116880849E+00  0.56964269903E-01 -0.65643851147E-01  0.89005009469E+00  0.88000000000E+00 0.  1.
        -11    1    4    4    0    0 -0.73720846218E-01 -0.34691591265E-01  0.57044088042E-01  0.99461343110E-01  0.51100000000E-03 0.  1.
         11    1    4    4    0    0 -0.32601081772E-01 -0.24789344667E-01 -0.34196987962E-02  0.41101065711E-01  0.51100000000E-03 0. -1.
</event>
<event>
 8    1  0.2825007E+004  0.1043930E+01  0.7957747E-01            NaN
         13   -1    0    0    0    0  0.00000000000E+00  0.00000000000E+00  0.74505805969E-08  0.10566000000E+00  0.10566000000E+00 0.  1.
     999900   -1    0    0    0    0 -0.00000000000E+00 -0.00000000000E+00 -0.74505805969E-08  0.93827000000E+00  0.93827000000E+00 0.  1.
     999902    2    1    2    0    0 -0.12659784047E-01 -0.43050263444E-02  0.32618395924E-02  0.10301661713E+01  0.10300742194E+01 0.  0.
     999903    2    3    3    0    0 -0.13400268075E+00  0.12270947566E-01  0.15659587367E-02  0.14168334222E+00  0.44321807671E-01 0.  0.
         14    1    1    2    0    0  0.12659784047E-01  0.43050263444E-02 -0.32618395924E-02  0.13763828736E-01  0.00000000000E+00 0. -1.
     999901    1    3    3    0    0  0.12134289670E+00 -0.16575973911E-01  0.16958808557E-02  0.88848282904E+00  0.88000000000E+00 0. -1.
        -11    1    4    4    0    0 -0.82470188763E-01  0.90619197627E-02  0.22502190667E-01  0.85965458936E-01  0.51100000000E-03 0.  1.
         11    1    4    4    0    0 -0.51532491983E-01  0.32090278038E-02 -0.20936231930E-01  0.55717883286E-01  0.51100000000E-03 0. -1.
</event>
<event>
 8    1  0.2825007E+004  0.1043930E+01  0.7957747E-01            NaN
         13   -1    0    0    0    0  0.00000000000E+00  0.00000000000E+00  0.74505805969E-08  0.10566000000E+00  0.10566000000E+00 0.  1.
     999900   -1    0    0    0    0 -0.00000000000E+00 -0.00000000000E+00 -0.74505805969E-08  0.93827000000E+00  0.93827000000E+00 0.  1.
     999902    2    1    2    0    0 -0.57243350526E-03 -0.13531190748E-01 -0.39644284418E-02  0.10298183914E+01  0.10297217012E+01 0.  0.
     999903    2    3    3    0    0 -0.11432321333E+00 -0.42061560444E-01 -0.53802039898E-01  0.14064067612E+00  0.45234591977E-01 0.  0.
         14    1    1    2    0    0  0.57243350526E-03  0.13531190748E-01  0.39644284418E-02  0.14111608556E-01  0.00000000000E+00 0.  1.
     999901    1    3    3    0    0  0.11375077982E+00  0.28530369696E-01  0.49837611457E-01  0.88917771532E+00  0.88000000000E+00 0.  1.
        -11    1    4    4    0    0 -0.81394389189E-01 -0.13044971311E-01 -0.18926019845E-01  0.84579390020E-01  0.51100000000E-03 0.  1.
         11    1    4    4    0    0 -0.32928824137E-01 -0.29016589132E-01 -0.34876020053E-01  0.56061286104E-01  0.51100000000E-03 0. -1.
</event>
<event>
 8    1  0.2825007E+004  0.1043930E+01  0.7957747E-01            NaN
         13   -1    0    0    0    0  0.00000000000E+00  0.00000000000E+00  0.74505805969E-08  0.10566000000E+00  0.10566000000E+00 0.  1.
     999900   -1    0    0    0    0 -0.00000000000E+00 -0.00000000000E+00 -0.74505805969E-08  0.93827000000E+00  0.93827000000E+00 0.  1.
     999902    2    1    2    0    0  0.55959343570E-02 -0.11334496295E-01 -0.71072385762E-02  0.10294283405E+01  0.10293261923E+01 0.  0.
     999903    2    3    3    0    0  0.12398552823E+00 -0.34660914262E-01 -0.33514300117E-01  0.14080156250E+00  0.46131133766E-01 0.  0.
         14    1    1    2    0    0 -0.55959343570E-02  0.11334496295E-01  0.71072385762E-02  0.14501659484E-01  0.00000000000E+00 0. -1.
     999901    1    3    3    0    0 -0.11838959387E+00  0.23326417967E-01  0.26407061540E-01  0.88862677802E+00  0.88000000000E+00 0.  1.
        -11    1    4    4    0    0  0.61271054376E-01 -0.40847302754E-01 -0.20652199975E-01  0.76481492738E-01  0.51100000000E-03 0. -1.
         11    1    4    4    0    0  0.62714473850E-01  0.61863884916E-02 -0.12862100141E-01  0.64320069760E-01  0.51100000000E-03 0.  1.
</event>
<event>
 8    1  0.2825007E+004  0.1043930E+01  0.7957747E-01            NaN
         13   -1    0    0    0    0  0.00000000000E+00  0.00000000000E+00  0.74505805969E-08  0.10566000000E+00  0.10566000000E+00 0.  1.
     999900   -1    0    0    0    0 -0.00000000000E+00 -0.00000000000E+00 -0.74505805969E-08  0.93827000000E+00  0.93827000000E+00 0. -1.
     999902    2    1    2    0    0  0.40726241630E-02  0.12977421278E-01 -0.43067335808E-02  0.10296629861E+01  0.10295641395E+01 0.  0.
     999903    2    3    3    0    0 -0.13087618362E-01  0.94112745090E-01  0.93453227040E-01  0.14037426778E+00  0.44078734857E-01 0.  0.
         14    1    1    2    0    0 -0.40726241630E-02 -0.12977421278E-01  0.43067335808E-02  0.14267013868E-01  0.00000000000E+00 0. -1.
     999901    1    3    3    0    0  0.17160242525E-01 -0.81135323813E-01 -0.97759960621E-01  0.88928871836E+00  0.88000000000E+00 0. -1.
        -11    1    4    4    0    0 -0.21820001999E-01  0.70864846792E-01  0.47271306734E-01  0.87936207329E-01  0.51100000000E-03 0. -1.
         11    1    4    4    0    0  0.87323836367E-02  0.23247898299E-01  0.46181920307E-01  0.52438060447E-01  0.51100000000E-03 0.  1.
</event>
<event>
 8    1  0.2825007E+004  0.1043930E+01  0.7957747E-01            NaN
         13   -1    0    0    0    0  0.00000000000E+00  0.00000000000E+00  0.74505805969E-08  0.10566000000E+00  0.10566000000E+00 0.  1.
     999900   -1    0    0    0    0 -0.00000000000E+00 -0.00000000000E+00 -0.74505805969E-08  0.93827000000E+00  0.93827000000E+00 0. -1.
     999902    2    1    2    0    0  0.13878666630E-02  0.10086001682E-01 -0.99913028351E-02  0.10296653676E+01  0.10295665542E+01 0.  0.
     999903    2    3    3    0    0 -0.69197595187E-01  0.11414204611E+00 -0.68738272393E-02  0.14072235122E+00  0.44031997018E-01 0.  0.
         14    1    1    2    0    0 -0.13878666630E-02 -0.10086001682E-01  0.99913028351E-02  0.14264632353E-01  0.00000000000E+00 0.  1.
     999901    1    3    3    0    0  0.70585461850E-01 -0.10405604443E+00 -0.31174755958E-02  0.88894301643E+00  0.88000000000E+00 0.  1.
        -11    1    4    4    0    0 -0.30021159226E-02  0.43015666497E-01 -0.61113536331E-02  0.43554219410E-01  0.51100000000E-03 0.  1.
         11    1    4    4    0    0 -0.66195479265E-01  0.71126379613E-01 -0.76247360612E-03  0.97168131807E-01  0.51100000000E-03 0. -1.
</event>
<event>
 8    1  0.2825007E+004  0.1043930E+01  0.7957747E-01            NaN
         13   -1    0    0    0    0  0.00000000000E+00  0.00000000000E+00  0.74505805969E-08  0.10566000000E+00  0.10566000000E+00 0. -1.
     999900   -1    0    0    0    0 -0.00000000000E+00 -0.00000000000E+00 -0.74505805969E-08  0.93827000000E+00  0.93827000000E+00 0.  1.
     999902    2    1    2    0    0  0.77849403149E-02 -0.44727767108E-02  0.11114181851E-01  0.10296423807E+01  0.10295432463E+01 0.  0.
     999903    2    3    3    0    0 -0.71454818219E-01  0.59045410580E-01 -0.91468714321E-01  0.13788190274E+00  0.45307194209E-01 0.  0.
         14    1    1    2    0    0 -0.77849403149E-02  0.44727767108E-02 -0.11114181851E-01  0.14287619306E-01  0.00000000000E+00 0. -1.
     999901    1    3    3    0    0  0.79239758534E-01 -0.63518187291E-01  0.10258289617E+00  0.89176047795E+00  0.88000000000E+00 0. -1.
        -11    1    4    4    0    0 -0.37941538718E-01  0.35782857515E-01 -0.20536749748E-01  0.56053478602E-01  0.51100000000E-03 0. -1.
         11    1    4    4    0    0 -0.33513279501E-01  0.23262553065E-01 -0.70931964573E-01  0.81828424140E-01  0.51100000000E-03 0.  1.
</event>
<event>
 8    1  0.2825007E+004  0.1043930E+01  0.7957747E-01            NaN
         13   -1    0    0    0    0  0.00000000000E+00  0.00000000000E+00  0.74505805969E-08  0.10566000000E+00  0.10566000000E+00 0. -1.
     999900   -1    0    0    0    0 -0.00000000000E+00 -0.00000000000E+00 -0.74505805969E-08  0.93827000000E+00  0.93827000000E+00 0.  1.
     999902    2    1    2    0    0  0.38962186228E-02  0.12852490554E-01 -0.40623238844E-02  0.10298989805E+01  0.10298033990E+01 0.  0.
     999903    2    3    3    0    0  0.28674364313E-01  0.13017812988E+00 -0.13347036455E-01  0.14171799216E+00  0.46230739279E-01 0.  0.
         14    1    1    2    0    0 -0.38962186228E-02 -0.12852490554E-01  0.40623238844E-02  0.14031019504E-01  0.00000000000E+00 0. -1.
     999901    1    3    3    0    0 -0.24778145691E-01 -0.11732563932E+00  0.92847125702E-02  0.88818098833E+00  0.88000000000E+00 0.  1.
        -11    1    4    4    0    0  0.24254899065E-01  0.40904800748E-01  0.11531739960E-01  0.48936131850E-01  0.51100000000E-03 0.  1.
         11    1    4    4    0    0  0.44194652483E-02  0.89273329127E-01 -0.24878776415E-01  0.92781860315E-01  0.51100000000E-03 0. -1.
</event>
<event>
 8    1  0.2825007E+004  0.1043930E+01  0.7957747E-01            NaN
         13   -1    0    0    0    0  0.00000000000E+00  0.00000000000E+00  0.74505805969E-08  0.10566000000E+00  0.10566000000E+00 0.  1.
     999900   -1    0    0    0    0 -0.00000000000E+00 -0.00000000000E+00 -0.74505805969E-08  0.93827000000E+00  0.93827000000E+00 0. -1.
     999902    2    1    2    0    0 -0.41125364457E-02  0.12454766261E-01  0.25487649686E-02  0.10305684746E+01  0.10304818535E+01 0.  0.
     999903    2    3    3    0    0  0.85858985830E-01 -0.67765859936E-02 -0.10050958360E+00  0.13979030751E+00  0.44960717437E-01 0.  0.
         14    1    1    2    0    0  0.41125364457E-02 -0.12454766261E-01 -0.25487649686E-02  0.13361525418E-01  0.00000000000E+00 0. -1.
     999901    1    3    3    0    0 -0.89971522276E-01  0.19231352254E-01  0.10305834857E+00  0.89077816708E+00  0.88000000000E+00 0.  1.
        -11    1    4    4    0    0  0.59395002865E-01  0.91377057398E-02 -0.41018915484E-01  0.72760405304E-01  0.51100000000E-03 0. -1.
         11    1    4    4    0    0  0.26463982965E-01 -0.15914291733E-01 -0.59490668113E-01  0.67029902202E-01  0.51100000000E-03 0.  1.
</event>
<event>
 8    1  0.2825007E+004  0.1043930E+01  0.7957747E-01            NaN
         13   -1    0    0    0    0  0.00000000000E+00  0.00000000000E+00  0.74505805969E-08  0.10566000000E+00  0.10566000000E+00 0. -1.
     999900   -1    0    0    0    0 -0.00000000000E+00 -0.00000000000E+00 -0.74505805969E-08  0.93827000000E+00  0.93827000000E+00 0. -1.
     999902    2    1    2    0    0 -0.12824437124E-01 -0.16848697750E-03  0.67181188781E-02  0.10294514746E+01  0.10293496544E+01 0.  0.
     999903    2    3    3    0    0 -0.43066559218E-01 -0.26290792743E-01 -0.12211633428E+00  0.13917327254E+00  0.43713457728E-01 0.  0.
         14    1    1    2    0    0  0.12824437124E-01  0.16848697750E-03 -0.67181188781E-02  0.14478525362E-01  0.00000000000E+00 0.  1.
     999901    1    3    3    0    0  0.30242122094E-01  0.26122305766E-01  0.12883445316E+00  0.89027820210E+00  0.88000000000E+00 0.  1.
        -11    1    4    4    0    0 -0.16345763498E-02 -0.50511647848E-02 -0.66176181205E-01  0.66390768827E-01  0.51100000000E-03 0. -1.
         11    1    4    4    0    0 -0.41431982868E-01 -0.21239627959E-01 -0.55940153072E-01  0.72782503714E-01  0.51100000000E-03 0.  1.
</event>
<event>
 8    1  0.2825007E+004  0.1043930E+01  0.7957747E-01            NaN
         13   -1    0    0    0    0  0.00000000000E+00  0.00000000000E+00  0.74505805969E-08  0.10566000000E+00  0.10566000000E+00 0. -1.
     999900   -1    0    0    0    0 -0.00000000000E+00 -0.00000000000E+00 -0.74505805969E-08  0.93827000000E+00  0.93827000000E+00 0.  1.
     999902    2    1    2    0    0 -0.63770101092E-02  0.41804048628E-02  0.20937003479E-01  0.10216477165E+01  0.10214046977E+01 0.  0.
     999903    2    3    3    0    0 -0.28188941348E-02  0.74709494170E-01  0.10291068825E+00  0.13502113355E+00  0.45284015557E-01 0.  0.
         14    1    1    2    0    0  0.63770101092E-02 -0.41804048628E-02 -0.20937003479E-01  0.22282283488E-01  0.00000000000E+00 0.  1.
     999901    1    3    3    0    0 -0.35581159744E-02 -0.70529089308E-01 -0.81973684768E-01  0.88662658297E+00  0.88000000000E+00 0.  1.
        -11    1    4    4    0    0 -0.22663188505E-02 -0.30565692486E-02  0.23720469390E-01  0.24029161571E-01  0.51100000000E-03 0.  1.
         11    1    4    4    0    0 -0.55257528428E-03  0.77766063419E-01  0.79190218857E-01  0.11099197197E+00  0.51100000000E-03 0. -1.
</event>
<event>
 8    1  0.2825007E+004  0.1043930E+01  0.7957747E-01            NaN
         13   -1    0    0    0    0  0.00000000000E+00  0.00000000000E+00  0.74505805969E-08  0.10566000000E+00  0.10566000000E+00 0.  1.
     999900   -1    0    0    0    0 -0.00000000000E+00 -0.00000000000E+00 -0.74505805969E-08  0.93827000000E+00  0.93827000000E+00 0. -1.
     999902    2    1    2    0    0  0.83703981761E-02 -0.69900334546E-02 -0.47006627436E-02  0.10320548005E+01  0.10319864780E+01 0.  0.
     999903    2    3    3    0    0 -0.11164636998E+00  0.29881760982E-01  0.65891062213E-01  0.14034478849E+00  0.44689998968E-01 0.  0.
         14    1    1    2    0    0 -0.83703981761E-02  0.69900334546E-02  0.47006627436E-02  0.11875199516E-01  0.00000000000E+00 0.  1.
     999901    1    3    3    0    0  0.12001676815E+00 -0.36871794436E-01 -0.70591724957E-01  0.89171001200E+00  0.88000000000E+00 0. -1.
        -11    1    4    4    0    0 -0.92029751451E-01  0.30650002322E-01  0.70813751571E-01  0.12009890227E+00  0.51100000000E-03 0.  1.
         11    1    4    4    0    0 -0.19616618525E-01 -0.76824134034E-03 -0.49226893578E-02  0.20245886215E-01  0.51100000000E-03 0. -1.
</event>
<event>
 8    1  0.2825007E+004  0.1043930E+01  0.7957747E-01            NaN
         13   -1    0    0    0    0  0.00000000000E+00  0.00000000000E+00  0.74505805969E-08  0.10566000000E+00  0.10566000000E+00 0.  1.
     999900   -1    0    0    0    0 -0.00000000000E+00 -0.00000000000E+00 -0.74505805969E-08  0.93827000000E+00  0.93827000000E+00 0. -1.
     999902    2    1    2    0    0 -0.11202642054E-01 -0.76257085450E-02 -0.35379979469E-02  0.10299239995E+01  0.10298287609E+01 0.  0.
     999903    2    3    3    0    0 -0.12859455534E+00  0.33453807984E-01 -0.23469427603E-01  0.14095513063E+00  0.40765400594E-01 0.  0.
         14    1    1    2    0    0  0.11202642054E-01  0.76257085450E-02  0.35379979469E-02  0.14006000474E-01  0.00000000000E+00 0.  1.
     999901    1    3    3    0    0  0.11739191329E+00 -0.41079516529E-01  0.19931429656E-01  0.88896886890E+00  0.88000000000E+00 0. -1.
        -11    1    4    4    0    0 -0.58906601993E-01 -0.47228815621E-02 -0.15488945403E-01  0.61093877920E-01  0.51100000000E-03 0.  1.
         11    1    4    4    0    0 -0.69687953350E-01  0.38176689546E-01 -0.79804821998E-02  0.79861252707E-01  0.51100000000E-03 0. -1.
</event>
<event>
 8    1  0.2825007E+004  0.1043930E+01  0.7957747E-01            NaN
         13   -1    0    0    0    0  0.00000000000E+00  0.00000000000E+00  0.74505805969E-08  0.10566000000E+00  0.10566000000E+00 0. -1.
     999900   -1    0    0    0    0 -0.00000000000E+00 -0.00000000000E+00 -0.74505805969E-08  0.93827000000E+00  0.93827000000E+00 0.  1.
     999902    2    1    2    0    0  0.12489909129E-02  0.13309230374E-01 -0.39649436177E-02  0.10299866729E+01  0.10298922905E+01 0.  0.
     999903    2    3    3    0    0 -0.98798817973E-01 -0.47824369601E-01  0.71963945366E-01  0.13896923356E+00  0.45664665584E-01 0.  0.
         14    1    1    2    0    0 -0.12489909129E-02 -0.13309230374E-01  0.39649436177E-02  0.13943327054E-01  0.00000000000E+00 0.  1.
     999901    1    3    3    0    0  0.10004780889E+00  0.61133599975E-01 -0.75928888984E-01  0.89101743939E+00  0.88000000000E+00 0.  1.
        -11    1    4    4    0    0 -0.11888078201E-01 -0.25059444632E-01  0.86536897998E-02  0.29059415630E-01  0.51100000000E-03 0.  1.
         11    1    4    4    0    0 -0.86910739771E-01 -0.22764924969E-01  0.63310255566E-01  0.10990981793E+00  0.51100000000E-03 0. -1.
</event>
<event>
 8    1  0.2825007E+004  0.1043930E+01  0.7957747E-01            NaN
         13   -1    0    0    0    0  0.00000000000E+00  0.00000000000E+00  0.74505805969E-08  0.10566000000E+00  0.10566000000E+00 0. -1.
     999900   -1    0    0    0    0 -0.00000000000E+00 -0.00000000000E+00 -0.74505805969E-08  0.93827000000E+00  0.93827000000E+00 0. -1.
     999902    2    1    2    0    0  0.81468332264E-02 -0.18857903469E-02 -0.10478038701E-01  0.10305241658E+01  0.10304369655E+01 0.  0.
     999903    2    3    3    0    0  0.69647806513E-01  0.93749490031E-01 -0.67944988273E-01  0.14134987077E+00  0.41514825081E-01 0.  0.
         14    1    1    2    0    0 -0.81468332264E-02  0.18857903469E-02  0.10478038701E-01  0.13405834248E-01  0.00000000000E+00 0. -1.
     999901    1    3    3    0    0 -0.61500973287E-01 -0.95635280378E-01  0.57466949571E-01  0.88917429498E+00  0.88000000000E+00 0.  1.
        -11    1    4    4    0    0  0.38317238801E-01  0.81801999963E-01 -0.47265830126E-01  0.10195144828E+00  0.51100000000E-03 0. -1.
         11    1    4    4    0    0  0.31330567713E-01  0.11947490068E-01 -0.20679158147E-01  0.39398422491E-01  0.51100000000E-03 0.  1.
</event>
<event>
 8    1  0.2825007E+004  0.1043930E+01  0.7957747E-01            NaN
         13   -1    0    0    0    0  0.00000000000E+00  0.00000000000E+00  0.74505805969E-08  0.10566000000E+00  0.10566000000E+00 0.  1.
     999900   -1    0    0    0    0 -0.00000000000E+00 -0.00000000000E+00 -0.74505805969E-08  0.93827000000E+00  0.93827000000E+00 0.  1.
     999902    2    1    2    0    0  0.18066594262E-02  0.64511619861E-02  0.86832382550E-02  0.10329627699E+01  0.10329045473E+01 0.  0.
     999903    2    3    3    0    0 -0.36684334109E-02 -0.62539441314E-01  0.11973407974E+00  0.14328756548E+00  0.47649107515E-01 0.  0.
         14    1    1    2    0    0 -0.18066594262E-02 -0.64511619861E-02 -0.86832382550E-02  0.10967230090E-01  0.00000000000E+00 0. -1.
     999901    1    3    3    0    0  0.54750928371E-02  0.68990603300E-01 -0.11105084148E+00  0.88967520443E+00  0.88000000000E+00 0.  1.
        -11    1    4    4    0    0 -0.22909776730E-01 -0.24758721015E-01  0.35438169198E-01  0.48928285207E-01  0.51100000000E-03 0.  1.
         11    1    4    4    0    0  0.19241343319E-01 -0.37780720298E-01  0.84295910539E-01  0.94359280272E-01  0.51100000000E-03 0. -1.
</event>
<event>
 8    1  0.2825007E+004  0.1043930E+01  0.7957747E-01            NaN
         13   -1    0    0    0    0  0.00000000000E+00  0.00000000000E+00  0.74505805969E-08  0.10566000000E+00  0.10566000000E+00 0. -1.
     999900   -1    0    0    0    0 -0.00000000000E+00 -0.00000000000E+00 -0.74505805969E-08  0.93827000000E+00  0.93827000000E+00 0. -1.
     999902    2    1    2    0    0  0.39426457515E-02  0.54427335840E-02 -0.12030489467E-01  0.10301495616E+01  0.10300573862E+01 0.  0.
     999903    2    3    3    0    0  0.46383807323E-01  0.14900617053E-01  0.12201851117E+00  0.13893699535E+00  0.45182802462E-01 0.  0.
         14    1    1    2    0    0 -0.39426457515E-02 -0.54427335840E-02  0.12030489467E-01  0.13780438353E-01  0.00000000000E+00 0. -1.
     999901    1    3    3    0    0 -0.42441161572E-01 -0.94578834691E-02 -0.13404900064E+00  0.89121256630E+00  0.88000000000E+00 0. -1.
        -11    1    4    4    0    0  0.50965379909E-01  0.13231897188E-01  0.74864096741E-01  0.91528395344E-01  0.51100000000E-03 0.  1.
         11    1    4    4    0    0 -0.45815725854E-02  0.16687198647E-02  0.47154414429E-01  0.47408600006E-01  0.51100000000E-03 0. -1.
</event>
<event>
 8    1  0.2825007E+004  0.1043930E+01  0.7957747E-01            NaN
         13   -1    0    0    0    0  0.00000000000E+00  0.00000000000E+00  0.74505805969E-08  0.10566000000E+00  0.10566000000E+00 0.  1.
     999900   -1    0    0    0    0 -0.00000000000E+00 -0.00000000000E+00 -0.74505805969E-08  0.93827000000E+00  0.93827000000E+00 0. -1.
     999902    2    1    2    0    0  0.93871175734E-02 -0.58780605117E-02 -0.46011562155E-02  0.10319366598E+01  0.10318669631E+01 0.  0.
     999903    2    3    3    0    0  0.12010408055E+00  0.61490991861E-01 -0.94287147656E-02  0.14243110023E+00  0.44627182364E-01 0.  0.
         14    1    1    2    0    0 -0.93871175734E-02  0.58780605117E-02  0.46011562155E-02  0.11993340245E-01  0.00000000000E+00 0. -1.
     999901    1    3    3    0    0 -0.11071696297E+00 -0.67369052372E-01  0.48275585501E-02  0.88950555953E+00  0.88000000000E+00 0.  1.
        -11    1    4    4    0    0  0.23582565660E-01  0.24448362229E-01 -0.18436595860E-01  0.38652671404E-01  0.51100000000E-03 0.  1.
         11    1    4    4    0    0  0.96521514888E-01  0.37042629632E-01  0.90078810943E-02  0.10377842882E+00  0.51100000000E-03 0. -1.
</event>
<event>
 8    1  0.2825007E+004  0.1043930E+01  0.7957747E-01            NaN
         13   -1    0    0    0    0  0.00000000000E+00  0.00000000000E+00  0.74505805969E-08  0.10566000000E+00  0.10566000000E+00 0.  1.
     999900   -1    0    0    0    0 -0.00000000000E+00 -0.00000000000E+00 -0.74505805969E-08  0.93827000000E+00  0.93827000000E+00 0. -1.
     999902    2    1    2    0    0  0.36802912620E-02 -0.11935453563E-01 -0.67101690529E-02  0.10297516375E+01  0.10296540239E+01 0.  0.
     999903    2    3    3    0    0 -0.97752522102E-01  0.77079007413E-01 -0.39874062906E-01  0.13884646083E+00  0.46815273492E-01 0.  0.
         14    1    1    2    0    0 -0.36802912620E-02  0.11935453563E-01  0.67101690529E-02  0.14178362537E-01  0.00000000000E+00 0. -1.
     999901    1    3    3    0    0  0.10143281336E+00 -0.89014460976E-01  0.33163893853E-01  0.89090517663E+00  0.88000000000E+00 0. -1.
        -11    1    4    4    0    0 -0.14114389731E-01  0.20570140457E-01 -0.27529101700E-01  0.37154531855E-01  0.51100000000E-03 0. -1.
         11    1    4    4    0    0 -0.83638132371E-01  0.56508866956E-01 -0.12344961205E-01  0.10169192898E+00  0.51100000000E-03 0.  1.
</event>
<event>
 8    1  0.2825007E+004  0.1043930E+01  0.7957747E-01            NaN
         13   -1    0    0    0    0  0.00000000000E+00  0.00000000000E+00  0.74505805969E-08  0.10566000000E+00  0.10566000000E+00 0.  1.
     999900   -1    0    0    0    0 -0.00000000000E+00 -0.00000000000E+00 -0.74505805969E-08  0.93827000000E+00  0.93827000000E+00 0.  1.
     999902    2    1    2    0    0 -0.31457617227E-02  0.11434183336E-01  0.59601083873E-02  0.10306575000E+01  0.10305720368E+01 0.  0.
     999903    2    3    3    0    0 -0.11424769544E+00  0.42361840359E-01  0.56946423408E-01  0.14166944382E+00  0.44500277984E-01 0.  0.
         14    1    1    2    0    0  0.31457617227E-02 -0.11434183336E-01 -0.59601083873E-02  0.13272500042E-01  0.00000000000E+00 0. -1.
     999901    1    3    3    0    0  0.11110193372E+00 -0.30927657023E-01 -0.50986315020E-01  0.88898805614E+00  0.88000000000E+00 0.  1.
        -11    1    4    4    0    0 -0.39726900896E-01  0.33039322424E-01  0.38205536741E-01  0.64263112589E-01  0.51100000000E-03 0. -1.
         11    1    4    4    0    0 -0.74520794543E-01  0.93225179346E-02  0.18740886667E-01  0.77406331227E-01  0.51100000000E-03 0.  1.
</event>
<event>
 8    1  0.2825007E+004  0.1043930E+01  0.7957747E-01            NaN
         13   -1    0    0    0    0  0.00000000000E+00  0.00000000000E+00  0.74505805969E-08  0.10566000000E+00  0.10566000000E+00 0.  1.
     999900   -1    0    0    0    0 -0.00000000000E+00 -0.00000000000E+00 -0.74505805969E-08  0.93827000000E+00  0.93827000000E+00 0. -1.
     999902    2    1    2    0    0 -0.69794380313E-02 -0.58307730771E-02 -0.10234511064E-01  0.10302385543E+01  0.10301475734E+01 0.  0.
     999903    2    3    3    0    0  0.32370496927E-01 -0.51903158574E-01 -0.12029356898E+00  0.14131556641E+00  0.41925644053E-01 0.  0.
         14    1    1    2    0    0  0.69794380313E-02  0.58307730771E-02  0.10234511064E-01  0.13691445747E-01  0.00000000000E+00 0.  1.
     999901    1    3    3    0    0 -0.39349934958E-01  0.46072385497E-01  0.11005905792E+00  0.88892298784E+00  0.88000000000E+00 0.  1.
        -11    1    4    4    0    0  0.22808647364E-01 -0.16189765224E-02 -0.33831675863E-01  0.40837469219E-01  0.51100000000E-03 0. -1.
         11    1    4    4    0    0  0.95618495628E-02 -0.50284182052E-01 -0.86461893122E-01  0.10047809719E+00  0.51100000000E-03 0.  1.
</event>
<event>
 8    1  0.2825007E+004  0.1043930E+01  0.7957747E-01            NaN
         13   -1    0    0    0    0  0.00000000000E+00  0.00000000000E+00  0.74505805969E-08  0.10566000000E+00  0.10566000000E+00 0.  1.
     999900   -1    0    0    0    0 -0.00000000000E+00 -0.00000000000E+00 -0.74505805969E-08  0.93827000000E+00  0.93827000000E+00 0.  1.
     999902    2    1    2    0    0  0.48598146887E-03  0.14090061060E-01  0.90794363030E-03  0.10298023547E+01  0.10297054431E+01 0.  0.
     999903    2    3    3    0    0 -0.92155817944E-01 -0.91827140820E-01 -0.17601398468E-01  0.13843062960E+00  0.43912542755E-01 0.  0.
         14    1    1    2    0    0 -0.48598146887E-03 -0.14090061060E-01 -0.90794363030E-03  0.14127645250E-01  0.00000000000E+00 0.  1.
     999901    1    3    3    0    0  0.92641799413E-01  0.10591720188E+00  0.18509342099E-01  0.89137172515E+00  0.88000000000E+00 0. -1.
        -11    1    4    4    0    0 -0.18817348616E-01 -0.35341395245E-01 -0.22126691592E-01  0.45748862594E-01  0.51100000000E-03 0. -1.
         11    1    4    4    0    0 -0.73338469328E-01 -0.56485745575E-01  0.45252931231E-02  0.92681767006E-01  0.51100000000E-03 0.  1.
</event>
<event>
 7    1  0.2825007E+004  0.1043930E+01  0.7957747E-01            NaN
         13   -1    0    0    0    0  0.00000000000E+00  0.00000000000E+00  0.74505805969E-08  0.10566000000E+00  0.10566000000E+00 0.  1.
     999900   -1    0    0    0    0 -0.00000000000E+00 -0.00000000000E+00 -0.74505805969E-08  0.93827000000E+00  0.93827000000E+00 0.  1.
     999903    2    1    2    0    0  0.23234411397E-01  0.39270467602E-01 -0.10324909767E+00  0.12152040133E+00  0.44998047405E-01 0.  0.
         14    1    1    2    0    0 -0.54929279225E-02  0.29432060870E-03  0.38581835708E-01  0.38972001853E-01  0.00000000000E+00 0.  1.
     999901    1    1    2    0    0 -0.17741483475E-01 -0.39564788210E-01  0.64667261965E-01  0.88343759682E+00  0.88000000000E+00 0. -1.
        -11    1    3    3    0    0  0.24124842366E-01  0.39340083624E-03 -0.29221257041E-01  0.37898624876E-01  0.51100000000E-03 0.  1.
         11    1    3    3    0    0 -0.89043096906E-03  0.38877066765E-01 -0.74027840632E-01  0.83621776453E-01  0.51100000000E-03 0. -1.
</event>
<event>
 8    1  0.2825007E+004  0.1043930E+01  0.7957747E-01            NaN
         13   -1    0    0    0    0  0.00000000000E+00  0.00000000000E+00  0.74505805969E-08  0.10566000000E+00  0.10566000000E+00 0. -1.
     999900   -1    0    0    0    0 -0.00000000000E+00 -0.00000000000E+00 -0.74505805969E-08  0.93827000000E+00  0.93827000000E+00 0.  1.
     999902    2    1    2    0    0 -0.35293890609E-02  0.13304404164E-01 -0.24042601853E-02  0.10299570181E+01  0.10298622310E+01 0.  0.
     999903    2    3    3    0    0 -0.75430361070E-01 -0.11040310127E-01  0.10898758061E+00  0.13969269940E+00  0.42709831639E-01 0.  0.
         14    1    1    2    0    0  0.35293890609E-02 -0.13304404164E-01  0.24042601853E-02  0.13972981942E-01  0.00000000000E+00 0.  1.
     999901    1    3    3    0    0  0.71900972009E-01  0.24344714291E-01 -0.11139184079E+00  0.89026431866E+00  0.88000000000E+00 0.  1.
        -11    1    4    4    0    0 -0.19040949572E-01 -0.22399708443E-01  0.43787044028E-01  0.52743445513E-01  0.51100000000E-03 0.  1.
         11    1    4    4    0    0 -0.56389411499E-01  0.11359398317E-01  0.65200536580E-01  0.86949253882E-01  0.51100000000E-03 0. -1.
</event>
<event>
 8    1  0.2825007E+004  0.1043930E+01  0.7957747E-01            NaN
         13   -1    0    0    0    0  0.00000000000E+00  0.00000000000E+00  0.74505805969E-08  0.10566000000E+00  0.10566000000E+00 0. -1.
     999900   -1    0    0    0    0 -0.00000000000E+00 -0.00000000000E+00 -0.74505805969E-08  0.93827000000E+00  0.93827000000E+00 0.  1.
     999902    2    1    2    0    0  0.10764453300E-01  0.33375048336E-02  0.10073426030E-01  0.10288142365E+01  0.10287031870E+01 0.  0.
     999903    2    3    3    0    0  0.13233968712E-02  0.12836123932E+00 -0.31624424398E-01  0.13894976456E+00  0.42761825430E-01 0.  0.
         14    1    1    2    0    0 -0.10764453300E-01 -0.33375048336E-02 -0.10073426030E-01  0.15115763472E-01  0.00000000000E+00 0.  1.
     999901    1    3    3    0    0  0.94410564292E-02 -0.12502373449E+00  0.41697850428E-01  0.88986447196E+00  0.88000000000E+00 0. -1.
        -11    1    4    4    0    0 -0.46276203866E-03  0.12050632941E+00 -0.16268185337E-01  0.12160141673E+00  0.51100000000E-03 0.  1.
         11    1    4    4    0    0  0.17861589099E-02  0.78549099172E-02 -0.15356239062E-01  0.17348347834E-01  0.51100000000E-03 0. -1.
</event>
<event>
 8    1  0.2825007E+004  0.1043930E+01  0.7957747E-01            NaN
         13   -1    0    0    0    0  0.00000000000E+00  0.00000000000E+00  0.74505805969E-08  0.10566000000E+00  0.10566000000E+00 0.  1.
     999900   -1    0    0    0    0 -0.00000000000E+00 -0.00000000000E+00 -0.74505805969E-08  0.93827000000E+00  0.93827000000E+00 0. -1.
     999902    2    1    2    0    0  0.11932389445E-01  0.50885174643E-03 -0.10294387723E-01  0.10281624616E+01  0.10280415518E+01 0.  0.
     999903    2    3    3    0    0  0.76059990210E-01  0.44909649673E-02  0.10557511460E+00  0.13824451710E+00  0.46477422568E-01 0.  0.
         14    1    1    2    0    0 -0.11932389445E-01 -0.50885174643E-03  0.10294387723E-01  0.15767538380E-01  0.00000000000E+00 0.  1.
     999901    1    3    3    0    0 -0.64127600765E-01 -0.39821132208E-02 -0.11586950232E+00  0.88991794452E+00  0.88000000000E+00 0. -1.
        -11    1    4    4    0    0  0.77764573841E-01  0.35351361910E-02  0.76649620590E-01  0.10924857706E+00  0.51100000000E-03 0. -1.
         11    1    4    4    0    0 -0.17045836304E-02  0.95582877631E-03  0.28925494011E-01  0.28995940040E-01  0.51100000000E-03 0.  1.
</event>
<event>
 8    1  0.2825007E+004  0.1043930E+01  0.7957747E-01            NaN
         13   -1    0    0    0    0  0.00000000000E+00  0.00000000000E+00  0.74505805969E-08  0.10566000000E+00  0.10566000000E+00 0. -1.
     999900   -1    0    0    0    0 -0.00000000000E+00 -0.00000000000E+00 -0.74505805969E-08  0.93827000000E+00  0.93827000000E+00 0.  1.
     999902    2    1    2    0    0  0.47351344773E-02  0.44798327624E-02 -0.12347829634E-01  0.10299672174E+01  0.10298725696E+01 0.  0.
     999903    2    3    3    0    0  0.27167273079E-01  0.24175961292E-04  0.12874040506E+00  0.13843542121E+00  0.43037340064E-01 0.  0.
         14    1    1    2    0    0 -0.47351344773E-02 -0.44798327624E-02  0.12347829634E-01  0.13962782558E-01  0.00000000000E+00 0. -1.
     999901    1    3    3    0    0 -0.22432138602E-01  0.44556568011E-02 -0.14108823469E+00  0.89153179623E+00  0.88000000000E+00 0.  1.
        -11    1    4    4    0    0  0.12654956942E-01  0.15401903477E-01  0.10396441536E+00  0.10585946981E+00  0.51100000000E-03 0. -1.
         11    1    4    4    0    0  0.14512316137E-01 -0.15377727515E-01  0.24775989701E-01  0.32575951404E-01  0.51100000000E-03 0.  1.
</event>
<event>
 8    1  0.2825007E+004  0.1043930E+01  0.7957747E-01            NaN
         13   -1    0    0    0    0  0.00000000000E+00  0.00000000000E+00  0.74505805969E-08  0.10566000000E+00  0.10566000000E+00 0.  1.
     999900   -1    0    0    0    0 -0.00000000000E+00 -0.00000000000E+00 -0.74505805969E-08  0.93827000000E+00  0.93827000000E+00 0.  1.
     999902    2    1    2    0    0  0.12095263222E-01  0.57535737036E-02  0.30805120496E-02  0.10301863266E+01  0.10300946457E+01 0.  0.
     999903    2    3    3    0    0  0.78957223441E-01 -0.81155824384E-02 -0.10732635057E+00  0.14066254926E+00  0.44349762418E-01 0.  0.
         14    1    1    2    0    0 -0.12095263222E-01 -0.57535737036E-02 -0.30805120496E-02  0.13743673354E-01  0.00000000000E+00 0. -1.
     999901    1    3    3    0    0 -0.66861960219E-01  0.13869156142E-01  0.11040686262E+00  0.88952377738E+00  0.88000000000E+00 0. -1.
        -11    1    4    4    0    0  0.77638363725E-01 -0.14010211774E-01 -0.78826880812E-01  0.11152551195E+00  0.51100000000E-03 0.  1.
         11    1    4    4    0    0  0.13188597162E-02  0.58946293353E-02 -0.28499469758E-01  0.29137037314E-01  0.51100000000E-03 0. -1.
</event>
<event>
 8    1  0.2825007E+004  0.1043930E+01  0.7957747E-01            NaN
         13   -1    0    0    0    0  0.00000000000E+00  0.00000000000E+00  0.74505805969E-08  0.10566000000E+00  0.10566000000E+00 0. -1.
     999900   -1    0    0    0    0 -0.00000000000E+00 -0.00000000000E+00 -0.74505805969E-08  0.93827000000E+00  0.93827000000E+00 0. -1.
     999902    2    1    2    0    0  0.42022071572E-02  0.17105120485E-01  0.60342462953E-03  0.10263059309E+01  0.10261545965E+01 0.  0.
     999903    2    3    3    0    0 -0.91861564353E-01 -0.50616531833E-01  0.73066763313E-01  0.13553917921E+00  0.45072573699E-01 0.  0.
         14    1    1    2    0    0 -0.42022071572E-02 -0.17105120485E-01 -0.60342462953E-03  0.17624069141E-01  0.00000000000E+00 0.  1.
     999901    1    3    3    0    0  0.96063771510E-01  0.67721652318E-01 -0.72463338684E-01  0.89076675165E+00  0.88000000000E+00 0. -1.
        -11    1    4    4    0    0 -0.70836070526E-01 -0.21207609583E-01  0.31297066289E-01  0.80294950470E-01  0.51100000000E-03 0.  1.
         11    1    4    4    0    0 -0.21025493827E-01 -0.29408922249E-01  0.41769697025E-01  0.55244228740E-01  0.51100000000E-03 0. -1.
</event>
<event>
 8    1  0.2825007E+004  0.1043930E+01  0.7957747E-01            NaN
         13   -1    0    0    0    0  0.00000000000E+00  0.00000000000E+00  0.74505805969E-08  0.10566000000E+00  0.10566000000E+00 0. -1.
     999900   -1    0    0    0    0 -0.00000000000E+00 -0.00000000000E+00 -0.74505805969E-08  0.93827000000E+00  0.93827000000E+00 0.  1.
     999902    2    1    2    0    0  0.13645049317E-01  0.39886981393E-03 -0.32166121882E-02  0.10299052696E+01  0.10298097744E+01 0.  0.
     999903    2    3    3    0    0  0.22274672620E-01  0.12252251871E+00 -0.47008991273E-01  0.14035120804E+00  0.44504917777E-01 0.  0.
         14    1    1    2    0    0 -0.13645049317E-01 -0.39886981393E-03  0.32166121882E-02  0.14024730370E-01  0.00000000000E+00 0.  1.
     999901    1    3    3    0    0 -0.86296233036E-02 -0.12212364890E+00  0.43792379085E-01  0.88955406159E+00  0.88000000000E+00 0.  1.
        -11    1    4    4    0    0 -0.45907657184E-02  0.29599515959E-01 -0.29509704322E-01  0.42051043329E-01  0.51100000000E-03 0.  1.
         11    1    4    4    0    0  0.26865438339E-01  0.92923002754E-01 -0.17499286952E-01  0.98300164714E-01  0.51100000000E-03 0. -1.
</event>
<event>
 8    1  0.2825007E+004  0.1043930E+01  0.7957747E-01            NaN
         13   -1    0    0    0    0  0.00000000000E+00  0.00000000000E+00  0.74505805969E-08  0.10566000000E+00  0.10566000000E+00 0.  1.
     999900   -1    0    0    0    0 -0.00000000000E+00 -0.00000000000E+00 -0.74505805969E-08  0.93827000000E+00  0.93827000000E+00 0.  1.
     999902    2    1    2    0    0 -0.43747712465E-02  0.42635090865E-03  0.13684425101E-01  0.10295569736E+01  0.10294566421E+01 0.  0.
     999903    2    3    3    0    0  0.37197869129E-01 -0.12675430189E+00 -0.18811862172E-02  0.13930673283E+00  0.44187016587E-01 0.  0.
         14    1    1    2    0    0  0.43747712465E-02 -0.42635090865E-03 -0.13684425101E-01  0.14373026435E-01  0.00000000000E+00 0. -1.
     999901    1    3    3    0    0 -0.41572640375E-01  0.12718065280E+00  0.15565611318E-01  0.89025024074E+00  0.88000000000E+00 0. -1.
        -11    1    4    4    0    0 -0.25021405825E-03  0.19212582497E-02 -0.48618739007E-02  0.52585909865E-02  0.51100000000E-03 0.  1.
         11    1    4    4    0    0  0.37448083187E-01 -0.12867556014E+00  0.29806876835E-02  0.13404814184E+00  0.51100000000E-03 0. -1.
</event>
<event>
 8    1  0.2825007E+004  0.1043930E+01  0.7957747E-01            NaN
         13   -1    0    0    0    0  0.00000000000E+00  0.00000000000E+00  0.74505805969E-08  0.10566000000E+00  0.10566000000E+00 0. -1.
     999900   -1    0    0    0    0 -0.00000000000E+00 -0.00000000000E+00 -0.74505805969E-08  0.93827000000E+00  0.93827000000E+00 0. -1.
     999902    2    1    2    0    0 -0.90642577054E-02 -0.45950293575E-02  0.90468715760E-02  0.10303240841E+01  0.10302342439E+01 0.  0.
     999903    2    3    3    0    0 -0.23234443048E-02  0.12130433506E+00  0.54922249326E-01  0.14015520190E+00  0.43667917884E-01 0.  0.
         14    1    1    2    0    0  0.90642577054E-02  0.45950293575E-02 -0.90468715760E-02  0.13605915914E-01  0.00000000000E+00 0.  1.
     999901    1    3    3    0    0 -0.67408134006E-02 -0.12589936441E+00 -0.45875377750E-01  0.89016888218E+00  0.88000000000E+00 0. -1.
        -11    1    4    4    0    0 -0.20697728300E-01  0.62492708488E-01  0.17712252692E-01  0.68174185638E-01  0.51100000000E-03 0.  1.
         11    1    4    4    0    0  0.18374283995E-01  0.58811626568E-01  0.37209996634E-01  0.71981016264E-01  0.51100000000E-03 0. -1.
</event>
<event>
 8    1  0.2825007E+004  0.1043930E+01  0.7957747E-01            NaN
         13   -1    0    0    0    0  0.00000000000E+00  0.00000000000E+00  0.74505805969E-08  0.10566000000E+00  0.10566000000E+00 0. -1.
     999900   -1    0    0    0    0 -0.00000000000E+00 -0.00000000000E+00 -0.74505805969E-08  0.93827000000E+00  0.93827000000E+00 0. -1.
     999902    2    1    2    0    0  0.97626783071E-02 -0.13451919021E-01  0.30742910401E-02  0.10270268855E+01  0.10268877779E+01 0.  0.
     999903    2    3    3    0    0  0.94545207411E-02  0.12724731739E+00 -0.99023889457E-02  0.13575545421E+00  0.45279336291E-01 0.  0.
         14    1    1    2    0    0 -0.97626783071E-02  0.13451919021E-01 -0.30742910401E-02  0.16903114461E-01  0.00000000000E+00 0.  1.
     999901    1    3    3    0    0  0.30815756599E-03 -0.14069923641E+00  0.12976679986E-01  0.89127143133E+00  0.88000000000E+00 0.  1.
        -11    1    4    4    0    0  0.15124834983E-01  0.27190648597E-01 -0.16682122271E-01  0.35307879133E-01  0.51100000000E-03 0.  1.
         11    1    4    4    0    0 -0.56703142418E-02  0.10005666879E+00  0.67797333251E-02  0.10044757507E+00  0.51100000000E-03 0. -1.
</event>
<event>
 8    1  0.2825007E+004  0.1043930E+01  0.7957747E-01            NaN
         13   -1    0    0    0    0  0.00000000000E+00  0.00000000000E+00  0.74505805969E-08  0.10566000000E+00  0.10566000000E+00 0. -1.
     999900   -1    0    0    0    0 -0.00000000000E+00 -0.00000000000E+00 -0.74505805969E-08  0.93827000000E+00  0.93827000000E+00 0.  1.
     999902    2    1    2    0    0  0.10293089544E-01  0.77538502110E-02 -0.42900272618E-02  0.10303478713E+01  0.10302583471E+01 0.  0.
     999903    2    3    3    0    0  0.80999776830E-01 -0.74507958341E-01  0.74215087548E-01  0.14021895155E+00  0.45178263031E-01 0.  0.
         14    1    1    2    0    0 -0.10293089544E-01 -0.77538502110E-02  0.42900272618E-02  0.13582128676E-01  0.00000000000E+00 0. -1.
     999901    1    3    3    0    0 -0.70706687286E-01  0.82261808552E-01 -0.78505114810E-01  0.89012891978E+00  0.88000000000E+00 0.  1.
        -11    1    4    4    0    0  0.52394107723E-01 -0.36587263410E-01  0.17541474058E-01  0.66270165241E-01  0.51100000000E-03 0. -1.
         11    1    4    4    0    0  0.28605669107E-01 -0.37920694931E-01  0.56673613490E-01  0.73948786306E-01  0.51100000000E-03 0.  1.
</event>
<event>
 8    1  0.2825007E+004  0.1043930E+01  0.7957747E-01            NaN
         13   -1    0    0    0    0  0.00000000000E+00  0.00000000000E+00  0.74505805969E-08  0.10566000000E+00  0.10566000000E+00 0. -1.
     999900   -1    0    0    0    0 -0.00000000000E+00 -0.00000000000E+00 -0.74505805969E-08  0.93827000000E+00  0.93827000000E+00 0.  1.
     999902    2    1    2    0    0  0.93099948318E-02  0.41837870696E-02  0.73682899603E-02  0.10313414427E+01  0.10312646118E+01 0.  0.
     999903    2    3    3    0    0 -0.10977721387E-01 -0.71051858368E-01  0.11389013939E+00  0.14149937908E+00  0.43384714874E-01 0.  0.
         14    1    1    2    0    0 -0.93099948318E-02 -0.41837870696E-02 -0.73682899603E-02  0.12588557302E-01  0.00000000000E+00 0. -1.
     999901    1    3    3    0    0  0.20287716219E-01  0.75235645437E-01 -0.10652184943E+00  0.88984206362E+00  0.88000000000E+00 0.  1.
        -11    1    4    4    0    0  0.34525875322E-02 -0.71780939649E-04  0.31923639419E-01  0.32113943824E-01  0.51100000000E-03 0.  1.
         11    1    4    4    0    0 -0.14430308919E-01 -0.70980077428E-01  0.81966499976E-01  0.10938543526E+00  0.51100000000E-03 0. -1.
</event>
<event>
 8    1  0.2825007E+004  0.1043930E+01  0.7957747E-01            NaN
         13   -1    0    0    0    0  0.00000000000E+00  0.00000000000E+00  0.74505805969E-08  0.10566000000E+00  0.10566000000E+00 0.  1.
     999900   -1    0    0    0    0 -0.00000000000E+00 -0.00000000000E+00 -0.74505805969E-08  0.93827000000E+00  0.93827000000E+00 0. -1.
     999902    2    1    2    0    0  0.53256633527E-02  0.43314591402E-02  0.12305454647E-01  0.10298392781E+01  0.10297428758E+01 0.  0.
     999903    2    3    3    0    0  0.94888965326E-02 -0.73733342647E-01  0.11075269370E+00  0.14090547596E+00  0.45404284125E-01 0.  0.
         14    1    1    2    0    0 -0.53256633527E-02 -0.43314591402E-02 -0.12305454647E-01  0.14090721859E-01  0.00000000000E+00 0.  1.
     999901    1    3    3    0    0 -0.41632331798E-02  0.78064801787E-01 -0.98447239055E-01  0.88893380218E+00  0.88000000000E+00 0. -1.
        -11    1    4    4    0    0 -0.30176025232E-04 -0.76784090748E-01  0.93826513975E-01  0.12124138464E+00  0.51100000000E-03 0.  1.
         11    1    4    4    0    0  0.95190725578E-02  0.30507481009E-02  0.16926179727E-01  0.19664091321E-01  0.51100000000E-03 0. -1.
</event>
<event>
 8    1  0.2825007E+004  0.1043930E+01  0.7957747E-01            NaN
         13   -1    0    0    0    0  0.00000000000E+00  0.00000000000E+00  0.74505805969E-08  0.10566000000E+00  0.10566000000E+00 0. -1.
     999900   -1    0    0    0    0 -0.00000000000E+00 -0.00000000000E+00 -0.74505805969E-08  0.93827000000E+00  0.93827000000E+00 0.  1.
     999902    2    1    2    0    0 -0.88067400200E-02  0.62997726569E-02 -0.18718131457E-02  0.10329413927E+01  0.10328829417E+01 0.  0.
     999903    2    3    3    0    0  0.72776499346E-01 -0.94571766962E-01  0.60481756379E-01  0.14124701679E+00  0.45303851201E-01 0.  0.
         14    1    1    2    0    0  0.88067400200E-02 -0.62997726569E-02  0.18718131457E-02  0.10988607271E-01  0.00000000000E+00 0.  1.
     999901    1    3    3    0    0 -0.81583239366E-01  0.10087153962E+00 -0.62353569525E-01  0.89169437594E+00  0.88000000000E+00 0.  1.
        -11    1    4    4    0    0 -0.51558463687E-02 -0.12976511371E-01  0.18670735316E-02  0.14096796931E-01  0.51100000000E-03 0.  1.
         11    1    4    4    0    0  0.77932345715E-01 -0.81595255590E-01  0.58614682848E-01  0.12715021986E+00  0.51100000000E-03 0. -1.
</event>
<event>
 8    1  0.2825007E+004  0.1043930E+01  0.7957747E-01            NaN
         13   -1    0    0    0    0  0.00000000000E+00  0.00000000000E+00  0.74505805969E-08  0.10566000000E+00  0.10566000000E+00 0.  1.
     999900   -1    0    0    0    0 -0.00000000000E+00 -0.00000000000E+00 -0.74505805969E-08  0.93827000000E+00  0.93827000000E+00 0.  1.
     999902    2    1    2    0    0  0.61304864174E-02 -0.19511038859E-02  0.11466903629E-01  0.10307816332E+01  0.10306977713E+01 0.  0.
     999903    2    3    3    0    0  0.85827388341E-01 -0.10059598113E+00  0.20041455904E-01  0.14164951091E+00  0.46658675267E-01 0.  0.
         14    1    1    2    0    0 -0.61304864174E-02  0.19511038859E-02 -0.11466903629E-01  0.13148366778E-01  0.00000000000E+00 0. -1.
     999901    1    3    3    0    0 -0.79696901924E-01  0.98644877241E-01 -0.85745522752E-02  0.88913212231E+00  0.88000000000E+00 0. -1.
        -11    1    4    4    0    0  0.31883213118E-01 -0.61291526079E-01 -0.73937309102E-02  0.69484666118E-01  0.51100000000E-03 0. -1.
         11    1    4    4    0    0  0.53944175223E-01 -0.39304455048E-01  0.27435186815E-01  0.72164844791E-01  0.51100000000E-03 0.  1.
</event>
<event>
 8    1  0.2825007E+004  0.1043930E+01  0.7957747E-01            NaN
         13   -1    0    0    0    0  0.00000000000E+00  0.00000000000E+00  0.74505805969E-08  0.10566000000E+00  0.10566000000E+00 0. -1.
     999900   -1    0    0    0    0 -0.00000000000E+00 -0.00000000000E+00 -0.74505805969E-08  0.93827000000E+00  0.93827000000E+00 0. -1.
     999902    2    1    2    0    0  0.77645196491E-02  0.10926422196E-01 -0.34466091006E-02  0.10300897116E+01  0.10299967284E+01 0.  0.
     999903    2    3    3    0    0 -0.79742950042E-01  0.78921539653E-02  0.10426575257E+00  0.13920884593E+00  0.45678566649E-01 0.  0.
         14    1    1    2    0    0 -0.77645196491E-02 -0.10926422196E-01  0.34466091006E-02  0.13840288353E-01  0.00000000000E+00 0. -1.
     999901    1    3    3    0    0  0.87507469691E-01  0.30342682310E-02 -0.10771236167E+00  0.89088086571E+00  0.88000000000E+00 0.  1.
        -11    1    4    4    0    0 -0.42982549913E-01 -0.13770603497E-01  0.32159031732E-01  0.55421959192E-01  0.51100000000E-03 0. -1.
         11    1    4    4    0    0 -0.36760400129E-01  0.21662757463E-01  0.72106720842E-01  0.83786886743E-01  0.51100000000E-03 0.  1.
</event>
<event>
 8    1  0.2825007E+004  0.1043930E+01  0.7957747E-01            NaN
         13   -1    0    0    0    0  0.00000000000E+00  0.00000000000E+00  0.74505805969E-08  0.10566000000E+00  0.10566000000E+00 0.  1.
     999900   -1    0    0    0    0 -0.00000000000E+00 -0.00000000000E+00 -0.74505805969E-08  0.93827000000E+00  0.93827000000E+00 0.  1.
     999902    2    1    2    0    0 -0.12661258414E-01 -0.11903914553E-01  0.37143541623E-02  0.10261590385E+01  0.10260051487E+01 0.  0.
     999903    2    3    3    0    0 -0.11129882008E+00  0.62025883595E-01 -0.21484494450E-01  0.13721024041E+00  0.46156570342E-01 0.  0.
         14    1    1    2    0    0  0.12661258414E-01  0.11903914553E-01 -0.37143541623E-02  0.17770961514E-01  0.00000000000E+00 0. -1.
     999901    1    3    3    0    0  0.98637561664E-01 -0.73929798147E-01  0.25198848612E-01  0.88894879807E+00  0.88000000000E+00 0.  1.
        -11    1    4    4    0    0 -0.52396289500E-01  0.54323614645E-01 -0.54223337653E-02  0.75670926292E-01  0.51100000000E-03 0. -1.
         11    1    4    4    0    0 -0.58902530578E-01  0.77022689496E-02 -0.16062160685E-01  0.61539314120E-01  0.51100000000E-03 0.  1.
</event>
<event>
 8    1  0.2825007E+004  0.1043930E+01  0.7957747E-01            NaN
         13   -1    0    0    0    0  0.00000000000E+00  0.00000000000E+00  0.74505805969E-08  0.10566000000E+00  0.10566000000E+00 0.  1.
     999900   -1    0    0    0    0 -0.00000000000E+00 -0.00000000000E+00 -0.74505805969E-08  0.93827000000E+00  0.93827000000E+00 0. -1.
     999902    2    1    2    0    0  0.83086588537E-02  0.87314350460E-02 -0.79748706365E-02  0.10294776531E+01  0.10293762033E+01 0.  0.
     999903    2    3    3    0    0 -0.36039420519E-01  0.11384561722E+00  0.56563464494E-01  0.13976930753E+00  0.45567196760E-01 0.  0.
         14    1    1    2    0    0 -0.83086588537E-02 -0.87314350460E-02  0.79748706365E-02  0.14452346923E-01  0.00000000000E+00 0.  1.
     999901    1    3    3    0    0  0.44348079373E-01 -0.10511418217E+00 -0.64538335130E-01  0.88970834555E+00  0.88000000000E+00 0. -1.
        -11    1    4    4    0    0 -0.34039701813E-01  0.37102326010E-01  0.29548946559E-01  0.58383946925E-01  0.51100000000E-03 0. -1.
         11    1    4    4    0    0 -0.19997187058E-02  0.76743291207E-01  0.27014517935E-01  0.81385360603E-01  0.51100000000E-03 0.  1.
</event>
<event>
 8    1  0.2825007E+004  0.1043930E+01  0.7957747E-01            NaN
         13   -1    0    0    0    0  0.00000000000E+00  0.00000000000E+00  0.74505805969E-08  0.10566000000E+00  0.10566000000E+00 0. -1.
     999900   -1    0    0    0    0 -0.00000000000E+00 -0.00000000000E+00 -0.74505805969E-08  0.93827000000E+00  0.93827000000E+00 0. -1.
     999902    2    1    2    0    0 -0.13248558096E-01  0.71187582958E-02  0.18867824187E-02  0.10287721321E+01  0.10286604585E+01 0.  0.
     999903    2    3    3    0    0 -0.11425916434E+00  0.19714675298E-01  0.65472819780E-01  0.14062519390E+00  0.45220901916E-01 0.  0.
         14    1    1    2    0    0  0.13248558096E-01 -0.71187582958E-02 -0.18867824187E-02  0.15157867897E-01  0.00000000000E+00 0.  1.
     999901    1    3    3    0    0  0.10101060625E+00 -0.12595917003E-01 -0.63586037361E-01  0.88814693821E+00  0.88000000000E+00 0. -1.
        -11    1    4    4    0    0 -0.96380164900E-01  0.33319228971E-01  0.53257184507E-01  0.11504736428E+00  0.51100000000E-03 0. -1.
         11    1    4    4    0    0 -0.17878999441E-01 -0.13604553673E-01  0.12215635273E-01  0.25577829615E-01  0.51100000000E-03 0.  1.
</event>
<event>
 8    1  0.2825007E+004  0.1043930E+01  0.7957747E-01            NaN
         13   -1    0    0    0    0  0.00000000000E+00  0.00000000000E+00  0.74505805969E-08  0.10566000000E+00  0.10566000000E+00 0. -1.
     999900   -1    0    0    0    0 -0.00000000000E+00 -0.00000000000E+00 -0.74505805969E-08  0.93827000000E+00  0.93827000000E+00 0.  1.
     999902    2    1    2    0    0  0.66807388577E-02 -0.63343169824E-02  0.10519564352E-01  0.10299508342E+01  0.10298559626E+01 0.  0.
     999903    2    3    3    0    0 -0.45115821202E-02  0.85285236582E-01 -0.97254255150E-01  0.13858412690E+00  0.49530234531E-01 0.  0.
         14    1    1    2    0    0 -0.66807388577E-02  0.63343169824E-02 -0.10519564352E-01  0.13979165836E-01  0.00000000000E+00 0. -1.
     999901    1    3    3    0    0  0.11192320978E-01 -0.91619553564E-01  0.10777381950E+00  0.89136670726E+00  0.88000000000E+00 0. -1.
        -11    1    4    4    0    0 -0.24893647898E-01  0.27021040557E-01 -0.31531606104E-01  0.48418319291E-01  0.51100000000E-03 0. -1.
         11    1    4    4    0    0  0.20382065778E-01  0.58264196024E-01 -0.65722649046E-01  0.90165807612E-01  0.51100000000E-03 0.  1.
</event>
<event>
 8    1  0.2825007E+004  0.1043930E+01  0.7957747E-01            NaN
         13   -1    0    0    0    0  0.00000000000E+00  0.00000000000E+00  0.74505805969E-08  0.10566000000E+00  0.10566000000E+00 0. -1.
     999900   -1    0    0    0    0 -0.00000000000E+00 -0.00000000000E+00 -0.74505805969E-08  0.93827000000E+00  0.93827000000E+00 0. -1.
     999902    2    1    2    0    0 -0.19812018664E-02  0.55315242997E-02  0.77038082920E-02  0.10342412651E+01  0.10341958822E+01 0.  0.
     999903    2    3    3    0    0 -0.26912530317E-01 -0.56360914642E-01  0.12203007251E+00  0.14434085503E+00  0.45189676318E-01 0.  0.
         14    1    1    2    0    0  0.19812018664E-02 -0.55315242997E-02 -0.77038082920E-02  0.96887349078E-02  0.00000000000E+00 0.  1.
     999901    1    3    3    0    0  0.24931328450E-01  0.61892438942E-01 -0.11432626422E+00  0.88990041006E+00  0.88000000000E+00 0. -1.
        -11    1    4    4    0    0  0.12579185723E-01 -0.13096022956E-01  0.23373269403E-01  0.29602577156E-01  0.51100000000E-03 0.  1.
         11    1    4    4    0    0 -0.39491716040E-01 -0.43264891686E-01  0.98656803112E-01  0.11473827787E+00  0.51100000000E-03 0. -1.
</event>
<event>
 8    1  0.2825007E+004  0.1043930E+01  0.7957747E-01            NaN
         13   -1    0    0    0    0  0.00000000000E+00  0.00000000000E+00  0.74505805969E-08  0.10566000000E+00  0.10566000000E+00 0.  1.
     999900   -1    0    0    0    0 -0.00000000000E+00 -0.00000000000E+00 -0.74505805969E-08  0.93827000000E+00  0.93827000000E+00 0.  1.
     999902    2    1    2    0    0 -0.10016020624E-01 -0.41824386947E-02  0.10550167416E-01  0.10287933063E+01  0.10286819468E+01 0.  0.
     999903    2    3    3    0    0  0.29420989251E-01  0.12655881835E+00  0.14016475087E-01  0.13825382415E+00  0.45110189637E-01 0.  0.
         14    1    1    2    0    0  0.10016020624E-01  0.41824386947E-02 -0.10550167416E-01  0.15136693664E-01  0.00000000000E+00 0. -1.
     999901    1    3    3    0    0 -0.39437009875E-01 -0.13074125704E+00 -0.34663076712E-02  0.89053948218E+00  0.88000000000E+00 0. -1.
        -11    1    4    4    0    0  0.80171389053E-03  0.29393289929E-02  0.10895860447E-01  0.11325338670E-01  0.51100000000E-03 0. -1.
         11    1    4    4    0    0  0.28619275361E-01  0.12361948935E+00  0.31206146395E-02  0.12692848548E+00  0.51100000000E-03 0.  1.
</event>
<event>
 8    1  0.2825007E+004  0.1043930E+01  0.7957747E-01            NaN
         13   -1    0    0    0    0  0.00000000000E+00  0.00000000000E+00  0.74505805969E-08  0.10566000000E+00  0.10566000000E+00 0.  1.
     999900   -1    0    0    0    0 -0.00000000000E+00 -0.00000000000E+00 -0.74505805969E-08  0.93827000000E+00  0.93827000000E+00 0. -1.
     999902    2    1    2    0    0  0.58321811508E-02 -0.10346099232E-01  0.67412734147E-02  0.10302734677E+01  0.10301829534E+01 0.  0.
     999903    2    3    3    0    0 -0.34793428621E-01 -0.12801418974E+00  0.19893297072E-01  0.14141510139E+00  0.44769098538E-01 0.  0.
         14    1    1    2    0    0 -0.58321811508E-02  0.10346099232E-01 -0.67412734147E-02  0.13656532266E-01  0.00000000000E+00 0.  1.
     999901    1    3    3    0    0  0.40625609772E-01  0.11766809050E+00 -0.13152023658E-01  0.88885836634E+00  0.88000000000E+00 0. -1.
        -11    1    4    4    0    0 -0.21738947803E-01 -0.55855989937E-01 -0.12530805270E-01  0.61235248551E-01  0.51100000000E-03 0.  1.
         11    1    4    4    0    0 -0.13054480818E-01 -0.72158199799E-01  0.32424102342E-01  0.80179852840E-01  0.51100000000E-03 0. -1.
</event>
<event>
 8    1  0.2825007E+004  0.1043930E+01  0.7957747E-01            NaN
         13   -1    0    0    0    0  0.00000000000E+00  0.00000000000E+00  0.74505805969E-08  0.10566000000E+00  0.10566000000E+00 0.  1.
     999900   -1    0    0    0    0 -0.00000000000E+00 -0.00000000000E+00 -0.74505805969E-08  0.93827000000E+00  0.93827000000E+00 0.  1.
     999902    2    1    2    0    0 -0.76346143918E-02  0.68983890326E-02  0.92865509256E-02  0.10300694395E+01  0.10299761818E+01 0.  0.
     999903    2    3    3    0    0  0.26398444306E-01 -0.12800429355E+00 -0.11697911184E-01  0.13889194291E+00  0.45520914409E-01 0.  0.
         14    1    1    2    0    0  0.76346143918E-02 -0.68983890326E-02 -0.92865509256E-02  0.13860560459E-01  0.00000000000E+00 0.  1.
     999901    1    3    3    0    0 -0.34033058698E-01  0.13490268259E+00  0.20984462110E-01  0.89117749663E+00  0.88000000000E+00 0. -1.
        -11    1    4    4    0    0  0.11327099548E-02 -0.50887474044E-01 -0.24911251990E-01  0.56671418221E-01  0.51100000000E-03 0. -1.
         11    1    4    4    0    0  0.25265734351E-01 -0.77116819510E-01  0.13213340805E-01  0.82220524688E-01  0.51100000000E-03 0.  1.
</event>
<event>
 8    1  0.2825007E+004  0.1043930E+01  0.7957747E-01            NaN
         13   -1    0    0    0    0  0.00000000000E+00  0.00000000000E+00  0.74505805969E-08  0.10566000000E+00  0.10566000000E+00 0. -1.
     999900   -1    0    0    0    0 -0.00000000000E+00 -0.00000000000E+00 -0.74505805969E-08  0.93827000000E+00  0.93827000000E+00 0. -1.
     999902    2    1    2    0    0  0.13201244354E-01  0.42087735220E-02  0.24701982743E-02  0.10298556081E+01  0.10297594307E+01 0.  0.
     999903    2    3    3    0    0 -0.26250609215E-02  0.99537760012E-01 -0.87725044595E-01  0.13998299396E+00  0.44552200136E-01 0.  0.
         14    1    1    2    0    0 -0.13201244354E-01 -0.42087735220E-02 -0.24701982743E-02  0.14074391872E-01  0.00000000000E+00 0. -1.
     999901    1    3    3    0    0  0.15826305275E-01 -0.95328986490E-01  0.90195242869E-01  0.88987261416E+00  0.88000000000E+00 0.  1.
        -11    1    4    4    0    0  0.68305736898E-02  0.77237592696E-02 -0.28507004888E-01  0.30318701207E-01  0.51100000000E-03 0. -1.
         11    1    4    4    0    0 -0.94556346113E-02  0.91814000742E-01 -0.59218039706E-01  0.10966429276E+00  0.51100000000E-03 0.  1.
</event>
<event>
 8    1  0.2825007E+004  0.1043930E+01  0.7957747E-01            NaN
         13   -1    0    0    0    0  0.00000000000E+00  0.00000000000E+00  0.74505805969E-08  0.10566000000E+00  0.10566000000E+00 0. -1.
     999900   -1    0    0    0    0 -0.00000000000E+00 -0.00000000000E+00 -0.74505805969E-08  0.93827000000E+00  0.93827000000E+00 0. -1.
     999902    2    1    2    0    0  0.30098953912E-02  0.53424200932E-02  0.13047513026E-01  0.10295133943E+01  0.10294124492E+01 0.  0.
     999903    2    3    3    0    0  0.34598286032E-01 -0.29913759929E-01  0.12543084053E+00  0.14110423356E+00  0.45668747998E-01 0.  0.
         14    1    1    2    0    0 -0.30098953912E-02 -0.53424200932E-02 -0.13047513026E-01  0.14416605665E-01  0.00000000000E+00 0.  1.
     999901    1    3    3    0    0 -0.31588390641E-01  0.35256180022E-01 -0.11238332750E+00  0.88840916078E+00  0.88000000000E+00 0. -1.
        -11    1    4    4    0    0 -0.33449015577E-03 -0.27757416305E-01  0.72621035561E-01  0.77747424205E-01  0.51100000000E-03 0. -1.
         11    1    4    4    0    0  0.34932776188E-01 -0.21563436240E-02  0.52809804964E-01  0.63356809353E-01  0.51100000000E-03 0.  1.
</event>
<event>
 8    1  0.2825007E+004  0.1043930E+01  0.7957747E-01            NaN
         13   -1    0    0    0    0  0.00000000000E+00  0.00000000000E+00  0.74505805969E-08  0.10566000000E+00  0.10566000000E+00 0. -1.
     999900   -1    0    0    0    0 -0.00000000000E+00 -0.00000000000E+00 -0.74505805969E-08  0.93827000000E+00  0.93827000000E+00 0.  1.
     999902    2    1    2    0    0 -0.65975418953E-02  0.15615312264E-01 -0.41018467149E-02  0.10264889369E+01  0.10263407557E+01 0.  0.
     999903    2    3    3    0    0  0.34550503928E-01 -0.15290129650E-01 -0.12368129202E+00  0.13691176106E+00  0.44947112628E-01 0.  0.
         14    1    1    2    0    0  0.65975418953E-02 -0.15615312264E-01  0.41018467149E-02  0.17441063117E-01  0.00000000000E+00 0.  1.
     999901    1    3    3    0    0 -0.41148045824E-01  0.30905441915E-01  0.11957944530E+00  0.88957717583E+00  0.88000000000E+00 0.  1.
        -11    1    4    4    0    0  0.32302753267E-01 -0.14838894911E-01 -0.41288227913E-01  0.54485223281E-01  0.51100000000E-03 0. -1.
         11    1    4    4    0    0  0.22477506617E-02 -0.45123473884E-03 -0.82393064105E-01  0.82426537774E-01  0.51100000000E-03 0.  1.
</event>
<event>
 8    1  0.2825007E+004  0.1043930E+01  0.7957747E-01            NaN
         13   -1    0    0    0    0  0.00000000000E+00  0.00000000000E+00  0.74505805969E-08  0.10566000000E+00  0.10566000000E+00 0. -1.
     999900   -1    0    0    0    0 -0.00000000000E+00 -0.00000000000E+00 -0.74505805969E-08  0.93827000000E+00  0.93827000000E+00 0. -1.
     999902    2    1    2    0    0 -0.35032572525E-02  0.40349505573E-02  0.86092216494E-02  0.10337972642E+01  0.10337476051E+01 0.  0.
     999903    2    3    3    0    0  0.84611570183E-01 -0.10001189999E+00  0.33140278200E-01  0.14295960073E+00  0.46665527449E-01 0.  0.
         14    1    1    2    0    0  0.35032572525E-02 -0.40349505573E-02 -0.86092216494E-02  0.10132735800E-01  0.00000000000E+00 0.  1.
     999901    1    3    3    0    0 -0.88114827436E-01  0.10404685055E+00 -0.24531056550E-01  0.89083766347E+00  0.88000000000E+00 0. -1.
        -11    1    4    4    0    0  0.25446224086E-01 -0.44847309655E-01 -0.80359295752E-02  0.52188397069E-01  0.51100000000E-03 0. -1.
         11    1    4    4    0    0  0.59165346097E-01 -0.55164590340E-01  0.41176207775E-01  0.90771203660E-01  0.51100000000E-03 0.  1.
</event>
<event>
 8    1  0.2825007E+004  0.1043930E+01  0.7957747E-01            NaN
         13   -1    0    0    0    0  0.00000000000E+00  0.00000000000E+00  0.74505805969E-08  0.10566000000E+00  0.10566000000E+00 0.  1.
     999900   -1    0    0    0    0 -0.00000000000E+00 -0.00000000000E+00 -0.74505805969E-08  0.93827000000E+00  0.93827000000E+00 0. -1.
     999902    2    1    2    0    0 -0.80506404886E-02  0.72681677994E-02 -0.70981913436E-02  0.10309676161E+01  0.10308861247E+01 0.  0.
     999903    2    3    3    0    0 -0.10709640428E-01  0.33977224862E-01  0.12790997018E+00  0.14026696625E+00  0.45218504418E-01 0.  0.
         14    1    1    2    0    0  0.80506404886E-02 -0.72681677994E-02  0.70981913436E-02  0.12962383878E-01  0.00000000000E+00 0.  1.
     999901    1    3    3    0    0  0.26589999394E-02 -0.26709057062E-01 -0.13500816152E+00  0.89070064987E+00  0.88000000000E+00 0. -1.
        -11    1    4    4    0    0  0.16100623456E-01  0.23684263446E-01  0.58023676468E-01  0.64708442745E-01  0.51100000000E-03 0. -1.
         11    1    4    4    0    0 -0.26810263884E-01  0.10292961416E-01  0.69886293711E-01  0.75558523503E-01  0.51100000000E-03 0.  1.
</event>
<event>
 8    1  0.2825007E+004  0.1043930E+01  0.7957747E-01            NaN
         13   -1    0    0    0    0  0.00000000000E+00  0.00000000000E+00  0.74505805969E-08  0.10566000000E+00  0.10566000000E+00 0. -1.
     999900   -1    0    0    0    0 -0.00000000000E+00 -0.00000000000E+00 -0.74505805969E-08  0.93827000000E+00  0.93827000000E+00 0.  1.
     999902    2    1    2    0    0  0.23409272823E-02  0.64303839758E-02  0.13139750131E-01  0.10291150477E+01  0.10290084055E+01 0.  0.
     999903    2    3    3    0    0  0.42254443141E-01  0.53931812920E-01 -0.11064372927E+00  0.13828856387E+00  0.46771932375E-01 0.  0.
         14    1    1    2    0    0 -0.23409272823E-02 -0.64303839758E-02 -0.13139750131E-01  0.14814952316E-01  0.00000000000E+00 0.  1.
     999901    1    3    3    0    0 -0.39913515859E-01 -0.47501428944E-01  0.12378347941E+00  0.89082648382E+00  0.88000000000E+00 0. -1.
        -11    1    4    4    0    0  0.30948902985E-01  0.50591658912E-01 -0.53289759339E-01  0.79733368917E-01  0.51100000000E-03 0. -1.
         11    1    4    4    0    0  0.11305540156E-01  0.33401540074E-02 -0.57353969936E-01  0.58555194948E-01  0.51100000000E-03 0.  1.
</event>
<event>
 8    1  0.2825007E+004  0.1043930E+01  0.7957747E-01            NaN
         13   -1    0    0    0    0  0.00000000000E+00  0.00000000000E+00  0.74505805969E-08  0.10566000000E+00  0.10566000000E+00 0. -1.
     999900   -1    0    0    0    0 -0.00000000000E+00 -0.00000000000E+00 -0.74505805969E-08  0.93827000000E+00  0.93827000000E+00 0. -1.
     999902    2    1    2    0    0 -0.77128517104E-02 -0.91137405527E-02  0.63456186287E-02  0.10304090820E+01  0.10303203681E+01 0.  0.
     999903    2    3    3    0    0 -0.31244032234E-01  0.98029743255E-01  0.83805567098E-01  0.14022174990E+00  0.45307239543E-01 0.  0.
         14    1    1    2    0    0  0.77128517104E-02  0.91137405527E-02 -0.63456186287E-02  0.13520918022E-01  0.00000000000E+00 0.  1.
     999901    1    3    3    0    0  0.23531180524E-01 -0.10714348381E+00 -0.77459948469E-01  0.89018733208E+00  0.88000000000E+00 0.  1.
        -11    1    4    4    0    0  0.23807763866E-02  0.42567151158E-02  0.22985132667E-01  0.23502450180E-01  0.51100000000E-03 0. -1.
         11    1    4    4    0    0 -0.33624808621E-01  0.93773028139E-01  0.60820434431E-01  0.11671929972E+00  0.51100000000E-03 0.  1.
</event>
<event>
 8    1  0.2825007E+004  0.1043930E+01  0.7957747E-01            NaN
         13   -1    0    0    0    0  0.00000000000E+00  0.00000000000E+00  0.74505805969E-08  0.10566000000E+00  0.10566000000E+00 0.  1.
     999900   -1    0    0    0    0 -0.00000000000E+00 -0.00000000000E+00 -0.74505805969E-08  0.93827000000E+00  0.93827000000E+00 0.  1.
     999902    2    1    2    0    0  0.13404240679E-01 -0.56136656271E-02 -0.15947176780E-02  0.10293104913E+01  0.10292066641E+01 0.  0.
     999903    2    3    3    0    0  0.79658949894E-01 -0.36928369328E-01 -0.10044986388E+00  0.14074837356E+00  0.44840570338E-01 0.  0.
         14    1    1    2    0    0 -0.13404240679E-01  0.56136656271E-02  0.15947176780E-02  0.14619508693E-01  0.00000000000E+00 0.  1.
     999901    1    3    3    0    0 -0.66254709215E-01  0.31314703701E-01  0.98855146198E-01  0.88856211774E+00  0.88000000000E+00 0. -1.
        -11    1    4    4    0    0  0.74478548548E-01 -0.18019495254E-01 -0.91035236450E-01  0.11899341074E+00  0.51100000000E-03 0.  1.
         11    1    4    4    0    0  0.51804013460E-02 -0.18908874073E-01 -0.94146274265E-02  0.21754962823E-01  0.51100000000E-03 0. -1.
</event>
<event>
 8    1  0.2825007E+004  0.1043930E+01  0.7957747E-01            NaN
         13   -1    0    0    0    0  0.00000000000E+00  0.00000000000E+00  0.74505805969E-08  0.10566000000E+00  0.10566000000E+00 0.  1.
     999900   -1    0    0    0    0 -0.00000000000E+00 -0.00000000000E+00 -0.74505805969E-08  0.93827000000E+00  0.93827000000E+00 0. -1.
     999902    2    1    2    0    0  0.12744912731E-01  0.11401969750E-01  0.95980241323E-02  0.10243198041E+01  0.10241320722E+01 0.  0.
     999903    2    3    3    0    0 -0.48811815771E-01  0.69451992458E-01  0.96875519929E-01  0.13596379597E+00  0.43532916728E-01 0.  0.
         14    1    1    2    0    0 -0.12744912731E-01 -0.11401969750E-01 -0.95980241323E-02  0.19610195867E-01  0.00000000000E+00 0. -1.
     999901    1    3    3    0    0  0.61556728502E-01 -0.58050022708E-01 -0.87277495796E-01  0.88835600816E+00  0.88000000000E+00 0. -1.
        -11    1    4    4    0    0 -0.19258211453E-03 -0.47901072883E-02  0.12950739657E-01  0.13819008444E-01  0.51100000000E-03 0. -1.
         11    1    4    4    0    0 -0.48619233656E-01  0.74242099746E-01  0.83924780272E-01  0.12214478753E+00  0.51100000000E-03 0.  1.
</event>
<event>
 8    1  0.2825007E+004  0.1043930E+01  0.7957747E-01            NaN
         13   -1    0    0    0    0  0.00000000000E+00  0.00000000000E+00  0.74505805969E-08  0.10566000000E+00  0.10566000000E+00 0.  1.
     999900   -1    0    0    0    0 -0.00000000000E+00 -0.00000000000E+00 -0.74505805969E-08  0.93827000000E+00  0.93827000000E+00 0. -1.
     999902    2    1    2    0    0 -0.13771555047E-01  0.47325238860E-02 -0.35213548481E-02  0.10289482628E+01  0.10288391881E+01 0.  0.
     999903    2    3    3    0    0  0.42483173257E-01 -0.12316043386E+00 -0.10235109436E-02  0.13792220123E+00  0.45256751314E-01 0.  0.
         14    1    1    2    0    0  0.13771555047E-01 -0.47325238860E-02  0.35213548481E-02  0.14981737240E-01  0.00000000000E+00 0.  1.
     999901    1    3    3    0    0 -0.56254728304E-01  0.12789295775E+00 -0.24978439044E-02  0.89102606153E+00  0.88000000000E+00 0. -1.
        -11    1    4    4    0    0  0.34219646547E-01 -0.74856192714E-01  0.19826456515E-01  0.84662762159E-01  0.51100000000E-03 0. -1.
         11    1    4    4    0    0  0.82635267097E-02 -0.48304241147E-01 -0.20849967458E-01  0.53259439074E-01  0.51100000000E-03 0.  1.
</event>
<event>
 8    1  0.2825007E+004  0.1043930E+01  0.7957747E-01            NaN
         13   -1    0    0    0    0  0.00000000000E+00  0.00000000000E+00  0.74505805969E-08  0.10566000000E+00  0.10566000000E+00 0.  1.
     999900   -1    0    0    0    0 -0.00000000000E+00 -0.00000000000E+00 -0.74505805969E-08  0.93827000000E+00  0.93827000000E+00 0.  1.
     999902    2    1    2    0    0 -0.20000885469E-02 -0.94188764498E-02  0.77313909014E-02  0.10315813161E+01  0.10315074027E+01 0.  0.
     999903    2    3    3    0    0  0.38257235757E-01  0.10722219293E+00 -0.66185469925E-01  0.13990340706E+00  0.47246503943E-01 0.  0.
         14    1    1    2    0    0  0.20000885469E-02  0.94188764498E-02 -0.77313909014E-02  0.12348683859E-01  0.00000000000E+00 0. -1.
     999901    1    3    3    0    0 -0.40257324304E-01 -0.11664106938E+00  0.73916860826E-01  0.89167790908E+00  0.88000000000E+00 0. -1.
        -11    1    4    4    0    0  0.14623698199E-01  0.74015561709E-01 -0.19499730327E-01  0.77927251510E-01  0.51100000000E-03 0.  1.
         11    1    4    4    0    0  0.23633537558E-01  0.33206631217E-01 -0.46685739597E-01  0.61976155552E-01  0.51100000000E-03 0. -1.
</event>
<event>
 8    1  0.2825007E+004  0.1043930E+01  0.7957747E-01            NaN
         13   -1    0    0    0    0  0.00000000000E+00  0.00000000000E+00  0.74505805969E-08  0.10566000000E+00  0.10566000000E+00 0. -1.
     999900   -1    0    0    0    0 -0.00000000000E+00 -0.00000000000E+00 -0.74505805969E-08  0.93827000000E+00  0.93827000000E+00 0.  1.
     999902    2    1    2    0    0 -0.11951573552E-01 -0.57573068675E-02 -0.36233158727E-02  0.10301780870E+01  0.10300862953E+01 0.  0.
     999903    2    3    3    0    0  0.62622415191E-01  0.11222757868E+00  0.26635976246E-01  0.13866401659E+00  0.44739668807E-01 0.  0.
         14    1    1    2    0    0  0.11951573552E-01  0.57573068675E-02  0.36233158727E-02  0.13751912981E-01  0.00000000000E+00 0. -1.
     999901    1    3    3    0    0 -0.74573988743E-01 -0.11798488555E+00 -0.30259292118E-01  0.89151407043E+00  0.88000000000E+00 0. -1.
        -11    1    4    4    0    0  0.28419443583E-01  0.85367503920E-01  0.50683257357E-02  0.90117837002E-01  0.51100000000E-03 0.  1.
         11    1    4    4    0    0  0.34202971608E-01  0.26860074761E-01  0.21567650510E-01  0.48546179587E-01  0.51100000000E-03 0. -1.
</event>
<event>
 8    1  0.2825007E+004  0.1043930E+01  0.7957747E-01            NaN
         13   -1    0    0    0    0  0.00000000000E+00  0.00000000000E+00  0.74505805969E-08  0.10566000000E+00  0.10566000000E+00 0.  1.
     999900   -1    0    0    0    0 -0.00000000000E+00 -0.00000000000E+00 -0.74505805969E-08  0.93827000000E+00  0.93827000000E+00 0. -1.
     999902    2    1    2    0    0  0.30708837125E-02 -0.11012441426E-01  0.42400595264E-02  0.10317364649E+01  0.10316644080E+01 0.  0.
     999903    2    3    3    0    0 -0.12643207960E+00  0.12493825575E-01 -0.40717675690E-01  0.14081292160E+00  0.45046457622E-01 0.  0.
         14    1    1    2    0    0 -0.30708837125E-02  0.11012441426E-01 -0.42400595264E-02  0.12193535079E-01  0.00000000000E+00 0. -1.
     999901    1    3    3    0    0  0.12950296332E+00 -0.23506267001E-01  0.44957735216E-01  0.89092354333E+00  0.88000000000E+00 0.  1.
        -11    1    4    4    0    0 -0.31800063292E-01 -0.10096499333E-01  0.42379912061E-02  0.33636364468E-01  0.51100000000E-03 0.  1.
         11    1    4    4    0    0 -0.94632016312E-01  0.22590324908E-01 -0.44955666896E-01  0.10717655713E+00  0.51100000000E-03 0. -1.
</event>
<event>
 8    1  0.2825007E+004  0.1043930E+01  0.7957747E-01            NaN
         13   -1    0    0    0    0  0.00000000000E+00  0.00000000000E+00  0.74505805969E-08  0.10566000000E+00  0.10566000000E+00 0. -1.
     999900   -1    0    0    0    0 -0.00000000000E+00 -0.00000000000E+00 -0.74505805969E-08  0.93827000000E+00  0.93827000000E+00 0.  1.
     999902    2    1    2    0    0 -0.93666621895E-02 -0.70029568201E-02 -0.87415547798E-02  0.10293289540E+01  0.10292253908E+01 0.  0.
     999903    2    3    3    0    0 -0.13159991018E+00 -0.73243801959E-02  0.19088957428E-01  0.14044448026E+00  0.44587900096E-01 0.  0.
         14    1    1    2    0    0  0.93666621895E-02  0.70029568201E-02  0.87415547798E-02  0.14601046016E-01  0.00000000000E+00 0. -1.
     999901    1    3    3    0    0  0.12223324799E+00  0.32142337581E-03 -0.27830512208E-01  0.88888447373E+00  0.88000000000E+00 0. -1.
        -11    1    4    4    0    0 -0.28853229885E-01 -0.20716421912E-01  0.50092528032E-02  0.35875238623E-01  0.51100000000E-03 0.  1.
         11    1    4    4    0    0 -0.10274668029E+00  0.13392041716E-01  0.14079704625E-01  0.10456924163E+00  0.51100000000E-03 0. -1.
</event>
<event>
 7    1  0.2825007E+004  0.1043930E+01  0.7957747E-01            NaN
         13   -1    0    0    0    0  0.00000000000E+00  0.00000000000E+00  0.74505805969E-08  0.10566000000E+00  0.10566000000E+00 0. -1.
     999900   -1    0    0    0    0 -0.00000000000E+00 -0.00000000000E+00 -0.74505805969E-08  0.93827000000E+00  0.93827000000E+00 0.  1.
     999903    2    1    2    0    0 -0.57896061022E-01 -0.14098804525E-01 -0.31850549624E-01  0.79640124080E-01  0.42158767548E-01 0.  0.
         14    1    1    2    0    0 -0.34355836496E-01  0.57935225273E-01  0.40013667222E-01  0.78344798125E-01  0.00000000000E+00 0. -1.
     999901    1    1    2    0    0  0.92251897518E-01 -0.43836420748E-01 -0.81631175981E-02  0.88594507779E+00  0.88000000000E+00 0.  1.
        -11    1    3    3    0    0 -0.57655899285E-01 -0.76438641879E-02 -0.12850137034E-01  0.59565245948E-01  0.51100000000E-03 0.  1.
         11    1    3    3    0    0 -0.24016173738E-03 -0.64549403373E-02 -0.19000412590E-01  0.20074878132E-01  0.51100000000E-03 0. -1.
</event>
<event>
 8    1  0.2825007E+004  0.1043930E+01  0.7957747E-01            NaN
         13   -1    0    0    0    0  0.00000000000E+00  0.00000000000E+00  0.74505805969E-08  0.10566000000E+00  0.10566000000E+00 0.  1.
     999900   -1    0    0    0    0 -0.00000000000E+00 -0.00000000000E+00 -0.74505805969E-08  0.93827000000E+00  0.93827000000E+00 0.  1.
     999902    2    1    2    0    0  0.54514005138E-02 -0.48720766647E-02 -0.10914997099E-01  0.10307925703E+01  0.10307088487E+01 0.  0.
     999903    2    3    3    0    0  0.84543093298E-01  0.64335063327E-01 -0.82333950499E-01  0.14166615011E+00  0.44764759415E-01 0.  0.
         14    1    1    2    0    0 -0.54514005138E-02  0.48720766647E-02  0.10914997099E-01  0.13137429743E-01  0.00000000000E+00 0.  1.
     999901    1    3    3    0    0 -0.79091692784E-01 -0.69207139992E-01  0.71418953400E-01  0.88912642014E+00  0.88000000000E+00 0. -1.
        -11    1    4    4    0    0  0.34486961132E-01  0.17226780116E-01 -0.56144169349E-01  0.68106837500E-01  0.51100000000E-03 0.  1.
         11    1    4    4    0    0  0.50056132166E-01  0.47108283211E-01 -0.26189781149E-01  0.73559312613E-01  0.51100000000E-03 0. -1.
</event>
<event>
 8    1  0.2825007E+004  0.1043930E+01  0.7957747E-01            NaN
         13   -1    0    0    0    0  0.00000000000E+00  0.00000000000E+00  0.74505805969E-08  0.10566000000E+00  0.10566000000E+00 0.  1.
     999900   -1    0    0    0    0 -0.00000000000E+00 -0.00000000000E+00 -0.74505805969E-08  0.93827000000E+00  0.93827000000E+00 0. -1.
     999902    2    1    2    0    0 -0.66541652881E-02  0.19039050553E-02 -0.10823433023E-01  0.10310828418E+01  0.10310028018E+01 0.  0.
     999903    2    3    3    0    0  0.11495222593E+00 -0.65308336272E-01 -0.14621542293E-01  0.14017318010E+00  0.44221464096E-01 0.  0.
         14    1    1    2    0    0  0.66541652881E-02 -0.19039050553E-02  0.10823433023E-01  0.12847158150E-01  0.00000000000E+00 0.  1.
     999901    1    3    3    0    0 -0.12160639122E+00  0.67212241327E-01  0.37981092698E-02  0.89090966175E+00  0.88000000000E+00 0. -1.
        -11    1    4    4    0    0  0.36498167953E-01 -0.44122628922E-01 -0.13798612084E-01  0.58903187209E-01  0.51100000000E-03 0.  1.
         11    1    4    4    0    0  0.78454057977E-01 -0.21185707350E-01 -0.82293020843E-03  0.81269992889E-01  0.51100000000E-03 0. -1.
</event>
<event>
 8    1  0.2825007E+004  0.1043930E+01  0.7957747E-01            NaN
         13   -1    0    0    0    0  0.00000000000E+00  0.00000000000E+00  0.74505805969E-08  0.10566000000E+00  0.10566000000E+00 0.  1.
     999900   -1    0    0    0    0 -0.00000000000E+00 -0.00000000000E+00 -0.74505805969E-08  0.93827000000E+00  0.93827000000E+00 0. -1.
     999902    2    1    2    0    0  0.16225255222E-02 -0.10336050492E-01  0.93790108851E-02  0.10298789369E+01  0.10297830802E+01 0.  0.
     999903    2    3    3    0    0 -0.35613980041E-01  0.11176175216E+00 -0.57452009778E-01  0.13816103528E+00  0.45041019320E-01 0.  0.
         14    1    1    2    0    0 -0.16225255222E-02  0.10336050492E-01 -0.93790108851E-02  0.14051063092E-01  0.00000000000E+00 0.  1.
     999901    1    3    3    0    0  0.37236505564E-01 -0.12209780265E+00  0.66831020663E-01  0.89171790163E+00  0.88000000000E+00 0.  1.
        -11    1    4    4    0    0 -0.19346208063E-01  0.10054162711E-01 -0.42057410684E-02  0.22210613075E-01  0.51100000000E-03 0.  1.
         11    1    4    4    0    0 -0.16267771979E-01  0.10170758945E+00 -0.53246268709E-01  0.11595042221E+00  0.51100000000E-03 0. -1.
</event>
<event>
 8    1  0.2825007E+004  0.1043930E+01  0.7957747E-01            NaN
         13   -1    0    0    0    0  0.00000000000E+00  0.00000000000E+00  0.74505805969E-08  0.10566000000E+00  0.10566000000E+00 0. -1.
     999900   -1    0    0    0    0 -0.00000000000E+00 -0.00000000000E+00 -0.74505805969E-08  0.93827000000E+00  0.93827000000E+00 0. -1.
     999902    2    1    2    0    0 -0.21141904917E-02  0.45553318102E-02 -0.13349278941E-01  0.10296673180E+01  0.10295685318E+01 0.  0.
     999903    2    3    3    0    0  0.44469404003E-01  0.43860144108E-01 -0.11858057888E+00  0.14130448333E+00  0.44770114898E-01 0.  0.
         14    1    1    2    0    0  0.21141904917E-02 -0.45553318102E-02  0.13349278941E-01  0.14262681991E-01  0.00000000000E+00 0. -1.
     999901    1    3    3    0    0 -0.46583594495E-01 -0.39304812298E-01  0.10523129994E+00  0.88836283468E+00  0.88000000000E+00 0.  1.
        -11    1    4    4    0    0  0.14450290388E-01  0.20217339801E-01 -0.90581918849E-01  0.93930276611E-01  0.51100000000E-03 0. -1.
         11    1    4    4    0    0  0.30019113616E-01  0.23642804307E-01 -0.27998660036E-01  0.47374206722E-01  0.51100000000E-03 0.  1.
</event>
<event>
 7    1  0.2825007E+004  0.1043930E+01  0.7957747E-01            NaN
         13   -1    0    0    0    0  0.00000000000E+00  0.00000000000E+00  0.74505805969E-08  0.10566000000E+00  0.10566000000E+00 0. -1.
     999900   -1    0    0    0    0 -0.00000000000E+00 -0.00000000000E+00 -0.74505805969E-08  0.93827000000E+00  0.93827000000E+00 0. -1.
     999903    2    1    2    0    0  0.42391282300E-01 -0.79241434728E-01 -0.78239524500E-01  0.12707444069E+00  0.44161799001E-01 0.  0.
         14    1    1    2    0    0  0.44154221363E-02 -0.15924812236E-01  0.23593116516E-01  0.28805047203E-01  0.00000000000E+00 0. -1.
     999901    1    1    2    0    0 -0.46806704436E-01  0.95166246964E-01  0.54646407983E-01  0.88805051210E+00  0.88000000000E+00 0.  1.
        -11    1    3    3    0    0  0.50304214528E-01 -0.73557564720E-01 -0.63603003001E-01  0.10948439358E+00  0.51100000000E-03 0. -1.
         11    1    3    3    0    0 -0.79129322287E-02 -0.56838700082E-02 -0.14636521499E-01  0.17590047110E-01  0.51100000000E-03 0.  1.
</event>
<event>
 8    1  0.2825007E+004  0.1043930E+01  0.7957747E-01            NaN
         13   -1    0    0    0    0  0.00000000000E+00  0.00000000000E+00  0.74505805969E-08  0.10566000000E+00  0.10566000000E+00 0. -1.
     999900   -1    0    0    0    0 -0.00000000000E+00 -0.00000000000E+00 -0.74505805969E-08  0.93827000000E+00  0.93827000000E+00 0. -1.
     999902    2    1    2    0    0 -0.81348374611E-02  0.28688424329E-02 -0.10856117715E-01  0.10300641741E+01  0.10299708450E+01 0.  0.
     999903    2    3    3    0    0 -0.45077903424E-01 -0.52303437524E-01  0.11107862974E+00  0.13917874189E+00  0.47587742696E-01 0.  0.
         14    1    1    2    0    0  0.81348374611E-02 -0.28688424329E-02  0.10856117715E-01  0.13865825949E-01  0.00000000000E+00 0. -1.
     999901    1    3    3    0    0  0.36943065963E-01  0.55172279957E-01 -0.12193474746E+00  0.89088543216E+00  0.88000000000E+00 0. -1.
        -11    1    4    4    0    0 -0.23994768761E-01 -0.43704805841E-01  0.38164608298E-01  0.62790583919E-01  0.51100000000E-03 0.  1.
         11    1    4    4    0    0 -0.21083134664E-01 -0.85986316840E-02  0.72914021444E-01  0.76388157971E-01  0.51100000000E-03 0. -1.
</event>
<event>
 8    1  0.2825007E+004  0.1043930E+01  0.7957747E-01            NaN
         13   -1    0    0    0    0  0.00000000000E+00  0.00000000000E+00  0.74505805969E-08  0.10566000000E+00  0.10566000000E+00 0. -1.
     999900   -1    0    0    0    0 -0.00000000000E+00 -0.00000000000E+00 -0.74505805969E-08  0.93827000000E+00  0.93827000000E+00 0. -1.
     999902    2    1    2    0    0  0.10524771769E-01  0.37744632505E-02  0.71021403011E-02  0.10306839519E+01  0.10305988312E+01 0.  0.
     999903    2    3    3    0    0 -0.78912930813E-01 -0.62211077642E-01  0.87741411405E-01  0.14003481430E+00  0.42587851670E-01 0.  0.
         14    1    1    2    0    0 -0.10524771769E-01 -0.37744632505E-02 -0.71021403011E-02  0.13246048108E-01  0.00000000000E+00 0. -1.
     999901    1    3    3    0    0  0.89437702581E-01  0.65985540892E-01 -0.80639271104E-01  0.89064913759E+00  0.88000000000E+00 0.  1.
        -11    1    4    4    0    0 -0.57440973997E-01 -0.58148898066E-01  0.85135044393E-01  0.11802117075E+00  0.51100000000E-03 0. -1.
         11    1    4    4    0    0 -0.21471956816E-01 -0.40621795756E-02  0.26063670121E-02  0.22013643552E-01  0.51100000000E-03 0.  1.
</event>
<event>
 8    1  0.2825007E+004  0.1043930E+01  0.7957747E-01            NaN
         13   -1    0    0    0    0  0.00000000000E+00  0.00000000000E+00  0.74505805969E-08  0.10566000000E+00  0.10566000000E+00 0. -1.
     999900   -1    0    0    0    0 -0.00000000000E+00 -0.00000000000E+00 -0.74505805969E-08  0.93827000000E+00  0.93827000000E+00 0.  1.
     999902    2    1    2    0    0 -0.87359038931E-02  0.65494172882E-02 -0.94847408676E-02  0.10294672481E+01  0.10293656511E+01 0.  0.
     999903    2    3    3    0    0  0.96447088261E-01  0.58237477242E-01  0.72015101886E-01  0.13796439237E+00  0.33975786563E-01 0.  0.
         14    1    1    2    0    0  0.87359038931E-02 -0.65494172882E-02  0.94847408676E-02  0.14462751915E-01  0.00000000000E+00 0. -1.
     999901    1    3    3    0    0 -0.10518299215E+00 -0.51688059954E-01 -0.81499842753E-01  0.89150285572E+00  0.88000000000E+00 0.  1.
        -11    1    4    4    0    0  0.33474987267E-01  0.19290245282E-01  0.44594873765E-01  0.59005527052E-01  0.51100000000E-03 0. -1.
         11    1    4    4    0    0  0.62972100994E-01  0.38947231959E-01  0.27420228121E-01  0.78958865317E-01  0.51100000000E-03 0.  1.
</event>
<event>
 8    1  0.2825007E+004  0.1043930E+01  0.7957747E-01            NaN
         13   -1    0    0    0    0  0.00000000000E+00  0.00000000000E+00  0.74505805969E-08  0.10566000000E+00  0.10566000000E+00 0. -1.
     999900   -1    0    0    0    0 -0.00000000000E+00 -0.00000000000E+00 -0.74505805969E-08  0.93827000000E+00  0.93827000000E+00 0.  1.
     999902    2    1    2    0    0 -0.68539875026E-02 -0.42671626869E-02  0.10571866584E-01  0.10306277376E+01  0.10305418882E+01 0.  0.
     999903    2    3    3    0    0 -0.71015770449E-01  0.96798695291E-01 -0.56418558939E-01  0.13999944299E+00  0.44761179404E-01 0.  0.
         14    1    1    2    0    0  0.68539875026E-02  0.42671626869E-02 -0.10571866584E-01  0.13302262408E-01  0.00000000000E+00 0.  1.
     999901    1    3    3    0    0  0.64161782946E-01 -0.10106585798E+00  0.66990425523E-01  0.89062829461E+00  0.88000000000E+00 0. -1.
        -11    1    4    4    0    0 -0.51759509738E-01  0.53659466950E-01 -0.12699673525E-01  0.75630206070E-01  0.51100000000E-03 0.  1.
         11    1    4    4    0    0 -0.19256260711E-01  0.43139228341E-01 -0.43718885414E-01  0.64369236917E-01  0.51100000000E-03 0. -1.
</event>
<event>
 8    1  0.2825007E+004  0.1043930E+01  0.7957747E-01            NaN
         13   -1    0    0    0    0  0.00000000000E+00  0.00000000000E+00  0.74505805969E-08  0.10566000000E+00  0.10566000000E+00 0. -1.
     999900   -1    0    0    0    0 -0.00000000000E+00 -0.00000000000E+00 -0.74505805969E-08  0.93827000000E+00  0.93827000000E+00 0. -1.
     999902    2    1    2    0    0  0.36300812549E-02 -0.18226124740E-02 -0.11653382406E-01  0.10315889819E+01  0.10315151608E+01 0.  0.
     999903    2    3    3    0    0 -0.12475331859E+00  0.44018234560E-01 -0.20942596910E-01  0.14104422159E+00  0.44202766945E-01 0.  0.
         14    1    1    2    0    0 -0.36300812549E-02  0.18226124740E-02  0.11653382406E-01  0.12341018096E-01  0.00000000000E+00 0. -1.
     999901    1    3    3    0    0  0.12838339985E+00 -0.45840847034E-01  0.92892145045E-02  0.89054476031E+00  0.88000000000E+00 0. -1.
        -11    1    4    4    0    0 -0.57717099268E-01  0.88429056256E-02  0.10028935700E-01  0.59247794896E-01  0.51100000000E-03 0. -1.
         11    1    4    4    0    0 -0.67036219325E-01  0.35175328934E-01 -0.30971532610E-01  0.81796426696E-01  0.51100000000E-03 0.  1.
</event>
<event>
 8    1  0.2825007E+004  0.1043930E+01  0.7957747E-01            NaN
         13   -1    0    0    0    0  0.00000000000E+00  0.00000000000E+00  0.74505805969E-08  0.10566000000E+00  0.10566000000E+00 0.  1.
     999900   -1    0    0    0    0 -0.00000000000E+00 -0.00000000000E+00 -0.74505805969E-08  0.93827000000E+00  0.93827000000E+00 0.  1.
     999902    2    1    2    0    0  0.11419068436E-01  0.36000880336E-02  0.77816839927E-02  0.10296502814E+01  0.10295512574E+01 0.  0.
     999903    2    3    3    0    0 -0.89286200041E-01 -0.93809847258E-01  0.18863285044E-01  0.13849762978E+00  0.45315085471E-01 0.  0.
         14    1    1    2    0    0 -0.11419068436E-01 -0.36000880336E-02 -0.77816839927E-02  0.14279718610E-01  0.00000000000E+00 0.  1.
     999901    1    3    3    0    0  0.10070526848E+00  0.97409935292E-01 -0.11081601051E-01  0.89115265161E+00  0.88000000000E+00 0. -1.
        -11    1    4    4    0    0 -0.42678103670E-01 -0.71596834081E-01  0.23648300037E-01  0.86643120898E-01  0.51100000000E-03 0.  1.
         11    1    4    4    0    0 -0.46608096372E-01 -0.22213013177E-01 -0.47850149933E-02  0.51854508881E-01  0.51100000000E-03 0. -1.
</event>
<event>
 8    1  0.2825007E+004  0.1043930E+01  0.7957747E-01            NaN
         13   -1    0    0    0    0  0.00000000000E+00  0.00000000000E+00  0.74505805969E-08  0.10566000000E+00  0.10566000000E+00 0. -1.
     999900   -1    0    0    0    0 -0.00000000000E+00 -0.00000000000E+00 -0.74505805969E-08  0.93827000000E+00  0.93827000000E+00 0. -1.
     999902    2    1    2    0    0  0.13154836733E-01  0.42230738563E-02 -0.22315500867E-02  0.10299348616E+01  0.10298397717E+01 0.  0.
     999903    2    3    3    0    0  0.94820368792E-01 -0.48919132693E-01 -0.80657454680E-01  0.14109068195E+00  0.44910707578E-01 0.  0.
         14    1    1    2    0    0 -0.13154836733E-01 -0.42230738563E-02  0.22315500867E-02  0.13995138372E-01  0.00000000000E+00 0. -1.
     999901    1    3    3    0    0 -0.81665532060E-01  0.53142206549E-01  0.78425904593E-01  0.88884417968E+00  0.88000000000E+00 0.  1.
        -11    1    4    4    0    0  0.55206932045E-01 -0.36297598600E-01 -0.73618265804E-01  0.98920327491E-01  0.51100000000E-03 0.  1.
         11    1    4    4    0    0  0.39613436748E-01 -0.12621534093E-01 -0.70391888759E-02  0.42170354455E-01  0.51100000000E-03 0. -1.
</event>
<event>
 8    1  0.2825007E+004  0.1043930E+01  0.7957747E-01            NaN
         13   -1    0    0    0    0  0.00000000000E+00  0.00000000000E+00  0.74505805969E-08  0.10566000000E+00  0.10566000000E+00 0.  1.
     999900   -1    0    0    0    0 -0.00000000000E+00 -0.00000000000E+00 -0.74505805969E-08  0.93827000000E+00  0.93827000000E+00 0. -1.
     999902    2    1    2    0    0 -0.33896028788E-02  0.65331969846E-02  0.11350221145E-01  0.10304022659E+01  0.10303134620E+01 0.  0.
     999903    2    3    3    0    0  0.26370804356E-02 -0.24753634232E-01  0.13542791593E+00  0.14112702105E+00  0.30926025521E-01 0.  0.
         14    1    1    2    0    0  0.33896028788E-02 -0.65331969846E-02 -0.11350221145E-01  0.13527734125E-01  0.00000000000E+00 0. -1.
     999901    1    3    3    0    0 -0.60266833144E-02  0.31286831217E-01 -0.12407769479E+00  0.88927524483E+00  0.88000000000E+00 0. -1.
        -11    1    4    4    0    0 -0.14177060035E-01 -0.11454060483E-01  0.64633764789E-01  0.67156304280E-01  0.51100000000E-03 0.  1.
         11    1    4    4    0    0  0.16814140471E-01 -0.13299573749E-01  0.70794151145E-01  0.73970716767E-01  0.51100000000E-03 0. -1.
</event>
<event>
 8    1  0.2825007E+004  0.1043930E+01  0.7957747E-01            NaN
         13   -1    0    0    0    0  0.00000000000E+00  0.00000000000E+00  0.74505805969E-08  0.10566000000E+00  0.10566000000E+00 0. -1.
     999900   -1    0    0    0    0 -0.00000000000E+00 -0.00000000000E+00 -0.74505805969E-08  0.93827000000E+00  0.93827000000E+00 0.  1.
     999902    2    1    2    0    0 -0.37439035468E-02 -0.25057468164E-02  0.14070787273E-01  0.10291556088E+01  0.10290495540E+01 0.  0.
     999903    2    3    3    0    0  0.26918427979E-01  0.12851738064E+00 -0.92079726495E-03  0.13880063121E+00  0.44982757423E-01 0.  0.
         14    1    1    2    0    0  0.37439035468E-02  0.25057468164E-02 -0.14070787273E-01  0.14774391201E-01  0.00000000000E+00 0.  1.
     999901    1    3    3    0    0 -0.30662331525E-01 -0.13102312746E+00  0.14991584538E-01  0.89035497759E+00  0.88000000000E+00 0.  1.
        -11    1    4    4    0    0 -0.16074761410E-02  0.25075853817E-01 -0.16938583382E-01  0.30307740796E-01  0.51100000000E-03 0.  1.
         11    1    4    4    0    0  0.28525904120E-01  0.10344152683E+00  0.16017786117E-01  0.10849289042E+00  0.51100000000E-03 0. -1.
</event>
<event>
 8    1  0.2825007E+004  0.1043930E+01  0.7957747E-01            NaN
         13   -1    0    0    0    0  0.00000000000E+00  0.00000000000E+00  0.74505805969E-08  0.10566000000E+00  0.10566000000E+00 0. -1.
     999900   -1    0    0    0    0 -0.00000000000E+00 -0.00000000000E+00 -0.74505805969E-08  0.93827000000E+00  0.93827000000E+00 0. -1.
     999902    2    1    2    0    0  0.58637859177E-02  0.93594669179E-02  0.12037244284E-01  0.10275935727E+01  0.10274637083E+01 0.  0.
     999903    2    3    3    0    0 -0.50672379226E-01  0.11452191062E+00  0.40413085791E-01  0.13907758192E+00  0.45015533551E-01 0.  0.
         14    1    1    2    0    0 -0.58637859177E-02 -0.93594669179E-02 -0.12037244284E-01  0.16336427279E-01  0.00000000000E+00 0. -1.
     999901    1    3    3    0    0  0.56536165143E-01 -0.10516244370E+00 -0.28375841507E-01  0.88851599080E+00  0.88000000000E+00 0. -1.
        -11    1    4    4    0    0 -0.47079021655E-01  0.63855016246E-01  0.38651805637E-01  0.88250329063E-01  0.51100000000E-03 0. -1.
         11    1    4    4    0    0 -0.35933575706E-02  0.50666894371E-01  0.17612801536E-02  0.50827252853E-01  0.51100000000E-03 0.  1.
</event>
<event>
 8    1  0.2825007E+004  0.1043930E+01  0.7957747E-01            NaN
         13   -1    0    0    0    0  0.00000000000E+00  0.00000000000E+00  0.74505805969E-08  0.10566000000E+00  0.10566000000E+00 0.  1.
     999900   -1    0    0    0    0 -0.00000000000E+00 -0.00000000000E+00 -0.74505805969E-08  0.93827000000E+00  0.93827000000E+00 0. -1.
     999902    2    1    2    0    0  0.11601341120E-01  0.54529063922E-02 -0.72836081083E-02  0.10291863149E+01  0.10290807036E+01 0.  0.
     999903    2    3    3    0    0 -0.51921171886E-01 -0.50953345655E-02  0.11938249264E+00  0.13778815686E+00  0.44851154918E-01 0.  0.
         14    1    1    2    0    0 -0.11601341120E-01 -0.54529063922E-02  0.72836081083E-02  0.14743685122E-01  0.00000000000E+00 0. -1.
     999901    1    3    3    0    0  0.63522513006E-01  0.10548240958E-01 -0.12666610074E+00  0.89139815802E+00  0.88000000000E+00 0. -1.
        -11    1    4    4    0    0 -0.36831715045E-01  0.86388672556E-02  0.37016409226E-01  0.52930907167E-01  0.51100000000E-03 0.  1.
         11    1    4    4    0    0 -0.15089456842E-01 -0.13734201821E-01  0.82366083411E-01  0.84857249689E-01  0.51100000000E-03 0. -1.
</event>
<event>
 8    1  0.2825007E+004  0.1043930E+01  0.7957747E-01            NaN
         13   -1    0    0    0    0  0.00000000000E+00  0.00000000000E+00  0.74505805969E-08  0.10566000000E+00  0.10566000000E+00 0.  1.
     999900   -1    0    0    0    0 -0.00000000000E+00 -0.00000000000E+00 -0.74505805969E-08  0.93827000000E+00  0.93827000000E+00 0. -1.
     999902    2    1    2    0    0 -0.84815836258E-05 -0.73099757396E-02  0.95720255224E-02  0.10318859355E+01  0.10318156446E+01 0.  0.
     999903    2    3    3    0    0 -0.83206037589E-01  0.96705172270E-01 -0.38327008488E-01  0.14057493377E+00  0.44913443294E-01 0.  0.
         14    1    1    2    0    0  0.84815836258E-05  0.73099757396E-02 -0.95720255224E-02  0.12044064507E-01  0.00000000000E+00 0. -1.
     999901    1    3    3    0    0  0.83197556005E-01 -0.10401514801E+00  0.47899034011E-01  0.89131100173E+00  0.88000000000E+00 0.  1.
        -11    1    4    4    0    0 -0.57348939428E-01  0.42216981358E-01 -0.43451034813E-02  0.71346446399E-01  0.51100000000E-03 0.  1.
         11    1    4    4    0    0 -0.25857098161E-01  0.54488190912E-01 -0.33981905007E-01  0.69228487367E-01  0.51100000000E-03 0. -1.
</event>
<event>
 8    1  0.2825007E+004  0.1043930E+01  0.7957747E-01            NaN
         13   -1    0    0    0    0  0.00000000000E+00  0.00000000000E+00  0.74505805969E-08  0.10566000000E+00  0.10566000000E+00 0.  1.
     999900   -1    0    0    0    0 -0.00000000000E+00 -0.00000000000E+00 -0.74505805969E-08  0.93827000000E+00  0.93827000000E+00 0. -1.
     999902    2    1    2    0    0 -0.14317092766E-02  0.65901539306E-03  0.14118255892E-01  0.10297240420E+01  0.10296260455E+01 0.  0.
     999903    2    3    3    0    0 -0.67649473681E-01 -0.11347247635E+00  0.10953880793E-01  0.13988090809E+00  0.44656766184E-01 0.  0.
         14    1    1    2    0    0  0.14317092766E-02 -0.65901539306E-03 -0.14118255892E-01  0.14205957981E-01  0.00000000000E+00 0. -1.
     999901    1    3    3    0    0  0.66217764404E-01  0.11413149174E+00  0.31643750988E-02  0.88984313393E+00  0.88000000000E+00 0. -1.
        -11    1    4    4    0    0 -0.48405898447E-01 -0.10201853774E+00 -0.39252838929E-02  0.11298930048E+00  0.51100000000E-03 0.  1.
         11    1    4    4    0    0 -0.19243575234E-01 -0.11453938607E-01  0.14879164686E-01  0.26891607615E-01  0.51100000000E-03 0. -1.
</event>
<event>
 8    1  0.2825007E+004  0.1043930E+01  0.7957747E-01            NaN
         13   -1    0    0    0    0  0.00000000000E+00  0.00000000000E+00  0.74505805969E-08  0.10566000000E+00  0.10566000000E+00 0. -1.
     999900   -1    0    0    0    0 -0.00000000000E+00 -0.00000000000E+00 -0.74505805969E-08  0.93827000000E+00  0.93827000000E+00 0. -1.
     999902    2    1    2    0    0 -0.24663126771E-02  0.12226549902E-01 -0.58538818949E-02  0.10301517870E+01  0.10300596415E+01 0.  0.
     999903    2    3    3    0    0  0.27928091643E-01  0.12932127563E+00 -0.23984626884E-01  0.14169035365E+00  0.44686948399E-01 0.  0.
         14    1    1    2    0    0  0.24663126771E-02 -0.12226549902E-01  0.58538818949E-02  0.13778213018E-01  0.00000000000E+00 0. -1.
     999901    1    3    3    0    0 -0.30394404320E-01 -0.11709472573E+00  0.18130744989E-01  0.88846143333E+00  0.88000000000E+00 0.  1.
        -11    1    4    4    0    0  0.35720745667E-01  0.59951035938E-01 -0.10109910372E-01  0.70516450490E-01  0.51100000000E-03 0.  1.
         11    1    4    4    0    0 -0.77926540239E-02  0.69370239691E-01 -0.13874716511E-01  0.71173903158E-01  0.51100000000E-03 0. -1.
</event>
<event>
 8    1  0.2825007E+004  0.1043930E+01  0.7957747E-01            NaN
         13   -1    0    0    0    0  0.00000000000E+00  0.00000000000E+00  0.74505805969E-08  0.10566000000E+00  0.10566000000E+00 0.  1.
     999900   -1    0    0    0    0 -0.00000000000E+00 -0.00000000000E+00 -0.74505805969E-08  0.93827000000E+00  0.93827000000E+00 0. -1.
     999902    2    1    2    0    0  0.74292433405E-02  0.11104441573E-01 -0.13878677278E-02  0.10304976340E+01  0.10304100860E+01 0.  0.
     999903    2    3    3    0    0 -0.89735287028E-01 -0.16655433136E-01  0.95899169076E-01  0.13938803125E+00  0.43618200726E-01 0.  0.
         14    1    1    2    0    0 -0.74292433405E-02 -0.11104441573E-01  0.13878677278E-02  0.13432365990E-01  0.00000000000E+00 0.  1.
     999901    1    3    3    0    0  0.97164530369E-01  0.27759874709E-01 -0.97287036804E-01  0.89110960276E+00  0.88000000000E+00 0. -1.
        -11    1    4    4    0    0 -0.25907777288E-01  0.11695693881E-01  0.43949908623E-01  0.52343650697E-01  0.51100000000E-03 0.  1.
         11    1    4    4    0    0 -0.63827509740E-01 -0.28351127017E-01  0.51949260453E-01  0.87044380550E-01  0.51100000000E-03 0. -1.
</event>
<event>
 8    1  0.2825007E+004  0.1043930E+01  0.7957747E-01            NaN
         13   -1    0    0    0    0  0.00000000000E+00  0.00000000000E+00  0.74505805969E-08  0.10566000000E+00  0.10566000000E+00 0. -1.
     999900   -1    0    0    0    0 -0.00000000000E+00 -0.00000000000E+00 -0.74505805969E-08  0.93827000000E+00  0.93827000000E+00 0. -1.
     999902    2    1    2    0    0  0.11409056176E-01 -0.38707719725E-02  0.58264474087E-02  0.10305472900E+01  0.10304603922E+01 0.  0.
     999903    2    3    3    0    0 -0.92976002576E-01 -0.73869212718E-01 -0.60178631431E-01  0.13917043777E+00  0.40567788026E-01 0.  0.
         14    1    1    2    0    0 -0.11409056176E-01  0.38707719725E-02 -0.58264474087E-02  0.13382710035E-01  0.00000000000E+00 0.  1.
     999901    1    3    3    0    0  0.10438505875E+00  0.69998440745E-01  0.66005078840E-01  0.89137685220E+00  0.88000000000E+00 0.  1.
        -11    1    4    4    0    0 -0.79144120983E-01 -0.77916226596E-01 -0.52955479010E-01  0.12304175767E+00  0.51100000000E-03 0.  1.
         11    1    4    4    0    0 -0.13831881593E-01  0.40470138782E-02 -0.72231524211E-02  0.16128680096E-01  0.51100000000E-03 0. -1.
</event>
<event>
 8    1  0.2825007E+004  0.1043930E+01  0.7957747E-01            NaN
         13   -1    0    0    0    0  0.00000000000E+00  0.00000000000E+00  0.74505805969E-08  0.10566000000E+00  0.10566000000E+00 0. -1.
     999900   -1    0    0    0    0 -0.00000000000E+00 -0.00000000000E+00 -0.74505805969E-08  0.93827000000E+00  0.93827000000E+00 0.  1.
     999902    2    1    2    0    0  0.33743569322E-02  0.12008676716E-01 -0.14444344463E-02  0.10313728908E+01  0.10312964457E+01 0.  0.
     999903    2    3    3    0    0  0.70494626662E-01 -0.13868142685E-02  0.11418202348E+00  0.14117400987E+00  0.43830935834E-01 0.  0.
         14    1    1    2    0    0 -0.33743569322E-02 -0.12008676716E-01  0.14444344463E-02  0.12557109224E-01  0.00000000000E+00 0.  1.
     999901    1    3    3    0    0 -0.67120269729E-01  0.13395490985E-01 -0.11562645793E+00  0.89019888090E+00  0.88000000000E+00 0.  1.
        -11    1    4    4    0    0  0.13507748499E-01  0.15985846601E-01  0.46560908956E-01  0.51050817083E-01  0.51100000000E-03 0. -1.
         11    1    4    4    0    0  0.56986878163E-01 -0.17372660870E-01  0.67621114524E-01  0.90123192791E-01  0.51100000000E-03 0.  1.
</event>
<event>
 8    1  0.2825007E+004  0.1043930E+01  0.7957747E-01            NaN
         13   -1    0    0    0    0  0.00000000000E+00  0.00000000000E+00  0.74505805969E-08  0.10566000000E+00  0.10566000000E+00 0.  1.
     999900   -1    0    0    0    0 -0.00000000000E+00 -0.00000000000E+00 -0.74505805969E-08  0.93827000000E+00  0.93827000000E+00 0.  1.
     999902    2    1    2    0    0 -0.13895361492E-01  0.52623770664E-02 -0.48208868908E-02  0.10283090322E+01  0.10281903769E+01 0.  0.
     999903    2    3    3    0    0  0.61058575709E-01 -0.85972459871E-01 -0.75654940720E-01  0.13760181247E+00  0.45729369281E-01 0.  0.
         14    1    1    2    0    0  0.13895361492E-01 -0.52623770664E-02  0.48208868908E-02  0.15620967761E-01  0.00000000000E+00 0.  1.
     999901    1    3    3    0    0 -0.74953937201E-01  0.91234836937E-01  0.70834053829E-01  0.89070721977E+00  0.88000000000E+00 0. -1.
        -11    1    4    4    0    0  0.19490747846E-01 -0.85411463220E-02 -0.34546390509E-01  0.40577760538E-01  0.51100000000E-03 0.  1.
         11    1    4    4    0    0  0.41567827863E-01 -0.77431313549E-01 -0.41108550211E-01  0.97024051928E-01  0.51100000000E-03 0. -1.
</event>
<event>
 8    1  0.2825007E+004  0.1043930E+01  0.7957747E-01            NaN
         13   -1    0    0    0    0  0.00000000000E+00  0.00000000000E+00  0.74505805969E-08  0.10566000000E+00  0.10566000000E+00 0. -1.
     999900   -1    0    0    0    0 -0.00000000000E+00 -0.00000000000E+00 -0.74505805969E-08  0.93827000000E+00  0.93827000000E+00 0.  1.
     999902    2    1    2    0    0 -0.55313104602E-02  0.44018032882E-03 -0.66042228504E-02  0.10353041717E+01  0.10352682373E+01 0.  0.
     999903    2    3    3    0    0  0.62730641241E-01 -0.10189550916E+00 -0.67934574224E-01  0.14463380655E+00  0.44564598994E-01 0.  0.
         14    1    1    2    0    0  0.55313104602E-02 -0.44018032882E-03  0.66042228504E-02  0.86258282840E-02  0.00000000000E+00 0. -1.
     999901    1    3    3    0    0 -0.68261951701E-01  0.10233568949E+00  0.61330351374E-01  0.89067036517E+00  0.88000000000E+00 0. -1.
        -11    1    4    4    0    0 -0.67852837387E-03 -0.34646534235E-01 -0.12431202062E-01  0.36818998370E-01  0.51100000000E-03 0.  1.
         11    1    4    4    0    0  0.63409169615E-01 -0.67248974925E-01 -0.55503372162E-01  0.10781480818E+00  0.51100000000E-03 0. -1.
</event>
<event>
 8    1  0.2825007E+004  0.1043930E+01  0.7957747E-01            NaN
         13   -1    0    0    0    0  0.00000000000E+00  0.00000000000E+00  0.74505805969E-08  0.10566000000E+00  0.10566000000E+00 0.  1.
     999900   -1    0    0    0    0 -0.00000000000E+00 -0.00000000000E+00 -0.74505805969E-08  0.93827000000E+00  0.93827000000E+00 0.  1.
     999902    2    1    2    0    0 -0.61610534196E-03  0.77477717675E-02  0.11560957800E-01  0.10299993396E+01  0.10299051298E+01 0.  0.
     999903    2    3    3    0    0  0.42837545357E-01 -0.75782035483E-01 -0.98673214668E-01  0.13813779138E+00  0.42043714405E-01 0.  0.
         14    1    1    2    0    0  0.61610534196E-03 -0.77477717675E-02 -0.11560957800E-01  0.13930660373E-01  0.00000000000E+00 0. -1.
     999901    1    3    3    0    0 -0.43453650699E-01  0.83529807251E-01  0.11023417247E+00  0.89186154825E+00  0.88000000000E+00 0. -1.
        -11    1    4    4    0    0  0.46315420340E-01 -0.55014133496E-01 -0.58216061021E-01  0.92525909492E-01  0.51100000000E-03 0.  1.
         11    1    4    4    0    0 -0.34778749829E-02 -0.20767901987E-01 -0.40457153647E-01  0.45611881890E-01  0.51100000000E-03 0. -1.
</event>
<event>
 8    1  0.2825007E+004  0.1043930E+01  0.7957747E-01            NaN
         13   -1    0    0    0    0  0.00000000000E+00  0.00000000000E+00  0.74505805969E-08  0.10566000000E+00  0.10566000000E+00 0.  1.
     999900   -1    0    0    0    0 -0.00000000000E+00 -0.00000000000E+00 -0.74505805969E-08  0.93827000000E+00  0.93827000000E+00 0. -1.
     999902    2    1    2    0    0 -0.11156247707E-01 -0.94357442719E-03  0.83735158301E-02  0.10299490142E+01  0.10298541178E+01 0.  0.
     999903    2    3    3    0    0  0.57878153441E-01  0.81486703842E-01 -0.84812534384E-01  0.13852086835E+00  0.44776125689E-01 0.  0.
         14    1    1    2    0    0  0.11156247707E-01  0.94357442719E-03 -0.83735158301E-02  0.13980985765E-01  0.00000000000E+00 0. -1.
     999901    1    3    3    0    0 -0.69034401148E-01 -0.82430278269E-01  0.93186050214E-01  0.89142814588E+00  0.88000000000E+00 0.  1.
        -11    1    4    4    0    0  0.17626048468E-01  0.59610261341E-01 -0.60097843802E-01  0.86464286225E-01  0.51100000000E-03 0.  1.
         11    1    4    4    0    0  0.40252104973E-01  0.21876442501E-01 -0.24714690582E-01  0.52056582127E-01  0.51100000000E-03 0. -1.
</event>
<event>
 8    1  0.2825007E+004  0.1043930E+01  0.7957747E-01            NaN
         13   -1    0    0    0    0  0.00000000000E+00  0.00000000000E+00  0.74505805969E-08  0.10566000000E+00  0.10566000000E+00 0.  1.
     999900   -1    0    0    0    0 -0.00000000000E+00 -0.00000000000E+00 -0.74505805969E-08  0.93827000000E+00  0.93827000000E+00 0. -1.
     999902    2    1    2    0    0  0.34782898347E-02  0.12291440078E-01  0.53766127064E-02  0.10300704919E+01  0.10299772485E+01 0.  0.
     999903    2    3    3    0    0  0.24656605675E-01  0.11085724728E+00  0.72112553753E-01  0.14180396368E+00  0.44842683102E-01 0.  0.
         14    1    1    2    0    0 -0.34782898347E-02 -0.12291440078E-01 -0.53766127064E-02  0.13859508056E-01  0.00000000000E+00 0. -1.
     999901    1    3    3    0    0 -0.21178315841E-01 -0.98565807202E-01 -0.66735941046E-01  0.88826652827E+00  0.88000000000E+00 0. -1.
        -11    1    4    4    0    0 -0.12053450461E-01  0.43977893777E-01  0.23057374490E-01  0.51100337068E-01  0.51100000000E-03 0. -1.
         11    1    4    4    0    0  0.36710056137E-01  0.66879353503E-01  0.49055179262E-01  0.90703626609E-01  0.51100000000E-03 0.  1.
</event>
<event>
 8    1  0.2825007E+004  0.1043930E+01  0.7957747E-01            NaN
         13   -1    0    0    0    0  0.00000000000E+00  0.00000000000E+00  0.74505805969E-08  0.10566000000E+00  0.10566000000E+00 0.  1.
     999900   -1    0    0    0    0 -0.00000000000E+00 -0.00000000000E+00 -0.74505805969E-08  0.93827000000E+00  0.93827000000E+00 0. -1.
     999902    2    1    2    0    0  0.34755383715E-02  0.12744895659E-01  0.35964670833E-02  0.10302388968E+01  0.10301479205E+01 0.  0.
     999903    2    3    3    0    0  0.68074957628E-01  0.11031089808E+00 -0.35381459879E-01  0.14163803666E+00  0.44797227970E-01 0.  0.
         14    1    1    2    0    0 -0.34755383715E-02 -0.12744895659E-01 -0.35964670833E-02  0.13691103236E-01  0.00000000000E+00 0. -1.
     999901    1    3    3    0    0 -0.64599419256E-01 -0.97566002418E-01  0.38977926962E-01  0.88860086011E+00  0.88000000000E+00 0. -1.
        -11    1    4    4    0    0  0.13283471773E-01  0.57815795430E-01 -0.27371284695E-01  0.65334257250E-01  0.51100000000E-03 0. -1.
         11    1    4    4    0    0  0.54791485854E-01  0.52495102647E-01 -0.80101751843E-02  0.76303779406E-01  0.51100000000E-03 0.  1.
</event>
<event>
 8    1  0.2825007E+004  0.1043930E+01  0.7957747E-01            NaN
         13   -1    0    0    0    0  0.00000000000E+00  0.00000000000E+00  0.74505805969E-08  0.10566000000E+00  0.10566000000E+00 0. -1.
     999900   -1    0    0    0    0 -0.00000000000E+00 -0.00000000000E+00 -0.74505805969E-08  0.93827000000E+00  0.93827000000E+00 0. -1.
     999902    2    1    2    0    0  0.43789944658E-02  0.11704244107E-01  0.61650887853E-02  0.10299953941E+01  0.10299011305E+01 0.  0.
     999903    2    3    3    0    0 -0.61775400126E-01 -0.43340476863E-01 -0.10746235110E+00  0.13852608987E+00  0.44121691678E-01 0.  0.
         14    1    1    2    0    0 -0.43789944658E-02 -0.11704244107E-01 -0.61650887853E-02  0.13934605929E-01  0.00000000000E+00 0.  1.
     999901    1    3    3    0    0  0.66154394592E-01  0.55044720970E-01  0.11362743989E+00  0.89146930420E+00  0.88000000000E+00 0.  1.
        -11    1    4    4    0    0 -0.53669453172E-01 -0.12687829209E-01 -0.75542189666E-01  0.93532212389E-01  0.51100000000E-03 0.  1.
         11    1    4    4    0    0 -0.81059469541E-02 -0.30652647654E-01 -0.31920161434E-01  0.44993877485E-01  0.51100000000E-03 0. -1.
</event>
<event>
 8    1  0.2825007E+004  0.1043930E+01  0.7957747E-01            NaN
         13   -1    0    0    0    0  0.00000000000E+00  0.00000000000E+00  0.74505805969E-08  0.10566000000E+00  0.10566000000E+00 0.  1.
     999900   -1    0    0    0    0 -0.00000000000E+00 -0.00000000000E+00 -0.74505805969E-08  0.93827000000E+00  0.93827000000E+00 0.  1.
     999902    2    1    2    0    0 -0.11673692849E-01  0.30851439163E-02 -0.48368814538E-02  0.10309227466E+01  0.10308406865E+01 0.  0.
     999903    2    3    3    0    0 -0.18131337501E-01  0.47465432245E-01  0.12324061747E+00  0.14052106375E+00  0.44454548769E-01 0.  0.
         14    1    1    2    0    0  0.11673692849E-01 -0.30851439163E-02  0.48368814538E-02  0.13007253358E-01  0.00000000000E+00 0.  1.
     999901    1    3    3    0    0  0.64576446515E-02 -0.44380288329E-01 -0.12807749892E+00  0.89040168289E+00  0.88000000000E+00 0.  1.
        -11    1    4    4    0    0 -0.19505550779E-01  0.32293020495E-01  0.36654387057E-01  0.52603335402E-01  0.51100000000E-03 0. -1.
         11    1    4    4    0    0  0.13742132784E-02  0.15172411750E-01  0.86586230409E-01  0.87917728348E-01  0.51100000000E-03 0.  1.
</event>
<event>
 8    1  0.2825007E+004  0.1043930E+01  0.7957747E-01            NaN
         13   -1    0    0    0    0  0.00000000000E+00  0.00000000000E+00  0.74505805969E-08  0.10566000000E+00  0.10566000000E+00 0. -1.
     999900   -1    0    0    0    0 -0.00000000000E+00 -0.00000000000E+00 -0.74505805969E-08  0.93827000000E+00  0.93827000000E+00 0. -1.
     999902    2    1    2    0    0 -0.19741199263E-01  0.30348075349E-03  0.76917100393E-02  0.10227411007E+01  0.10225215840E+01 0.  0.
     999903    2    3    3    0    0  0.76450899952E-01 -0.95486209481E-01  0.23496013727E-01  0.13219162949E+00  0.44274235652E-01 0.  0.
         14    1    1    2    0    0  0.19741199263E-01 -0.30348075349E-03 -0.76917100393E-02  0.21188899269E-01  0.00000000000E+00 0.  1.
     999901    1    3    3    0    0 -0.96192099214E-01  0.95789690235E-01 -0.15804303687E-01  0.89054947124E+00  0.88000000000E+00 0.  1.
        -11    1    4    4    0    0  0.81210286450E-01 -0.86966937468E-01  0.16399629421E-01  0.12011481093E+00  0.51100000000E-03 0.  1.
         11    1    4    4    0    0 -0.47593864980E-02 -0.85192720131E-02  0.70963843062E-02  0.12076818567E-01  0.51100000000E-03 0. -1.
</event>
<event>
 8    1  0.2825007E+004  0.1043930E+01  0.7957747E-01            NaN
         13   -1    0    0    0    0  0.00000000000E+00  0.00000000000E+00  0.74505805969E-08  0.10566000000E+00  0.10566000000E+00 0. -1.
     999900   -1    0    0    0    0 -0.00000000000E+00 -0.00000000000E+00 -0.74505805969E-08  0.93827000000E+00  0.93827000000E+00 0.  1.
     999902    2    1    2    0    0  0.45321955576E-02 -0.87383441266E-02 -0.10039310132E-01  0.10298698719E+01  0.10297738906E+01 0.  0.
     999903    2    3    3    0    0 -0.15596854212E-01  0.21363183468E-01  0.12794505852E+00  0.13838180881E+00  0.45606354174E-01 0.  0.
         14    1    1    2    0    0 -0.45321955576E-02  0.87383441266E-02  0.10039310132E-01  0.14060128114E-01  0.00000000000E+00 0. -1.
     999901    1    3    3    0    0  0.20129049770E-01 -0.30101527594E-01 -0.13798436865E+00  0.89148806307E+00  0.88000000000E+00 0.  1.
        -11    1    4    4    0    0 -0.56428231425E-02  0.10792115055E-01  0.12212290912E+00  0.12272969181E+00  0.51100000000E-03 0.  1.
         11    1    4    4    0    0 -0.99540310696E-02  0.10571068412E-01  0.58221494064E-02  0.15652117001E-01  0.51100000000E-03 0. -1.
</event>
<event>
 8    1  0.2825007E+004  0.1043930E+01  0.7957747E-01            NaN
         13   -1    0    0    0    0  0.00000000000E+00  0.00000000000E+00  0.74505805969E-08  0.10566000000E+00  0.10566000000E+00 0.  1.
     999900   -1    0    0    0    0 -0.00000000000E+00 -0.00000000000E+00 -0.74505805969E-08  0.93827000000E+00  0.93827000000E+00 0.  1.
     999902    2    1    2    0    0 -0.77597638323E-03 -0.22222509216E-02 -0.14227566232E-01  0.10295090368E+01  0.10294080302E+01 0.  0.
     999903    2    3    3    0    0  0.39634096977E-01  0.11380038375E+00 -0.53816271850E-01  0.14009265996E+00  0.46993332239E-01 0.  0.
         14    1    1    2    0    0  0.77597638323E-03  0.22222509216E-02  0.14227566232E-01  0.14420963192E-01  0.00000000000E+00 0.  1.
     999901    1    3    3    0    0 -0.40410073360E-01 -0.11602263467E+00  0.39588705618E-01  0.88941637684E+00  0.88000000000E+00 0. -1.
        -11    1    4    4    0    0  0.49968308901E-01  0.89006098887E-01 -0.46998336593E-01  0.11237447351E+00  0.51100000000E-03 0. -1.
         11    1    4    4    0    0 -0.10334211925E-01  0.24794284864E-01 -0.68179352573E-02  0.27718186452E-01  0.51100000000E-03 0.  1.
</event>
<event>
 8    1  0.2825007E+004  0.1043930E+01  0.7957747E-01            NaN
         13   -1    0    0    0    0  0.00000000000E+00  0.00000000000E+00  0.74505805969E-08  0.10566000000E+00  0.10566000000E+00 0. -1.
     999900   -1    0    0    0    0 -0.00000000000E+00 -0.00000000000E+00 -0.74505805969E-08  0.93827000000E+00  0.93827000000E+00 0. -1.
     999902    2    1    2    0    0  0.76893456909E-03  0.10801753009E-01 -0.96315863254E-02  0.10294373611E+01  0.10293353408E+01 0.  0.
     999903    2    3    3    0    0  0.11830329325E-01  0.13443386163E+00 -0.94142912826E-02  0.14072632818E+00  0.38766618619E-01 0.  0.
         14    1    1    2    0    0 -0.76893456909E-03 -0.10801753009E-01  0.96315863254E-02  0.14492638945E-01  0.00000000000E+00 0. -1.
     999901    1    3    3    0    0 -0.11061394755E-01 -0.12363210862E+00 -0.21729504280E-03  0.88871103287E+00  0.88000000000E+00 0. -1.
        -11    1    4    4    0    0  0.11638987161E-01  0.63604040286E-01  0.13932067202E-01  0.66146077589E-01  0.51100000000E-03 0. -1.
         11    1    4    4    0    0  0.19134216398E-03  0.70829821340E-01 -0.23346358484E-01  0.74580250592E-01  0.51100000000E-03 0.  1.
</event>
<event>
 8    1  0.2825007E+004  0.1043930E+01  0.7957747E-01            NaN
         13   -1    0    0    0    0  0.00000000000E+00  0.00000000000E+00  0.74505805969E-08  0.10566000000E+00  0.10566000000E+00 0. -1.
     999900   -1    0    0    0    0 -0.00000000000E+00 -0.00000000000E+00 -0.74505805969E-08  0.93827000000E+00  0.93827000000E+00 0. -1.
     999902    2    1    2    0    0 -0.13140418834E-01  0.27509991163E-03 -0.16099519850E-01  0.10231468139E+01  0.10229357076E+01 0.  0.
     999903    2    3    3    0    0 -0.32410750164E-01  0.15321792441E-01  0.11969179398E+00  0.13239599037E+00  0.43787654296E-01 0.  0.
         14    1    1    2    0    0  0.13140418834E-01 -0.27509991163E-03  0.16099519850E-01  0.20783186149E-01  0.00000000000E+00 0.  1.
     999901    1    3    3    0    0  0.19270331331E-01 -0.15046692530E-01 -0.13579131383E+00  0.89075082348E+00  0.88000000000E+00 0. -1.
        -11    1    4    4    0    0 -0.41472800172E-01  0.96270742159E-02  0.73176114661E-01  0.84662143783E-01  0.51100000000E-03 0.  1.
         11    1    4    4    0    0  0.90620500073E-02  0.56947182256E-02  0.46515679321E-01  0.47733846584E-01  0.51100000000E-03 0. -1.
</event>
<event>
 8    1  0.2825007E+004  0.1043930E+01  0.7957747E-01            NaN
         13   -1    0    0    0    0  0.00000000000E+00  0.00000000000E+00  0.74505805969E-08  0.10566000000E+00  0.10566000000E+00 0.  1.
     999900   -1    0    0    0    0 -0.00000000000E+00 -0.00000000000E+00 -0.74505805969E-08  0.93827000000E+00  0.93827000000E+00 0. -1.
     999902    2    1    2    0    0 -0.44694877479E-02 -0.37989373524E-02 -0.93898012423E-02  0.10328585677E+01  0.10327992275E+01 0.  0.
     999903    2    3    3    0    0 -0.76576550044E-01 -0.49452312940E-01  0.10125579688E+00  0.14183325520E+00  0.39426344066E-01 0.  0.
         14    1    1    2    0    0  0.44694877479E-02  0.37989373524E-02  0.93898012423E-02  0.11071432297E-01  0.00000000000E+00 0.  1.
     999901    1    3    3    0    0  0.72107062297E-01  0.45653375587E-01 -0.11064559813E+00  0.89102531250E+00  0.88000000000E+00 0. -1.
        -11    1    4    4    0    0 -0.66473372015E-01 -0.48524559308E-01  0.67068706221E-01  0.10616880200E+00  0.51100000000E-03 0. -1.
         11    1    4    4    0    0 -0.10103178030E-01 -0.92775363217E-03  0.34187090662E-01  0.35664453200E-01  0.51100000000E-03 0.  1.
</event>
<event>
 8    1  0.2825007E+004  0.1043930E+01  0.7957747E-01            NaN
         13   -1    0    0    0    0  0.00000000000E+00  0.00000000000E+00  0.74505805969E-08  0.10566000000E+00  0.10566000000E+00 0.  1.
     999900   -1    0    0    0    0 -0.00000000000E+00 -0.00000000000E+00 -0.74505805969E-08  0.93827000000E+00  0.93827000000E+00 0.  1.
     999902    2    1    2    0    0 -0.94094717456E-03 -0.56469780256E-02  0.13923419130E-01  0.10288755873E+01  0.10287654440E+01 0.  0.
     999903    2    3    3    0    0 -0.88897641773E-01 -0.97388911299E-01 -0.32595096958E-02  0.13957911506E+00  0.45654290048E-01 0.  0.
         14    1    1    2    0    0  0.94094717456E-03  0.56469780256E-02 -0.13923419130E-01  0.15054412731E-01  0.00000000000E+00 0. -1.
     999901    1    3    3    0    0  0.87956694599E-01  0.91741933274E-01  0.17182928826E-01  0.88929647221E+00  0.88000000000E+00 0.  1.
        -11    1    4    4    0    0 -0.39899344794E-01 -0.20950523132E-01  0.13926545384E-01  0.47170880019E-01  0.51100000000E-03 0.  1.
         11    1    4    4    0    0 -0.48998296979E-01 -0.76438388168E-01 -0.17186055080E-01  0.92408235038E-01  0.51100000000E-03 0. -1.
</event>
<event>
 8    1  0.2825007E+004  0.1043930E+01  0.7957747E-01            NaN
         13   -1    0    0    0    0  0.00000000000E+00  0.00000000000E+00  0.74505805969E-08  0.10566000000E+00  0.10566000000E+00 0.  1.
     999900   -1    0    0    0    0 -0.00000000000E+00 -0.00000000000E+00 -0.74505805969E-08  0.93827000000E+00  0.93827000000E+00 0. -1.
     999902    2    1    2    0    0 -0.99430839667E-02  0.73660252962E-02  0.54488705827E-02  0.10304091480E+01  0.10303204351E+01 0.  0.
     999903    2    3    3    0    0  0.55939747586E-01  0.11947319594E+00  0.16915138128E-01  0.14077998905E+00  0.46149577585E-01 0.  0.
         14    1    1    2    0    0  0.99430839667E-02 -0.73660252962E-02 -0.54488705827E-02  0.13520851972E-01  0.00000000000E+00 0. -1.
     999901    1    3    3    0    0 -0.65882831553E-01 -0.11210717065E+00 -0.11466267545E-01  0.88962915897E+00  0.88000000000E+00 0. -1.
        -11    1    4    4    0    0  0.57412422937E-04  0.45317681906E-01  0.15551327679E-01  0.47914512448E-01  0.51100000000E-03 0. -1.
         11    1    4    4    0    0  0.55882335163E-01  0.74155514037E-01  0.13638104493E-02  0.92865476607E-01  0.51100000000E-03 0.  1.
</event>
<event>
 8    1  0.2825007E+004  0.1043930E+01  0.7957747E-01            NaN
         13   -1    0    0    0    0  0.00000000000E+00  0.00000000000E+00  0.74505805969E-08  0.10566000000E+00  0.10566000000E+00 0.  1.
     999900   -1    0    0    0    0 -0.00000000000E+00 -0.00000000000E+00 -0.74505805969E-08  0.93827000000E+00  0.93827000000E+00 0.  1.
     999902    2    1    2    0    0  0.91708572769E-02  0.10398724903E-01 -0.40798071042E-02  0.10294772173E+01  0.10293757613E+01 0.  0.
     999903    2    3    3    0    0 -0.99933369093E-01 -0.80502087667E-01  0.23313782441E-01  0.13767168987E+00  0.44076040699E-01 0.  0.
         14    1    1    2    0    0 -0.91708572769E-02 -0.10398724903E-01  0.40798071042E-02  0.14452782736E-01  0.00000000000E+00 0.  1.
     999901    1    3    3    0    0  0.10910422637E+00  0.90900812570E-01 -0.27393589545E-01  0.89180552739E+00  0.88000000000E+00 0.  1.
        -11    1    4    4    0    0 -0.48777355020E-01 -0.12085800588E-01  0.87255385220E-02  0.51006794470E-01  0.51100000000E-03 0.  1.
         11    1    4    4    0    0 -0.51156014073E-01 -0.68416287079E-01  0.14588243919E-01  0.86664895403E-01  0.51100000000E-03 0. -1.
</event>
<event>
 8    1  0.2825007E+004  0.1043930E+01  0.7957747E-01            NaN
         13   -1    0    0    0    0  0.00000000000E+00  0.00000000000E+00  0.74505805969E-08  0.10566000000E+00  0.10566000000E+00 0.  1.
     999900   -1    0    0    0    0 -0.00000000000E+00 -0.00000000000E+00 -0.74505805969E-08  0.93827000000E+00  0.93827000000E+00 0. -1.
     999902    2    1    2    0    0 -0.15300778696E-02 -0.35206361523E-03 -0.13545970199E-01  0.10302933437E+01  0.10302030944E+01 0.  0.
     999903    2    3    3    0    0 -0.28883778577E-01 -0.38846925624E-01  0.12103800678E+00  0.13880979015E+00  0.47692792554E-01 0.  0.
         14    1    1    2    0    0  0.15300778696E-02  0.35206361523E-03  0.13545970199E-01  0.13636656324E-01  0.00000000000E+00 0.  1.
     999901    1    3    3    0    0  0.27353700707E-01  0.38494862009E-01 -0.13458397698E+00  0.89148355352E+00  0.88000000000E+00 0. -1.
        -11    1    4    4    0    0 -0.25802819624E-01  0.21745730147E-02  0.36060899032E-01  0.44397790804E-01  0.51100000000E-03 0. -1.
         11    1    4    4    0    0 -0.30809589532E-02 -0.41021498639E-01  0.84977107748E-01  0.94411999348E-01  0.51100000000E-03 0.  1.
</event>
<event>
 8    1  0.2825007E+004  0.1043930E+01  0.7957747E-01            NaN
         13   -1    0    0    0    0  0.00000000000E+00  0.00000000000E+00  0.74505805969E-08  0.10566000000E+00  0.10566000000E+00 0. -1.
     999900   -1    0    0    0    0 -0.00000000000E+00 -0.00000000000E+00 -0.74505805969E-08  0.93827000000E+00  0.93827000000E+00 0. -1.
     999902    2    1    2    0    0 -0.12930052633E-01 -0.15344571155E-02  0.91086708534E-04  0.10309088973E+01  0.10308266611E+01 0.  0.
     999903    2    3    3    0    0 -0.11309361733E+00  0.59104617361E-01 -0.44522964173E-01  0.14203306196E+00  0.43675785920E-01 0.  0.
         14    1    1    2    0    0  0.12930052633E-01  0.15344571155E-02 -0.91086708534E-04  0.13021102738E-01  0.00000000000E+00 0.  1.
     999901    1    3    3    0    0  0.10016356470E+00 -0.60639074477E-01  0.44614050881E-01  0.88887583530E+00  0.88000000000E+00 0. -1.
        -11    1    4    4    0    0 -0.74340627020E-01  0.17776937870E-01 -0.14111457331E-01  0.77729934354E-01  0.51100000000E-03 0. -1.
         11    1    4    4    0    0 -0.38752990315E-01  0.41327679491E-01 -0.30411506842E-01  0.64303127606E-01  0.51100000000E-03 0.  1.
</event>
<event>
 8    1  0.2825007E+004  0.1043930E+01  0.7957747E-01            NaN
         13   -1    0    0    0    0  0.00000000000E+00  0.00000000000E+00  0.74505805969E-08  0.10566000000E+00  0.10566000000E+00 0.  1.
     999900   -1    0    0    0    0 -0.00000000000E+00 -0.00000000000E+00 -0.74505805969E-08  0.93827000000E+00  0.93827000000E+00 0. -1.
     999902    2    1    2    0    0 -0.52420494676E-02  0.12454855421E-01 -0.65838425567E-03  0.10304009211E+01  0.10303120994E+01 0.  0.
     999903    2    3    3    0    0 -0.74866701664E-01  0.10732787098E+00  0.32356610834E-01  0.14195369634E+00  0.44492771705E-01 0.  0.
         14    1    1    2    0    0  0.52420494676E-02 -0.12454855421E-01  0.65838425567E-03  0.13529078905E-01  0.00000000000E+00 0. -1.
     999901    1    3    3    0    0  0.69624652196E-01 -0.94873015554E-01 -0.33014995090E-01  0.88844722475E+00  0.88000000000E+00 0.  1.
        -11    1    4    4    0    0 -0.50548274599E-02  0.12888779902E-01 -0.10022278122E-01  0.17099096695E-01  0.51100000000E-03 0. -1.
         11    1    4    4    0    0 -0.69811874204E-01  0.94439091073E-01  0.42378888956E-01  0.12485459965E+00  0.51100000000E-03 0.  1.
</event>
<event>
 8    1  0.2825007E+004  0.1043930E+01  0.7957747E-01            NaN
         13   -1    0    0    0    0  0.00000000000E+00  0.00000000000E+00  0.74505805969E-08  0.10566000000E+00  0.10566000000E+00 0.  1.
     999900   -1    0    0    0    0 -0.00000000000E+00 -0.00000000000E+00 -0.74505805969E-08  0.93827000000E+00  0.93827000000E+00 0.  1.
     999902    2    1    2    0    0  0.61781693813E-04  0.10177439520E-01  0.10214288375E-01  0.10295107150E+01  0.10294097321E+01 0.  0.
     999903    2    3    3    0    0 -0.44656232528E-01  0.11420547559E+00  0.56699604485E-01  0.14103875841E+00  0.40497116767E-01 0.  0.
         14    1    1    2    0    0 -0.61781693813E-04 -0.10177439520E-01 -0.10214288375E-01  0.14419284974E-01  0.00000000000E+00 0. -1.
     999901    1    3    3    0    0  0.44718014222E-01 -0.10402803607E+00 -0.46485316110E-01  0.88847195662E+00  0.88000000000E+00 0.  1.
        -11    1    4    4    0    0 -0.21217287371E-01  0.91971490241E-01  0.29755323233E-01  0.98967513266E-01  0.51100000000E-03 0. -1.
         11    1    4    4    0    0 -0.23438945158E-01  0.22233985347E-01  0.26944281252E-01  0.42071245141E-01  0.51100000000E-03 0.  1.
</event>
<event>
 8    1  0.2825007E+004  0.1043930E+01  0.7957747E-01            NaN
         13   -1    0    0    0    0  0.00000000000E+00  0.00000000000E+00  0.74505805969E-08  0.10566000000E+00  0.10566000000E+00 0. -1.
     999900   -1    0    0    0    0 -0.00000000000E+00 -0.00000000000E+00 -0.74505805969E-08  0.93827000000E+00  0.93827000000E+00 0. -1.
     999902    2    1    2    0    0 -0.10942092491E-01  0.20404018880E-02  0.11208333185E-01  0.10281338182E+01  0.10280124652E+01 0.  0.
     999903    2    3    3    0    0  0.92603137627E-01  0.88971169981E-01  0.19466369733E-01  0.13777053933E+00  0.45940959615E-01 0.  0.
         14    1    1    2    0    0  0.10942092491E-01 -0.20404018880E-02 -0.11208333185E-01  0.15796181841E-01  0.00000000000E+00 0.  1.
     999901    1    3    3    0    0 -0.10354523012E+00 -0.86930768093E-01 -0.82580365473E-02  0.89036327883E+00  0.88000000000E+00 0. -1.
        -11    1    4    4    0    0  0.56499371260E-01  0.22953255400E-01  0.54475419078E-02  0.61228814459E-01  0.51100000000E-03 0.  1.
         11    1    4    4    0    0  0.36103766367E-01  0.66017914581E-01  0.14018827825E-01  0.76541724870E-01  0.51100000000E-03 0. -1.
</event>
<event>
 8    1  0.2825007E+004  0.1043930E+01  0.7957747E-01            NaN
         13   -1    0    0    0    0  0.00000000000E+00  0.00000000000E+00  0.74505805969E-08  0.10566000000E+00  0.10566000000E+00 0.  1.
     999900   -1    0    0    0    0 -0.00000000000E+00 -0.00000000000E+00 -0.74505805969E-08  0.93827000000E+00  0.93827000000E+00 0. -1.
     999902    2    1    2    0    0  0.99680299420E-02 -0.61356003687E-02  0.66794025681E-02  0.10304532930E+01  0.10303651622E+01 0.  0.
     999903    2    3    3    0    0  0.39772680038E-02 -0.11069118174E+00 -0.74118995290E-01  0.14056782851E+00  0.44691526856E-01 0.  0.
         14    1    1    2    0    0 -0.99680299420E-02  0.61356003687E-02 -0.66794025681E-02  0.13476706997E-01  0.00000000000E+00 0.  1.
     999901    1    3    3    0    0  0.59907619382E-02  0.10455558137E+00  0.80798397858E-01  0.88988546450E+00  0.88000000000E+00 0.  1.
        -11    1    4    4    0    0  0.19563268612E-01 -0.88204473348E-01 -0.66432072491E-01  0.11214380043E+00  0.51100000000E-03 0. -1.
         11    1    4    4    0    0 -0.15586000609E-01 -0.22486708392E-01 -0.76869227983E-02  0.28424028082E-01  0.51100000000E-03 0.  1.
</event>
<event>
 8    1  0.2825007E+004  0.1043930E+01  0.7957747E-01            NaN
         13   -1    0    0    0    0  0.00000000000E+00  0.00000000000E+00  0.74505805969E-08  0.10566000000E+00  0.10566000000E+00 0. -1.
     999900   -1    0    0    0    0 -0.00000000000E+00 -0.00000000000E+00 -0.74505805969E-08  0.93827000000E+00  0.93827000000E+00 0.  1.
     999902    2    1    2    0    0  0.70173168097E-02  0.98850579233E-02 -0.60325579541E-02  0.10303893626E+01  0.10303003881E+01 0.  0.
     999903    2    3    3    0    0 -0.25562707000E-01  0.19288052267E-01 -0.12973402107E+00  0.14109080407E+00  0.45279331054E-01 0.  0.
         14    1    1    2    0    0 -0.70173168097E-02 -0.98850579233E-02  0.60325579541E-02  0.13540637386E-01  0.00000000000E+00 0. -1.
     999901    1    3    3    0    0  0.32580023809E-01 -0.94029943436E-02  0.12370146311E+00  0.88929855855E+00  0.88000000000E+00 0. -1.
        -11    1    4    4    0    0 -0.82742159939E-02  0.13167192377E-02 -0.10704209178E+00  0.10737069867E+00  0.51100000000E-03 0.  1.
         11    1    4    4    0    0 -0.17288491006E-01  0.17971333029E-01 -0.22691929291E-01  0.33720105398E-01  0.51100000000E-03 0. -1.
</event>
<event>
 8    1  0.2825007E+004  0.1043930E+01  0.7957747E-01            NaN
         13   -1    0    0    0    0  0.00000000000E+00  0.00000000000E+00  0.74505805969E-08  0.10566000000E+00  0.10566000000E+00 0. -1.
     999900   -1    0    0    0    0 -0.00000000000E+00 -0.00000000000E+00 -0.74505805969E-08  0.93827000000E+00  0.93827000000E+00 0.  1.
     999902    2    1    2    0    0  0.22185106370E-02  0.44539285753E-02  0.13133977563E-01  0.10298850495E+01  0.10297892767E+01 0.  0.
     999903    2    3    3    0    0  0.12814093813E+00  0.35418608876E-01 -0.11295419829E-02  0.14026787496E+00  0.44712671588E-01 0.  0.
         14    1    1    2    0    0 -0.22185106370E-02 -0.44539285753E-02 -0.13133977563E-01  0.14044950545E-01  0.00000000000E+00 0.  1.
     999901    1    3    3    0    0 -0.12592242749E+00 -0.30964680301E-01  0.14263519546E-01  0.88961717450E+00  0.88000000000E+00 0. -1.
        -11    1    4    4    0    0  0.53941094347E-01 -0.75660780988E-02 -0.20485229727E-02  0.54510042785E-01  0.51100000000E-03 0.  1.
         11    1    4    4    0    0  0.74199843782E-01  0.42984686975E-01  0.91898098982E-03  0.85757832171E-01  0.51100000000E-03 0. -1.
</event>
<event>
 8    1  0.2825007E+004  0.1043930E+01  0.7957747E-01            NaN
         13   -1    0    0    0    0  0.00000000000E+00  0.00000000000E+00  0.74505805969E-08  0.10566000000E+00  0.10566000000E+00 0.  1.
     999900   -1    0    0    0    0 -0.00000000000E+00 -0.00000000000E+00 -0.74505805969E-08  0.93827000000E+00  0.93827000000E+00 0.  1.
     999902    2    1    2    0    0  0.16428378121E-02 -0.12260161730E-01 -0.47763012754E-02  0.10306701533E+01  0.10305848540E+01 0.  0.
     999903    2    3    3    0    0  0.11470768995E+00  0.45676282815E-01  0.54607869055E-01  0.13956591015E+00  0.35389927494E-01 0.  0.
         14    1    1    2    0    0 -0.16428378121E-02  0.12260161730E-01  0.47763012754E-02  0.13259846741E-01  0.00000000000E+00 0.  1.
     999901    1    3    3    0    0 -0.11306485214E+00 -0.57936444545E-01 -0.59384170331E-01  0.89110424311E+00  0.88000000000E+00 0.  1.
        -11    1    4    4    0    0  0.86682457498E-01  0.19681480233E-01  0.28790952213E-01  0.93436551479E-01  0.51100000000E-03 0. -1.
         11    1    4    4    0    0  0.28025232454E-01  0.25994802582E-01  0.25816916842E-01  0.46129358673E-01  0.51100000000E-03 0.  1.
</event>
<event>
 8    1  0.2825007E+004  0.1043930E+01  0.7957747E-01            NaN
         13   -1    0    0    0    0  0.00000000000E+00  0.00000000000E+00  0.74505805969E-08  0.10566000000E+00  0.10566000000E+00 0. -1.
     999900   -1    0    0    0    0 -0.00000000000E+00 -0.00000000000E+00 -0.74505805969E-08  0.93827000000E+00  0.93827000000E+00 0. -1.
     999902    2    1    2    0    0  0.94279515010E-02 -0.42203339406E-02  0.14077265813E-01  0.10264695618E+01  0.10263210484E+01 0.  0.
     999903    2    3    3    0    0 -0.32442952357E-01  0.34212785128E-01  0.12171759540E+00  0.13809086005E+00  0.45064983922E-01 0.  0.
         14    1    1    2    0    0 -0.94279515010E-02  0.42203339406E-02 -0.14077265813E-01  0.17460438163E-01  0.00000000000E+00 0.  1.
     999901    1    3    3    0    0  0.41870903858E-01 -0.38433119069E-01 -0.10764032959E+00  0.88837870178E+00  0.88000000000E+00 0. -1.
        -11    1    4    4    0    0 -0.11228724062E-01 -0.50673708223E-02  0.53270503051E-02  0.13431346808E-01  0.51100000000E-03 0. -1.
         11    1    4    4    0    0 -0.21214228294E-01  0.39280155950E-01  0.11639054510E+00  0.12465951324E+00  0.51100000000E-03 0.  1.
</event>
<event>
 8    1  0.2825007E+004  0.1043930E+01  0.7957747E-01            NaN
         13   -1    0    0    0    0  0.00000000000E+00  0.00000000000E+00  0.74505805969E-08  0.10566000000E+00  0.10566000000E+00 0.  1.
     999900   -1    0    0    0    0 -0.00000000000E+00 -0.00000000000E+00 -0.74505805969E-08  0.93827000000E+00  0.93827000000E+00 0. -1.
     999902    2    1    2    0    0  0.10367972645E-01 -0.27914354595E-02  0.63335601621E-02  0.10314640081E+01  0.10313886751E+01 0.  0.
     999903    2    3    3    0    0 -0.97136818156E-01  0.67744909961E-01  0.61602696346E-01  0.14040433927E+00  0.43514963198E-01 0.  0.
         14    1    1    2    0    0 -0.10367972645E-01  0.27914354595E-02 -0.63335601621E-02  0.12465991859E-01  0.00000000000E+00 0. -1.
     999901    1    3    3    0    0  0.10750479080E+00 -0.70536345421E-01 -0.55269136184E-01  0.89105966887E+00  0.88000000000E+00 0. -1.
        -11    1    4    4    0    0 -0.75983674336E-01  0.29656462216E-01  0.31466750994E-01  0.87426781114E-01  0.51100000000E-03 0. -1.
         11    1    4    4    0    0 -0.21153143820E-01  0.38088447745E-01  0.30135945353E-01  0.52977558158E-01  0.51100000000E-03 0.  1.
</event>
<event>
 8    1  0.2825007E+004  0.1043930E+01  0.7957747E-01            NaN
         13   -1    0    0    0    0  0.00000000000E+00  0.00000000000E+00  0.74505805969E-08  0.10566000000E+00  0.10566000000E+00 0.  1.
     999900   -1    0    0    0    0 -0.00000000000E+00 -0.00000000000E+00 -0.74505805969E-08  0.93827000000E+00  0.93827000000E+00 0. -1.
     999902    2    1    2    0    0  0.11254524371E-01  0.82358695305E-02 -0.11452922844E-02  0.10299369460E+01  0.10298418846E+01 0.  0.
     999903    2    3    3    0    0  0.12999566702E+00  0.21834877651E-01  0.25673398921E-01  0.14145304959E+00  0.44432043630E-01 0.  0.
         14    1    1    2    0    0 -0.11254524371E-01 -0.82358695305E-02  0.11452922844E-02  0.13993053997E-01  0.00000000000E+00 0.  1.
     999901    1    3    3    0    0 -0.11874114265E+00 -0.13599008120E-01 -0.26818691205E-01  0.88848389641E+00  0.88000000000E+00 0. -1.
        -11    1    4    4    0    0  0.68131425445E-01  0.10723133643E-01  0.35923371260E-01  0.77766486690E-01  0.51100000000E-03 0.  1.
         11    1    4    4    0    0  0.61864241576E-01  0.11111744007E-01 -0.10249972340E-01  0.63686562905E-01  0.51100000000E-03 0. -1.
</event>
<event>
 8    1  0.2825007E+004  0.1043930E+01  0.7957747E-01            NaN
         13   -1    0    0    0    0  0.00000000000E+00  0.00000000000E+00  0.74505805969E-08  0.10566000000E+00  0.10566000000E+00 0.  1.
     999900   -1    0    0    0    0 -0.00000000000E+00 -0.00000000000E+00 -0.74505805969E-08  0.93827000000E+00  0.93827000000E+00 0. -1.
     999902    2    1    2    0    0 -0.66300619789E-02 -0.61808294755E-02 -0.99789105697E-02  0.10304489381E+01  0.10303607499E+01 0.  0.
     999903    2    3    3    0    0 -0.10129760851E+00 -0.78223854326E-01 -0.42348667572E-01  0.14185457449E+00  0.44148995289E-01 0.  0.
         14    1    1    2    0    0  0.66300619789E-02  0.61808294755E-02  0.99789105697E-02  0.13481061939E-01  0.00000000000E+00 0. -1.
     999901    1    3    3    0    0  0.94667546527E-01  0.72043024850E-01  0.32369757003E-01  0.88859436357E+00  0.88000000000E+00 0.  1.
        -11    1    4    4    0    0 -0.96978480081E-03 -0.13283248063E-01  0.36121901492E-02  0.13809207085E-01  0.51100000000E-03 0.  1.
         11    1    4    4    0    0 -0.10032782371E+00 -0.64940606263E-01 -0.45960857722E-01  0.12804536741E+00  0.51100000000E-03 0. -1.
</event>
<event>
 8    1  0.2825007E+004  0.1043930E+01  0.7957747E-01            NaN
         13   -1    0    0    0    0  0.00000000000E+00  0.00000000000E+00  0.74505805969E-08  0.10566000000E+00  0.10566000000E+00 0.  1.
     999900   -1    0    0    0    0 -0.00000000000E+00 -0.00000000000E+00 -0.74505805969E-08  0.93827000000E+00  0.93827000000E+00 0.  1.
     999902    2    1    2    0    0  0.11326563369E-01 -0.45242561084E-02  0.55135187015E-02  0.10305449778E+01  0.10304580498E+01 0.  0.
     999903    2    3    3    0    0 -0.48018291265E-01 -0.55967817354E-01  0.11174379253E+00  0.14068368363E+00  0.43209614633E-01 0.  0.
         14    1    1    2    0    0 -0.11326563369E-01  0.45242561084E-02 -0.55135187015E-02  0.13385022210E-01  0.00000000000E+00 0.  1.
     999901    1    3    3    0    0  0.59344854634E-01  0.51443561245E-01 -0.10623027382E+00  0.88986129416E+00  0.88000000000E+00 0.  1.
        -11    1    4    4    0    0 -0.16525131882E-01 -0.36600906583E-01  0.88026975873E-01  0.96755960792E-01  0.51100000000E-03 0. -1.
         11    1    4    4    0    0 -0.31493159383E-01 -0.19366910770E-01  0.23716816653E-01  0.43927722840E-01  0.51100000000E-03 0.  1.
</event>
<event>
 8    1  0.2825007E+004  0.1043930E+01  0.7957747E-01            NaN
         13   -1    0    0    0    0  0.00000000000E+00  0.00000000000E+00  0.74505805969E-08  0.10566000000E+00  0.10566000000E+00 0. -1.
     999900   -1    0    0    0    0 -0.00000000000E+00 -0.00000000000E+00 -0.74505805969E-08  0.93827000000E+00  0.93827000000E+00 0.  1.
     999902    2    1    2    0    0  0.62951843062E-02  0.40632454989E-02 -0.12104336288E-01  0.10296943312E+01  0.10295959214E+01 0.  0.
     999903    2    3    3    0    0 -0.72629319585E-02  0.98949174993E-01  0.85628997097E-01  0.13911083337E+00  0.46645572199E-01 0.  0.
         14    1    1    2    0    0 -0.62951843062E-02 -0.40632454989E-02  0.12104336288E-01  0.14235668808E-01  0.00000000000E+00 0.  1.
     999901    1    3    3    0    0  0.13558116265E-01 -0.94885929494E-01 -0.97733333385E-01  0.89058349782E+00  0.88000000000E+00 0.  1.
        -11    1    4    4    0    0  0.15729286600E-01  0.48251895019E-01  0.57642684019E-01  0.76802317490E-01  0.51100000000E-03 0.  1.
         11    1    4    4    0    0 -0.22992218558E-01  0.50697279974E-01  0.27986313078E-01  0.62308515884E-01  0.51100000000E-03 0. -1.
</event>
<event>
 8    1  0.2825007E+004  0.1043930E+01  0.7957747E-01            NaN
         13   -1    0    0    0    0  0.00000000000E+00  0.00000000000E+00  0.74505805969E-08  0.10566000000E+00  0.10566000000E+00 0. -1.
     999900   -1    0    0    0    0 -0.00000000000E+00 -0.00000000000E+00 -0.74505805969E-08  0.93827000000E+00  0.93827000000E+00 0.  1.
     999902    2    1    2    0    0  0.29763423140E-02  0.16610394668E-01  0.35934677675E-02  0.10266766863E+01  0.10265317049E+01 0.  0.
     999903    2    3    3    0    0 -0.41290827824E-01  0.81217388686E-01 -0.91442480906E-01  0.13810171611E+00  0.49083194585E-01 0.  0.
         14    1    1    2    0    0 -0.29763423140E-02 -0.16610394668E-01 -0.35934677675E-02  0.17253313745E-01  0.00000000000E+00 0. -1.
     999901    1    3    3    0    0  0.44267170138E-01 -0.64606994019E-01  0.95035948674E-01  0.88857497015E+00  0.88000000000E+00 0. -1.
        -11    1    4    4    0    0 -0.43323310646E-01  0.37134952324E-01 -0.65657242707E-01  0.86988784164E-01  0.51100000000E-03 0.  1.
         11    1    4    4    0    0  0.20324828220E-02  0.44082436363E-01 -0.25785238199E-01  0.51112931946E-01  0.51100000000E-03 0. -1.
</event>
<event>
 8    1  0.2825007E+004  0.1043930E+01  0.7957747E-01            NaN
         13   -1    0    0    0    0  0.00000000000E+00  0.00000000000E+00  0.74505805969E-08  0.10566000000E+00  0.10566000000E+00 0. -1.
     999900   -1    0    0    0    0 -0.00000000000E+00 -0.00000000000E+00 -0.74505805969E-08  0.93827000000E+00  0.93827000000E+00 0.  1.
     999902    2    1    2    0    0 -0.13387601342E-01  0.37591177139E-02  0.49782926492E-03  0.10300157386E+01  0.10299217520E+01 0.  0.
     999903    2    3    3    0    0 -0.46258764258E-01  0.11811321520E+00 -0.40999586147E-01  0.14103913125E+00  0.46048513601E-01 0.  0.
         14    1    1    2    0    0  0.13387601342E-01 -0.37591177139E-02 -0.49782926492E-03  0.13914261377E-01  0.00000000000E+00 0. -1.
     999901    1    3    3    0    0  0.32871162915E-01 -0.11435409749E+00  0.41497415412E-01  0.88897660737E+00  0.88000000000E+00 0. -1.
        -11    1    4    4    0    0 -0.10345388127E-01  0.79277993287E-01 -0.36682164450E-01  0.87965161199E-01  0.51100000000E-03 0.  1.
         11    1    4    4    0    0 -0.35913376131E-01  0.38835221915E-01 -0.43174216963E-02  0.53073970055E-01  0.51100000000E-03 0. -1.
</event>
<event>
 8    1  0.2825007E+004  0.1043930E+01  0.7957747E-01            NaN
         13   -1    0    0    0    0  0.00000000000E+00  0.00000000000E+00  0.74505805969E-08  0.10566000000E+00  0.10566000000E+00 0. -1.
     999900   -1    0    0    0    0 -0.00000000000E+00 -0.00000000000E+00 -0.74505805969E-08  0.93827000000E+00  0.93827000000E+00 0. -1.
     999902    2    1    2    0    0  0.10511678079E-01 -0.14660093174E-02  0.85974002618E-02  0.10302713086E+01  0.10301807654E+01 0.  0.
     999903    2    3    3    0    0 -0.11019895029E+00  0.71900834470E-01 -0.96491985612E-03  0.13895476128E+00  0.44653734110E-01 0.  0.
         14    1    1    2    0    0 -0.10511678079E-01  0.14660093174E-02 -0.85974002618E-02  0.13658691395E-01  0.00000000000E+00 0.  1.
     999901    1    3    3    0    0  0.12071062837E+00 -0.73366843788E-01  0.95623201180E-02  0.89131654732E+00  0.88000000000E+00 0.  1.
        -11    1    4    4    0    0 -0.83558441462E-01  0.51566863786E-01 -0.20289618794E-01  0.10026507035E+00  0.51100000000E-03 0. -1.
         11    1    4    4    0    0 -0.26640508827E-01  0.20333970684E-01  0.19324698938E-01  0.38689690932E-01  0.51100000000E-03 0.  1.
</event>
<event>
 8    1  0.2825007E+004  0.1043930E+01  0.7957747E-01            NaN
         13   -1    0    0    0    0  0.00000000000E+00  0.00000000000E+00  0.74505805969E-08  0.10566000000E+00  0.10566000000E+00 0.  1.
     999900   -1    0    0    0    0 -0.00000000000E+00 -0.00000000000E+00 -0.74505805969E-08  0.93827000000E+00  0.93827000000E+00 0. -1.
     999902    2    1    2    0    0 -0.67832605683E-02  0.10471735601E-01 -0.17037171582E-02  0.10313374418E+01  0.10312605618E+01 0.  0.
     999903    2    3    3    0    0  0.35908250479E-01  0.68681989636E-01 -0.10965782128E+00  0.14180661747E+00  0.45581365026E-01 0.  0.
         14    1    1    2    0    0  0.67832605683E-02 -0.10471735601E-01  0.17037171582E-02  0.12592558222E-01  0.00000000000E+00 0.  1.
     999901    1    3    3    0    0 -0.42691511048E-01 -0.58210254036E-01  0.10795410413E+00  0.88953082430E+00  0.88000000000E+00 0.  1.
        -11    1    4    4    0    0  0.23106140474E-01  0.33433518823E-01 -0.91534559226E-01  0.10015253647E+00  0.51100000000E-03 0. -1.
         11    1    4    4    0    0  0.12802110006E-01  0.35248470813E-01 -0.18123262058E-01  0.41654080999E-01  0.51100000000E-03 0.  1.
</event>
<event>
 8    1  0.2825007E+004  0.1043930E+01  0.7957747E-01            NaN
         13   -1    0    0    0    0  0.00000000000E+00  0.00000000000E+00  0.74505805969E-08  0.10566000000E+00  0.10566000000E+00 0.  1.
     999900   -1    0    0    0    0 -0.00000000000E+00 -0.00000000000E+00 -0.74505805969E-08  0.93827000000E+00  0.93827000000E+00 0. -1.
     999902    2    1    2    0    0 -0.12103458613E-01 -0.42117519696E-02  0.60198171652E-02  0.10297712301E+01  0.10296738880E+01 0.  0.
     999903    2    3    3    0    0 -0.10161259299E+00 -0.11679829578E-01  0.86686630749E-01  0.14152870013E+00  0.45323984119E-01 0.  0.
         14    1    1    2    0    0  0.12103458613E-01  0.42117519696E-02 -0.60198171652E-02  0.14158769853E-01  0.00000000000E+00 0. -1.
     999901    1    3    3    0    0  0.89509134376E-01  0.74680776082E-02 -0.80666813584E-01  0.88824253002E+00  0.88000000000E+00 0.  1.
        -11    1    4    4    0    0 -0.33646670651E-01  0.16269238158E-01  0.20512108029E-01  0.42635598423E-01  0.51100000000E-03 0. -1.
         11    1    4    4    0    0 -0.67965922338E-01 -0.27949067736E-01  0.66174522720E-01  0.98893101705E-01  0.51100000000E-03 0.  1.
</event>
<event>
 8    1  0.2825007E+004  0.1043930E+01  0.7957747E-01            NaN
         13   -1    0    0    0    0  0.00000000000E+00  0.00000000000E+00  0.74505805969E-08  0.10566000000E+00  0.10566000000E+00 0.  1.
     999900   -1    0    0    0    0 -0.00000000000E+00 -0.00000000000E+00 -0.74505805969E-08  0.93827000000E+00  0.93827000000E+00 0.  1.
     999902    2    1    2    0    0  0.50819304308E-02  0.47210022471E-02 -0.12426195204E-01  0.10296989000E+01  0.10296005539E+01 0.  0.
     999903    2    3    3    0    0 -0.11783703035E+00  0.58980669817E-01 -0.80631089360E-02  0.13948981281E+00  0.45034531398E-01 0.  0.
         14    1    1    2    0    0 -0.50819304308E-02 -0.47210022471E-02  0.12426195204E-01  0.14231099971E-01  0.00000000000E+00 0.  1.
     999901    1    3    3    0    0  0.12291896078E+00 -0.54259667570E-01 -0.43630862682E-02  0.89020908722E+00  0.88000000000E+00 0. -1.
        -11    1    4    4    0    0 -0.70172940091E-01  0.43648275959E-01  0.15610778504E-01  0.84103335497E-01  0.51100000000E-03 0.  1.
         11    1    4    4    0    0 -0.47664090260E-01  0.15332393858E-01 -0.23673887440E-01  0.55386477314E-01  0.51100000000E-03 0. -1.
</event>
<event>
 8    1  0.2825007E+004  0.1043930E+01  0.7957747E-01            NaN
         13   -1    0    0    0    0  0.00000000000E+00  0.00000000000E+00  0.74505805969E-08  0.10566000000E+00  0.10566000000E+00 0.  1.
     999900   -1    0    0    0    0 -0.00000000000E+00 -0.00000000000E+00 -0.74505805969E-08  0.93827000000E+00  0.93827000000E+00 0. -1.
     999902    2    1    2    0    0  0.43804023524E-02 -0.36036484821E-02  0.85289756518E-02  0.10336870691E+01  0.10336363187E+01 0.  0.
     999903    2    3    3    0    0 -0.14350166638E-01  0.31260936570E-01 -0.13023457669E+00  0.14193503130E+00  0.44736279546E-01 0.  0.
         14    1    1    2    0    0 -0.43804023524E-02  0.36036484821E-02 -0.85289756518E-02  0.10242930871E-01  0.00000000000E+00 0. -1.
     999901    1    3    3    0    0  0.18730568990E-01 -0.34864585053E-01  0.13876355234E+00  0.89175203782E+00  0.88000000000E+00 0.  1.
        -11    1    4    4    0    0 -0.56461723391E-02 -0.11005502960E-01 -0.40720314551E-01  0.42560609672E-01  0.51100000000E-03 0. -1.
         11    1    4    4    0    0 -0.87039942987E-02  0.42266439530E-01 -0.89514262140E-01  0.99374421633E-01  0.51100000000E-03 0.  1.
</event>
<event>
 8    1  0.2825007E+004  0.1043930E+01  0.7957747E-01            NaN
         13   -1    0    0    0    0  0.00000000000E+00  0.00000000000E+00  0.74505805969E-08  0.10566000000E+00  0.10566000000E+00 0.  1.
     999900   -1    0    0    0    0 -0.00000000000E+00 -0.00000000000E+00 -0.74505805969E-08  0.93827000000E+00  0.93827000000E+00 0.  1.
     999902    2    1    2    0    0  0.15970987762E-02 -0.40682243043E-02  0.13272245074E-01  0.10299566803E+01  0.10298618886E+01 0.  0.
     999903    2    3    3    0    0  0.70852185333E-01  0.10525410619E+00 -0.36052861468E-01  0.13912526805E+00  0.44244461272E-01 0.  0.
         14    1    1    2    0    0 -0.15970987762E-02  0.40682243043E-02 -0.13272245074E-01  0.13973319677E-01  0.00000000000E+00 0. -1.
     999901    1    3    3    0    0 -0.69255086557E-01 -0.10932233049E+00  0.49325106542E-01  0.89083141227E+00  0.88000000000E+00 0. -1.
        -11    1    4    4    0    0  0.43528469819E-01  0.53989594056E-01  0.25077814156E-02  0.69398516121E-01  0.51100000000E-03 0. -1.
         11    1    4    4    0    0  0.27323715514E-01  0.51264512134E-01 -0.38560642883E-01  0.69726751928E-01  0.51100000000E-03 0.  1.
</event>
<event>
 8    1  0.2825007E+004  0.1043930E+01  0.7957747E-01            NaN
         13   -1    0    0    0    0  0.00000000000E+00  0.00000000000E+00  0.74505805969E-08  0.10566000000E+00  0.10566000000E+00 0.  1.
     999900   -1    0    0    0    0 -0.00000000000E+00 -0.00000000000E+00 -0.74505805969E-08  0.93827000000E+00  0.93827000000E+00 0. -1.
     999902    2    1    2    0    0 -0.73067442427E-02 -0.58673695315E-03 -0.11707802579E-01  0.10301167667E+01  0.10300241491E+01 0.  0.
     999903    2    3    3    0    0  0.54514275841E-01  0.11836836965E+00  0.20736215380E-01  0.13937282475E+00  0.44854391600E-01 0.  0.
         14    1    1    2    0    0  0.73067442427E-02  0.58673695315E-03  0.11707802579E-01  0.13813233253E-01  0.00000000000E+00 0.  1.
     999901    1    3    3    0    0 -0.61821020083E-01 -0.11895510660E+00 -0.32444017959E-01  0.89074394200E+00  0.88000000000E+00 0. -1.
        -11    1    4    4    0    0 -0.64787132938E-02  0.20985334809E-01  0.94397464156E-02  0.23910833034E-01  0.51100000000E-03 0.  1.
         11    1    4    4    0    0  0.60992989134E-01  0.97383034839E-01  0.11296468965E-01  0.11546199171E+00  0.51100000000E-03 0. -1.
</event>
<event>
 8    1  0.2825007E+004  0.1043930E+01  0.7957747E-01            NaN
         13   -1    0    0    0    0  0.00000000000E+00  0.00000000000E+00  0.74505805969E-08  0.10566000000E+00  0.10566000000E+00 0. -1.
     999900   -1    0    0    0    0 -0.00000000000E+00 -0.00000000000E+00 -0.74505805969E-08  0.93827000000E+00  0.93827000000E+00 0.  1.
     999902    2    1    2    0    0  0.12328295802E-01 -0.21715159862E-02 -0.16340904443E-01  0.10233453573E+01  0.10231383057E+01 0.  0.
     999903    2    3    3    0    0 -0.10768863156E+00 -0.43622652379E-01 -0.48766253285E-01  0.13364110144E+00  0.44519876083E-01 0.  0.
         14    1    1    2    0    0 -0.12328295802E-01  0.21715159862E-02  0.16340904443E-01  0.20584642748E-01  0.00000000000E+00 0. -1.
     999901    1    3    3    0    0  0.12001692736E+00  0.41451136393E-01  0.32425348842E-01  0.88970425581E+00  0.88000000000E+00 0.  1.
        -11    1    4    4    0    0 -0.62966783589E-02 -0.78858293708E-02 -0.19912786334E-01  0.22329680781E-01  0.51100000000E-03 0.  1.
         11    1    4    4    0    0 -0.10139195320E+00 -0.35736823008E-01 -0.28853466951E-01  0.11131142066E+00  0.51100000000E-03 0. -1.
</event>
<event>
 8    1  0.2825007E+004  0.1043930E+01  0.7957747E-01            NaN
         13   -1    0    0    0    0  0.00000000000E+00  0.00000000000E+00  0.74505805969E-08  0.10566000000E+00  0.10566000000E+00 0. -1.
     999900   -1    0    0    0    0 -0.00000000000E+00 -0.00000000000E+00 -0.74505805969E-08  0.93827000000E+00  0.93827000000E+00 0. -1.
     999902    2    1    2    0    0  0.72292820878E-02  0.14746097061E-01 -0.15506832410E-03  0.10275064211E+01  0.10273751561E+01 0.  0.
     999903    2    3    3    0    0 -0.50276757006E-01 -0.45394946949E-01 -0.11019342739E+00  0.13675823548E+00  0.44404617180E-01 0.  0.
         14    1    1    2    0    0 -0.72292820878E-02 -0.14746097061E-01  0.15506832410E-03  0.16423578910E-01  0.00000000000E+00 0. -1.
     999901    1    3    3    0    0  0.57506039094E-01  0.60141044011E-01  0.11003835907E+00  0.89074818561E+00  0.88000000000E+00 0.  1.
        -11    1    4    4    0    0  0.11401561311E-02 -0.39892177297E-02 -0.40668357764E-01  0.40882640060E-01  0.51100000000E-03 0. -1.
         11    1    4    4    0    0 -0.51416913137E-01 -0.41405729220E-01 -0.69525069627E-01  0.95875595416E-01  0.51100000000E-03 0.  1.
</event>
<event>
 8    1  0.2825007E+004  0.1043930E+01  0.7957747E-01            NaN
         13   -1    0    0    0    0  0.00000000000E+00  0.00000000000E+00  0.74505805969E-08  0.10566000000E+00  0.10566000000E+00 0. -1.
     999900   -1    0    0    0    0 -0.00000000000E+00 -0.00000000000E+00 -0.74505805969E-08  0.93827000000E+00  0.93827000000E+00 0.  1.
     999902    2    1    2    0    0  0.80011936958E-04  0.11088829549E-01 -0.71011197746E-02  0.10307620676E+01  0.10306779543E+01 0.  0.
     999903    2    3    3    0    0 -0.28246112005E-01 -0.64736955579E-01  0.11121744892E+00  0.13916170715E+00  0.44810082934E-01 0.  0.
         14    1    1    2    0    0 -0.80011936958E-04 -0.11088829549E-01  0.71011197746E-02  0.13167932440E-01  0.00000000000E+00 0. -1.
     999901    1    3    3    0    0  0.28326123942E-01  0.75825785128E-01 -0.11831856869E+00  0.89160036041E+00  0.88000000000E+00 0.  1.
        -11    1    4    4    0    0 -0.12135990828E-01  0.20854158448E-02  0.31929522236E-01  0.34225527664E-01  0.51100000000E-03 0. -1.
         11    1    4    4    0    0 -0.16110121177E-01 -0.66822371424E-01  0.79287926679E-01  0.10493617949E+00  0.51100000000E-03 0.  1.
</event>
<event>
 8    1  0.2825007E+004  0.1043930E+01  0.7957747E-01            NaN
         13   -1    0    0    0    0  0.00000000000E+00  0.00000000000E+00  0.74505805969E-08  0.10566000000E+00  0.10566000000E+00 0.  1.
     999900   -1    0    0    0    0 -0.00000000000E+00 -0.00000000000E+00 -0.74505805969E-08  0.93827000000E+00  0.93827000000E+00 0. -1.
     999902    2    1    2    0    0  0.12205785784E-01  0.66147053070E-02  0.27900722787E-02  0.10297694903E+01  0.10296721240E+01 0.  0.
     999903    2    3    3    0    0 -0.53452044905E-01 -0.11141453817E+00  0.44581317067E-01  0.13848482126E+00  0.43820445785E-01 0.  0.
         14    1    1    2    0    0 -0.12205785784E-01 -0.66147053070E-02 -0.27900722787E-02  0.14160509745E-01  0.00000000000E+00 0. -1.
     999901    1    3    3    0    0  0.65657830689E-01  0.11802924347E+00 -0.41791244788E-01  0.89128466900E+00  0.88000000000E+00 0. -1.
        -11    1    4    4    0    0 -0.27924279663E-01 -0.72170793168E-01  0.56464281370E-02  0.77592087567E-01  0.51100000000E-03 0.  1.
         11    1    4    4    0    0 -0.25527765241E-01 -0.39243744997E-01  0.38934888930E-01  0.60892733693E-01  0.51100000000E-03 0. -1.
</event>
<event>
 8    1  0.2825007E+004  0.1043930E+01  0.7957747E-01            NaN
         13   -1    0    0    0    0  0.00000000000E+00  0.00000000000E+00  0.74505805969E-08  0.10566000000E+00  0.10566000000E+00 0.  1.
     999900   -1    0    0    0    0 -0.00000000000E+00 -0.00000000000E+00 -0.74505805969E-08  0.93827000000E+00  0.93827000000E+00 0. -1.
     999902    2    1    2    0    0 -0.75695917705E-02  0.11111222282E-01  0.23743227342E-02  0.10302773303E+01  0.10301868675E+01 0.  0.
     999903    2    3    3    0    0 -0.82522145776E-01  0.70786355789E-01  0.78800906886E-01  0.14178420732E+00  0.45525441336E-01 0.  0.
         14    1    1    2    0    0  0.75695917705E-02 -0.11111222282E-01 -0.23743227342E-02  0.13652669651E-01  0.00000000000E+00 0. -1.
     999901    1    3    3    0    0  0.74952554005E-01 -0.59675133507E-01 -0.76426584152E-01  0.88849312303E+00  0.88000000000E+00 0.  1.
        -11    1    4    4    0    0 -0.65980876390E-02  0.20097436439E-01  0.34112877644E-01  0.40142138135E-01  0.51100000000E-03 0. -1.
         11    1    4    4    0    0 -0.75924058137E-01  0.50688919350E-01  0.44688029242E-01  0.10164206918E+00  0.51100000000E-03 0.  1.
</event>
<event>
 8    1  0.2825007E+004  0.1043930E+01  0.7957747E-01            NaN
         13   -1    0    0    0    0  0.00000000000E+00  0.00000000000E+00  0.74505805969E-08  0.10566000000E+00  0.10566000000E+00 0. -1.
     999900   -1    0    0    0    0 -0.00000000000E+00 -0.00000000000E+00 -0.74505805969E-08  0.93827000000E+00  0.93827000000E+00 0. -1.
     999902    2    1    2    0    0  0.21421691852E-01  0.11675010589E-02 -0.36943272879E-02  0.10221607558E+01  0.10219289166E+01 0.  0.
     999903    2    3    3    0    0 -0.82907857356E-02  0.81599269176E-01  0.88553685035E-01  0.13319405424E+00  0.56318052988E-01 0.  0.
         14    1    1    2    0    0 -0.21421691852E-01 -0.11675010589E-02  0.36943272879E-02  0.21769244237E-01  0.00000000000E+00 0. -1.
     999901    1    3    3    0    0  0.29712477588E-01 -0.80431768117E-01 -0.92248012323E-01  0.88896670153E+00  0.88000000000E+00 0. -1.
        -11    1    4    4    0    0 -0.41513295220E-02  0.20495424259E-01 -0.48766279387E-02  0.21478793574E-01  0.51100000000E-03 0.  1.
         11    1    4    4    0    0 -0.41394562136E-02  0.61103844917E-01  0.93430312973E-01  0.11171526066E+00  0.51100000000E-03 0. -1.
</event>
<event>
 8    1  0.2825007E+004  0.1043930E+01  0.7957747E-01            NaN
         13   -1    0    0    0    0  0.00000000000E+00  0.00000000000E+00  0.74505805969E-08  0.10566000000E+00  0.10566000000E+00 0. -1.
     999900   -1    0    0    0    0 -0.00000000000E+00 -0.00000000000E+00 -0.74505805969E-08  0.93827000000E+00  0.93827000000E+00 0.  1.
     999902    2    1    2    0    0 -0.25983673722E-02 -0.10803355532E-01 -0.89748583170E-02  0.10296467201E+01  0.10295476463E+01 0.  0.
     999903    2    3    3    0    0 -0.63107224430E-01 -0.11801472882E+00  0.11120991692E-02  0.14102005659E+00  0.44445715217E-01 0.  0.
         14    1    1    2    0    0  0.25983673722E-02  0.10803355532E-01  0.89748583170E-02  0.14283279930E-01  0.00000000000E+00 0. -1.
     999901    1    3    3    0    0  0.60508857058E-01  0.10721137329E+00 -0.10086957486E-01  0.88862666348E+00  0.88000000000E+00 0. -1.
        -11    1    4    4    0    0 -0.32740722958E-01 -0.74498949537E-01 -0.20178951638E-01  0.83842111329E-01  0.51100000000E-03 0. -1.
         11    1    4    4    0    0 -0.30366501472E-01 -0.43515779282E-01  0.21291050807E-01  0.57177945256E-01  0.51100000000E-03 0.  1.
</event>
<event>
 8    1  0.2825007E+004  0.1043930E+01  0.7957747E-01            NaN
         13   -1    0    0    0    0  0.00000000000E+00  0.00000000000E+00  0.74505805969E-08  0.10566000000E+00  0.10566000000E+00 0.  1.
     999900   -1    0    0    0    0 -0.00000000000E+00 -0.00000000000E+00 -0.74505805969E-08  0.93827000000E+00  0.93827000000E+00 0. -1.
     999902    2    1    2    0    0  0.12071964639E-01  0.51305829570E-02 -0.20324498142E-02  0.10306564901E+01  0.10305710139E+01 0.  0.
     999903    2    3    3    0    0  0.63620244352E-01 -0.89326822338E-01 -0.75968729421E-01  0.14102398174E+00  0.45713224526E-01 0.  0.
         14    1    1    2    0    0 -0.12071964639E-01 -0.51305829570E-02  0.20324498142E-02  0.13273509858E-01  0.00000000000E+00 0.  1.
     999901    1    3    3    0    0 -0.51548279713E-01  0.94457405295E-01  0.73936279607E-01  0.88963250840E+00  0.88000000000E+00 0. -1.
        -11    1    4    4    0    0  0.24943853124E-01 -0.24019374671E-01 -0.49958712957E-01  0.60788652638E-01  0.51100000000E-03 0.  1.
         11    1    4    4    0    0  0.38676391227E-01 -0.65307447667E-01 -0.26010016465E-01  0.80235329106E-01  0.51100000000E-03 0. -1.
</event>
<event>
 8    1  0.2825007E+004  0.1043930E+01  0.7957747E-01            NaN
         13   -1    0    0    0    0  0.00000000000E+00  0.00000000000E+00  0.74505805969E-08  0.10566000000E+00  0.10566000000E+00 0. -1.
     999900   -1    0    0    0    0 -0.00000000000E+00 -0.00000000000E+00 -0.74505805969E-08  0.93827000000E+00  0.93827000000E+00 0. -1.
     999902    2    1    2    0    0 -0.75346950601E-02  0.11987203546E-01 -0.18464004427E-02  0.10296515592E+01  0.10295525530E+01 0.  0.
     999903    2    3    3    0    0 -0.62299129194E-01  0.16944456953E-01 -0.11626769442E+00  0.14054192017E+00  0.45448415158E-01 0.  0.
         14    1    1    2    0    0  0.75346950601E-02 -0.11987203546E-01  0.18464004427E-02  0.14278440850E-01  0.00000000000E+00 0. -1.
     999901    1    3    3    0    0  0.54764434134E-01 -0.49572534070E-02  0.11442129398E+00  0.88910963898E+00  0.88000000000E+00 0.  1.
        -11    1    4    4    0    0 -0.49033781706E-01 -0.84158715360E-02 -0.65409116227E-01  0.82181215911E-01  0.51100000000E-03 0.  1.
         11    1    4    4    0    0 -0.13265347488E-01  0.25360328489E-01 -0.50858578193E-01  0.58360704261E-01  0.51100000000E-03 0. -1.
</event>
<event>
 8    1  0.2825007E+004  0.1043930E+01  0.7957747E-01            NaN
         13   -1    0    0    0    0  0.00000000000E+00  0.00000000000E+00  0.74505805969E-08  0.10566000000E+00  0.10566000000E+00 0.  1.
     999900   -1    0    0    0    0 -0.00000000000E+00 -0.00000000000E+00 -0.74505805969E-08  0.93827000000E+00  0.93827000000E+00 0. -1.
     999902    2    1    2    0    0  0.30832079782E-02  0.47053989832E-03  0.12865732416E-01  0.10306916221E+01  0.10306066006E+01 0.  0.
     999903    2    3    3    0    0  0.40337375798E-01  0.12368900580E+00  0.31307570844E-01  0.14113512317E+00  0.44865186468E-01 0.  0.
         14    1    1    2    0    0 -0.30832079782E-02 -0.47053989832E-03 -0.12865732416E-01  0.13238377915E-01  0.00000000000E+00 0. -1.
     999901    1    3    3    0    0 -0.37254167820E-01 -0.12321846590E+00 -0.18441838428E-01  0.88955649892E+00  0.88000000000E+00 0. -1.
        -11    1    4    4    0    0  0.29241052601E-01  0.11658061266E+00  0.16522790220E-01  0.12132329587E+00  0.51100000000E-03 0. -1.
         11    1    4    4    0    0  0.11096323197E-01  0.71083931479E-02  0.14784780623E-01  0.19811827294E-01  0.51100000000E-03 0.  1.
</event>
<event>
 8    1  0.2825007E+004  0.1043930E+01  0.7957747E-01            NaN
         13   -1    0    0    0    0  0.00000000000E+00  0.00000000000E+00  0.74505805969E-08  0.10566000000E+00  0.10566000000E+00 0.  1.
     999900   -1    0    0    0    0 -0.00000000000E+00 -0.00000000000E+00 -0.74505805969E-08  0.93827000000E+00  0.93827000000E+00 0.  1.
     999902    2    1    2    0    0  0.96078506665E-02  0.39817781375E-02  0.75096993208E-02  0.10311018694E+01  0.10310220677E+01 0.  0.
     999903    2    3    3    0    0 -0.48428577214E-01 -0.48158289932E-01 -0.11336663976E+00  0.13941924477E+00  0.43831299587E-01 0.  0.
         14    1    1    2    0    0 -0.96078506665E-02 -0.39817781375E-02 -0.75096993208E-02  0.12828130630E-01  0.00000000000E+00 0. -1.
     999901    1    3    3    0    0  0.58036427880E-01  0.52140068070E-01  0.12087633908E+00  0.89168262460E+00  0.88000000000E+00 0. -1.
        -11    1    4    4    0    0 -0.35339522575E-01 -0.46717799071E-02 -0.53042136099E-01  0.63909597919E-01  0.51100000000E-03 0. -1.
         11    1    4    4    0    0 -0.13089054639E-01 -0.43486510025E-01 -0.60324503657E-01  0.75509646854E-01  0.51100000000E-03 0.  1.
</event>
<event>
 8    1  0.2825007E+004  0.1043930E+01  0.7957747E-01            NaN
         13   -1    0    0    0    0  0.00000000000E+00  0.00000000000E+00  0.74505805969E-08  0.10566000000E+00  0.10566000000E+00 0.  1.
     999900   -1    0    0    0    0 -0.00000000000E+00 -0.00000000000E+00 -0.74505805969E-08  0.93827000000E+00  0.93827000000E+00 0.  1.
     999902    2    1    2    0    0 -0.11677551354E-01  0.19218115376E-02  0.65961942435E-02  0.10303812604E+01  0.10302921787E+01 0.  0.
     999903    2    3    3    0    0  0.66644677061E-01 -0.10295206103E+00 -0.48813919064E-01  0.13897608810E+00  0.43484646920E-01 0.  0.
         14    1    1    2    0    0  0.11677551354E-01 -0.19218115376E-02 -0.65961942435E-02  0.13548739561E-01  0.00000000000E+00 0. -1.
     999901    1    3    3    0    0 -0.78322228415E-01  0.10487387257E+00  0.55410113308E-01  0.89140517234E+00  0.88000000000E+00 0. -1.
        -11    1    4    4    0    0  0.30217152447E-01 -0.49625852203E-01 -0.46384668871E-01  0.74347832087E-01  0.51100000000E-03 0.  1.
         11    1    4    4    0    0  0.36427524614E-01 -0.53326208832E-01 -0.24292501934E-02  0.64628256014E-01  0.51100000000E-03 0. -1.
</event>
<event>
 8    1  0.2825007E+004  0.1043930E+01  0.7957747E-01            NaN
         13   -1    0    0    0    0  0.00000000000E+00  0.00000000000E+00  0.74505805969E-08  0.10566000000E+00  0.10566000000E+00 0. -1.
     999900   -1    0    0    0    0 -0.00000000000E+00 -0.00000000000E+00 -0.74505805969E-08  0.93827000000E+00  0.93827000000E+00 0. -1.
     999902    2    1    2    0    0  0.10309495674E-02  0.55038975280E-02 -0.12532715422E-01  0.10302032123E+01  0.10301117580E+01 0.  0.
     999903    2    3    3    0    0 -0.12947571959E+00  0.10349898216E-01 -0.26754571361E-01  0.14045171012E+00  0.46257901297E-01 0.  0.
         14    1    1    2    0    0 -0.10309495674E-02 -0.55038975280E-02  0.12532715422E-01  0.13726787711E-01  0.00000000000E+00 0. -1.
     999901    1    3    3    0    0  0.13050666916E+00 -0.48460006881E-02  0.14221855939E-01  0.88975150216E+00  0.88000000000E+00 0. -1.
        -11    1    4    4    0    0 -0.96167461019E-01  0.11692669391E-01  0.12900272738E-02  0.96885625186E-01  0.51100000000E-03 0. -1.
         11    1    4    4    0    0 -0.33308258569E-01 -0.13427711750E-02 -0.28044598635E-01  0.43566084939E-01  0.51100000000E-03 0.  1.
</event>
<event>
 8    1  0.2825007E+004  0.1043930E+01  0.7957747E-01            NaN
         13   -1    0    0    0    0  0.00000000000E+00  0.00000000000E+00  0.74505805969E-08  0.10566000000E+00  0.10566000000E+00 0. -1.
     999900   -1    0    0    0    0 -0.00000000000E+00 -0.00000000000E+00 -0.74505805969E-08  0.93827000000E+00  0.93827000000E+00 0. -1.
     999902    2    1    2    0    0 -0.91656341141E-02 -0.83348125115E-02 -0.57229067052E-02  0.10302834030E+01  0.10301930212E+01 0.  0.
     999903    2    3    3    0    0  0.25634888384E-01  0.11760922042E+00 -0.53699338800E-01  0.13934304932E+00  0.45208297623E-01 0.  0.
         14    1    1    2    0    0  0.91656341141E-02  0.83348125115E-02  0.57229067052E-02  0.13646596992E-01  0.00000000000E+00 0. -1.
     999901    1    3    3    0    0 -0.34800522498E-01 -0.12594403294E+00  0.47976432094E-01  0.89094035369E+00  0.88000000000E+00 0.  1.
        -11    1    4    4    0    0 -0.11535771644E-01  0.49903895056E-01 -0.18494930755E-01  0.54459125533E-01  0.51100000000E-03 0. -1.
         11    1    4    4    0    0  0.37170660028E-01  0.67705325368E-01 -0.35204408044E-01  0.84883923784E-01  0.51100000000E-03 0.  1.
</event>
<event>
 8    1  0.2825007E+004  0.1043930E+01  0.7957747E-01            NaN
         13   -1    0    0    0    0  0.00000000000E+00  0.00000000000E+00  0.74505805969E-08  0.10566000000E+00  0.10566000000E+00 0. -1.
     999900   -1    0    0    0    0 -0.00000000000E+00 -0.00000000000E+00 -0.74505805969E-08  0.93827000000E+00  0.93827000000E+00 0. -1.
     999902    2    1    2    0    0 -0.98917173789E-02  0.41709671826E-02  0.81798622544E-02  0.10304335862E+01  0.10303451957E+01 0.  0.
     999903    2    3    3    0    0  0.50562643279E-01 -0.11943970561E+00  0.27923453345E-01  0.13952161658E+00  0.43175665306E-01 0.  0.
         14    1    1    2    0    0  0.98917173789E-02 -0.41709671826E-02 -0.81798622544E-02  0.13496413836E-01  0.00000000000E+00 0.  1.
     999901    1    3    3    0    0 -0.60454360658E-01  0.12361067280E+00 -0.19743591091E-01  0.89091196958E+00  0.88000000000E+00 0. -1.
        -11    1    4    4    0    0  0.49220086962E-01 -0.82950341495E-01  0.53783449672E-02  0.96605195669E-01  0.51100000000E-03 0.  1.
         11    1    4    4    0    0  0.13425563174E-02 -0.36489364120E-01  0.22545108378E-01  0.42916420914E-01  0.51100000000E-03 0. -1.
</event>
<event>
 8    1  0.2825007E+004  0.1043930E+01  0.7957747E-01            NaN
         13   -1    0    0    0    0  0.00000000000E+00  0.00000000000E+00  0.74505805969E-08  0.10566000000E+00  0.10566000000E+00 0.  1.
     999900   -1    0    0    0    0 -0.00000000000E+00 -0.00000000000E+00 -0.74505805969E-08  0.93827000000E+00  0.93827000000E+00 0. -1.
     999902    2    1    2    0    0  0.75100854721E-02  0.10277237440E-01 -0.38574159361E-02  0.10306295244E+01  0.10305436982E+01 0.  0.
     999903    2    3    3    0    0 -0.10693429472E+00  0.32669516931E-01  0.68184268417E-01  0.14001797350E+00  0.49534813197E-01 0.  0.
         14    1    1    2    0    0 -0.75100854721E-02 -0.10277237440E-01  0.38574159361E-02  0.13300475589E-01  0.00000000000E+00 0.  1.
     999901    1    3    3    0    0  0.11444438019E+00 -0.22392279491E-01 -0.72041684353E-01  0.89061155091E+00  0.88000000000E+00 0. -1.
        -11    1    4    4    0    0 -0.55044009282E-01  0.29044423958E-01  0.11881502908E-01  0.63362865727E-01  0.51100000000E-03 0.  1.
         11    1    4    4    0    0 -0.51890285439E-01  0.36250929731E-02  0.56302765509E-01  0.76655107769E-01  0.51100000000E-03 0. -1.
</event>
<event>
 8    1  0.2825007E+004  0.1043930E+01  0.7957747E-01            NaN
         13   -1    0    0    0    0  0.00000000000E+00  0.00000000000E+00  0.74505805969E-08  0.10566000000E+00  0.10566000000E+00 0.  1.
     999900   -1    0    0    0    0 -0.00000000000E+00 -0.00000000000E+00 -0.74505805969E-08  0.93827000000E+00  0.93827000000E+00 0.  1.
     999902    2    1    2    0    0  0.85330696297E-02  0.95746793332E-02 -0.37838498823E-02  0.10305581908E+01  0.10304714355E+01 0.  0.
     999903    2    3    3    0    0 -0.87657204952E-01  0.99080556095E-01  0.15027824706E-01  0.14060439985E+00  0.45199773969E-01 0.  0.
         14    1    1    2    0    0 -0.85330696297E-02 -0.95746793332E-02  0.37838498823E-02  0.13371809211E-01  0.00000000000E+00 0. -1.
     999901    1    3    3    0    0  0.96190274582E-01 -0.89505876762E-01 -0.18811674588E-01  0.88995379094E+00  0.88000000000E+00 0. -1.
        -11    1    4    4    0    0 -0.29845410820E-01  0.39073644205E-01 -0.15969892207E-01  0.51699098605E-01  0.51100000000E-03 0. -1.
         11    1    4    4    0    0 -0.57811794132E-01  0.60006911890E-01  0.30997716913E-01  0.88905301249E-01  0.51100000000E-03 0.  1.
</event>
<event>
 8    1  0.2825007E+004  0.1043930E+01  0.7957747E-01            NaN
         13   -1    0    0    0    0  0.00000000000E+00  0.00000000000E+00  0.74505805969E-08  0.10566000000E+00  0.10566000000E+00 0. -1.
     999900   -1    0    0    0    0 -0.00000000000E+00 -0.00000000000E+00 -0.74505805969E-08  0.93827000000E+00  0.93827000000E+00 0.  1.
     999902    2    1    2    0    0  0.12520576793E-01  0.37923592448E-02  0.48442755277E-02  0.10299795937E+01  0.10298851147E+01 0.  0.
     999903    2    3    3    0    0  0.63135301584E-01 -0.11157268459E-01  0.11759774092E+00  0.14121714750E+00  0.44749336675E-01 0.  0.
         14    1    1    2    0    0 -0.12520576793E-01 -0.37923592448E-02 -0.48442755277E-02  0.13950406348E-01  0.00000000000E+00 0. -1.
     999901    1    3    3    0    0 -0.50614724790E-01  0.14949627703E-01 -0.11275346539E+00  0.88876244615E+00  0.88000000000E+00 0.  1.
        -11    1    4    4    0    0  0.23296008772E-01  0.15477890759E-01  0.60623607266E-01  0.66766398779E-01  0.51100000000E-03 0.  1.
         11    1    4    4    0    0  0.39839292811E-01 -0.26635159218E-01  0.56974133654E-01  0.74450748720E-01  0.51100000000E-03 0. -1.
</event>
<event>
 8    1  0.2825007E+004  0.1043930E+01  0.7957747E-01            NaN
         13   -1    0    0    0    0  0.00000000000E+00  0.00000000000E+00  0.74505805969E-08  0.10566000000E+00  0.10566000000E+00 0. -1.
     999900   -1    0    0    0    0 -0.00000000000E+00 -0.00000000000E+00 -0.74505805969E-08  0.93827000000E+00  0.93827000000E+00 0.  1.
     999902    2    1    2    0    0 -0.60079478345E-02  0.96698110340E-02 -0.85349455872E-02  0.10297016488E+01  0.10296033409E+01 0.  0.
     999903    2    3    3    0    0 -0.13181990526E+00 -0.17656324161E-01 -0.90929376349E-03  0.14030099841E+00  0.44668894471E-01 0.  0.
         14    1    1    2    0    0  0.60079478345E-02 -0.96698110340E-02  0.85349455872E-02  0.14228351232E-01  0.00000000000E+00 0. -1.
     999901    1    3    3    0    0  0.12581195743E+00  0.27326135195E-01 -0.76256518238E-02  0.88940065036E+00  0.88000000000E+00 0.  1.
        -11    1    4    4    0    0 -0.11019448292E+00 -0.26400556559E-01  0.11461659081E-01  0.11389224821E+00  0.51100000000E-03 0.  1.
         11    1    4    4    0    0 -0.21625422338E-01  0.87442323987E-02 -0.12370952844E-01  0.26408750194E-01  0.51100000000E-03 0. -1.
</event>
<event>
 8    1  0.2825007E+004  0.1043930E+01  0.7957747E-01            NaN
         13   -1    0    0    0    0  0.00000000000E+00  0.00000000000E+00  0.74505805969E-08  0.10566000000E+00  0.10566000000E+00 0. -1.
     999900   -1    0    0    0    0 -0.00000000000E+00 -0.00000000000E+00 -0.74505805969E-08  0.93827000000E+00  0.93827000000E+00 0. -1.
     999902    2    1    2    0    0  0.14750849035E-02 -0.13722892594E-01 -0.24025973391E-02  0.10299204986E+01  0.10298252120E+01 0.  0.
     999903    2    3    3    0    0 -0.52652713422E-01  0.11335746663E+00  0.40592179197E-01  0.13810897864E+00  0.42475186848E-01 0.  0.
         14    1    1    2    0    0 -0.14750849035E-02  0.13722892594E-01  0.24025973391E-02  0.14009501440E-01  0.00000000000E+00 0.  1.
     999901    1    3    3    0    0  0.54127798325E-01 -0.12708035922E+00 -0.42994776536E-01  0.89181151992E+00  0.88000000000E+00 0. -1.
        -11    1    4    4    0    0 -0.55553327326E-01  0.76199445227E-01  0.34074118062E-01  0.10026881007E+00  0.51100000000E-03 0. -1.
         11    1    4    4    0    0  0.29006139043E-02  0.37158021403E-01  0.65180611349E-02  0.37840168572E-01  0.51100000000E-03 0.  1.
</event>
<event>
 8    1  0.2825007E+004  0.1043930E+01  0.7957747E-01            NaN
         13   -1    0    0    0    0  0.00000000000E+00  0.00000000000E+00  0.74505805969E-08  0.10566000000E+00  0.10566000000E+00 0. -1.
     999900   -1    0    0    0    0 -0.00000000000E+00 -0.00000000000E+00 -0.74505805969E-08  0.93827000000E+00  0.93827000000E+00 0. -1.
     999902    2    1    2    0    0  0.10621195955E-01  0.33089099709E-02 -0.81664954872E-02  0.10301296255E+01  0.10300371813E+01 0.  0.
     999903    2    3    3    0    0  0.51394218770E-01 -0.10530807563E+00 -0.63237049698E-01  0.14080805545E+00  0.45791129157E-01 0.  0.
         14    1    1    2    0    0 -0.10621195955E-01 -0.33089099709E-02  0.81664954872E-02  0.13800374533E-01  0.00000000000E+00 0. -1.
     999901    1    3    3    0    0 -0.40773022815E-01  0.10861698560E+00  0.55070554211E-01  0.88932157001E+00  0.88000000000E+00 0.  1.
        -11    1    4    4    0    0  0.26890808368E-01 -0.57148750452E-01 -0.82232845018E-02  0.63694417196E-01  0.51100000000E-03 0. -1.
         11    1    4    4    0    0  0.24503410402E-01 -0.48159325181E-01 -0.55013765196E-01  0.77113638257E-01  0.51100000000E-03 0.  1.
</event>
<event>
 7    1  0.2825007E+004  0.1043930E+01  0.7957747E-01            NaN
         13   -1    0    0    0    0  0.00000000000E+00  0.00000000000E+00  0.74505805969E-08  0.10566000000E+00  0.10566000000E+00 0. -1.
     999900   -1    0    0    0    0 -0.00000000000E+00 -0.00000000000E+00 -0.74505805969E-08  0.93827000000E+00  0.93827000000E+00 0. -1.
     999903    2    1    2    0    0 -0.31266910293E-01  0.50854967156E-01  0.33421468241E-01  0.81729737157E-01  0.44709149318E-01 0.  0.
         14    1    1    2    0    0  0.42541142476E-01  0.51433744748E-01 -0.36753971422E-01  0.76197331431E-01  0.00000000000E+00 0.  1.
     999901    1    1    2    0    0 -0.11274232183E-01 -0.10228871190E+00  0.33325031810E-02  0.88600293141E+00  0.88000000000E+00 0.  1.
        -11    1    3    3    0    0 -0.33948342160E-01  0.13015513611E-01  0.12792836912E-01  0.38546223255E-01  0.51100000000E-03 0.  1.
         11    1    3    3    0    0  0.26814318671E-02  0.37839453545E-01  0.20628631329E-01  0.43183513902E-01  0.51100000000E-03 0. -1.
</event>
<event>
 8    1  0.2825007E+004  0.1043930E+01  0.7957747E-01            NaN
         13   -1    0    0    0    0  0.00000000000E+00  0.00000000000E+00  0.74505805969E-08  0.10566000000E+00  0.10566000000E+00 0.  1.
     999900   -1    0    0    0    0 -0.00000000000E+00 -0.00000000000E+00 -0.74505805969E-08  0.93827000000E+00  0.93827000000E+00 0.  1.
     999902    2    1    2    0    0  0.41733609477E-02 -0.10570700229E-01  0.75903645456E-02  0.10302636077E+01  0.10301729617E+01 0.  0.
     999903    2    3    3    0    0 -0.60339416641E-01  0.11358006125E+00 -0.23938670604E-01  0.13865304802E+00  0.45938352846E-01 0.  0.
         14    1    1    2    0    0 -0.41733609477E-02  0.10570700229E-01 -0.75903645456E-02  0.13666392313E-01  0.00000000000E+00 0. -1.
     999901    1    3    3    0    0  0.64512777588E-01 -0.12415076148E+00  0.31529035149E-01  0.89161055966E+00  0.88000000000E+00 0. -1.
        -11    1    4    4    0    0 -0.10532803997E-01  0.63657777608E-02  0.97697201769E-02  0.15721693289E-01  0.51100000000E-03 0.  1.
         11    1    4    4    0    0 -0.49806612644E-01  0.10721428349E+00 -0.33708390781E-01  0.12293135473E+00  0.51100000000E-03 0. -1.
</event>
<event>
 8    1  0.2825007E+004  0.1043930E+01  0.7957747E-01            NaN
         13   -1    0    0    0    0  0.00000000000E+00  0.00000000000E+00  0.74505805969E-08  0.10566000000E+00  0.10566000000E+00 0. -1.
     999900   -1    0    0    0    0 -0.00000000000E+00 -0.00000000000E+00 -0.74505805969E-08  0.93827000000E+00  0.93827000000E+00 0.  1.
     999902    2    1    2    0    0 -0.96278732754E-02 -0.85716788529E-02  0.31547516327E-02  0.10306589006E+01  0.10305734555E+01 0.  0.
     999903    2    3    3    0    0  0.11255598051E+00  0.65409823886E-01 -0.18259643720E-01  0.13888497563E+00  0.44814373344E-01 0.  0.
         14    1    1    2    0    0  0.96278732754E-02  0.85716788529E-02 -0.31547516327E-02  0.13271099428E-01  0.00000000000E+00 0.  1.
     999901    1    3    3    0    0 -0.12218385379E+00 -0.73981502739E-01  0.21414395353E-01  0.89177392494E+00  0.88000000000E+00 0. -1.
        -11    1    4    4    0    0  0.20323569247E-01 -0.48181565209E-02  0.27380034732E-02  0.21071779308E-01  0.51100000000E-03 0. -1.
         11    1    4    4    0    0  0.92232411264E-01  0.70227980407E-01 -0.20997647193E-01  0.11781319632E+00  0.51100000000E-03 0.  1.
</event>
<event>
 8    1  0.2825007E+004  0.1043930E+01  0.7957747E-01            NaN
         13   -1    0    0    0    0  0.00000000000E+00  0.00000000000E+00  0.74505805969E-08  0.10566000000E+00  0.10566000000E+00 0.  1.
     999900   -1    0    0    0    0 -0.00000000000E+00 -0.00000000000E+00 -0.74505805969E-08  0.93827000000E+00  0.93827000000E+00 0. -1.
     999902    2    1    2    0    0  0.54034252588E-02  0.10884986962E-01 -0.66376112516E-02  0.10300830571E+01  0.10299899837E+01 0.  0.
     999903    2    3    3    0    0  0.65653141924E-01 -0.97315428356E-01 -0.61665341979E-01  0.13970931004E+00  0.43993741256E-01 0.  0.
         14    1    1    2    0    0 -0.54034252588E-02 -0.10884986962E-01  0.66376112516E-02  0.13846942941E-01  0.00000000000E+00 0. -1.
     999901    1    3    3    0    0 -0.60249716665E-01  0.10820041532E+00  0.55027730727E-01  0.89037374702E+00  0.88000000000E+00 0.  1.
        -11    1    4    4    0    0  0.31254539976E-02 -0.19480007396E-01  0.40962009848E-02  0.20156367092E-01  0.51100000000E-03 0. -1.
         11    1    4    4    0    0  0.62527687926E-01 -0.77835420960E-01 -0.65761542964E-01  0.11955294295E+00  0.51100000000E-03 0.  1.
</event>
<event>
 8    1  0.2825007E+004  0.1043930E+01  0.7957747E-01            NaN
         13   -1    0    0    0    0  0.00000000000E+00  0.00000000000E+00  0.74505805969E-08  0.10566000000E+00  0.10566000000E+00 0.  1.
     999900   -1    0    0    0    0 -0.00000000000E+00 -0.00000000000E+00 -0.74505805969E-08  0.93827000000E+00  0.93827000000E+00 0. -1.
     999902    2    1    2    0    0  0.89831884618E-02  0.10504349714E-01 -0.37293372370E-03  0.10301032825E+01  0.10300104827E+01 0.  0.
     999903    2    3    3    0    0  0.20272433766E-01 -0.11821276525E+00  0.53505263698E-01  0.13903740225E+00  0.45643800719E-01 0.  0.
         14    1    1    2    0    0 -0.89831884618E-02 -0.10504349714E-01  0.37293372370E-03  0.13826717521E-01  0.00000000000E+00 0.  1.
     999901    1    3    3    0    0 -0.11289245304E-01  0.12871711496E+00 -0.53878197422E-01  0.89106588022E+00  0.88000000000E+00 0.  1.
        -11    1    4    4    0    0  0.31108470804E-01 -0.97685776030E-01  0.32021353162E-01  0.10740519528E+00  0.51100000000E-03 0. -1.
         11    1    4    4    0    0 -0.10836037038E-01 -0.20526989216E-01  0.21483910536E-01  0.31632206971E-01  0.51100000000E-03 0.  1.
</event>
<event>
 8    1  0.2825007E+004  0.1043930E+01  0.7957747E-01            NaN
         13   -1    0    0    0    0  0.00000000000E+00  0.00000000000E+00  0.74505805969E-08  0.10566000000E+00  0.10566000000E+00 0. -1.
     999900   -1    0    0    0    0 -0.00000000000E+00 -0.00000000000E+00 -0.74505805969E-08  0.93827000000E+00  0.93827000000E+00 0.  1.
     999902    2    1    2    0    0 -0.13438691087E-01 -0.11500261640E-02 -0.52118500727E-03  0.10304321256E+01  0.10303437159E+01 0.  0.
     999903    2    3    3    0    0 -0.11970331402E-01  0.47318349584E-01 -0.12380465863E+00  0.14051631255E+00  0.45110149097E-01 0.  0.
         14    1    1    2    0    0  0.13438691087E-01  0.11500261640E-02  0.52118500727E-03  0.13497874355E-01  0.00000000000E+00 0. -1.
     999901    1    3    3    0    0 -0.14683596848E-02 -0.48468375748E-01  0.12328347363E+00  0.88991581310E+00  0.88000000000E+00 0. -1.
        -11    1    4    4    0    0 -0.17519730476E-01  0.25905521286E-01 -0.11017592222E+00  0.11452961166E+00  0.51100000000E-03 0.  1.
         11    1    4    4    0    0  0.55493990738E-02  0.21412828298E-01 -0.13628736414E-01  0.25986700888E-01  0.51100000000E-03 0. -1.
</event>
<event>
 8    1  0.2825007E+004  0.1043930E+01  0.7957747E-01            NaN
         13   -1    0    0    0    0  0.00000000000E+00  0.00000000000E+00  0.74505805969E-08  0.10566000000E+00  0.10566000000E+00 0.  1.
     999900   -1    0    0    0    0 -0.00000000000E+00 -0.00000000000E+00 -0.74505805969E-08  0.93827000000E+00  0.93827000000E+00 0.  1.
     999902    2    1    2    0    0  0.11234435785E-01 -0.28718061035E-02  0.88031922348E-02  0.10293712909E+01  0.10292683316E+01 0.  0.
     999903    2    3    3    0    0 -0.91967874042E-01 -0.91050926473E-01  0.22569489245E-01  0.13885695357E+00  0.44983448541E-01 0.  0.
         14    1    1    2    0    0 -0.11234435785E-01  0.28718061035E-02 -0.88031922348E-02  0.14558709119E-01  0.00000000000E+00 0. -1.
     999901    1    3    3    0    0  0.10320230983E+00  0.88179120370E-01 -0.13766297011E-01  0.89051433731E+00  0.88000000000E+00 0.  1.
        -11    1    4    4    0    0 -0.53521342527E-01 -0.41261217982E-01 -0.95003012294E-02  0.68246165165E-01  0.51100000000E-03 0.  1.
         11    1    4    4    0    0 -0.38446531515E-01 -0.49789708491E-01  0.32069790475E-01  0.70610788405E-01  0.51100000000E-03 0. -1.
</event>
<event>
 8    1  0.2825007E+004  0.1043930E+01  0.7957747E-01            NaN
         13   -1    0    0    0    0  0.00000000000E+00  0.00000000000E+00  0.74505805969E-08  0.10566000000E+00  0.10566000000E+00 0.  1.
     999900   -1    0    0    0    0 -0.00000000000E+00 -0.00000000000E+00 -0.74505805969E-08  0.93827000000E+00  0.93827000000E+00 0. -1.
     999902    2    1    2    0    0  0.26927520122E-02 -0.33231425083E-02  0.13262932722E-01  0.10299944493E+01  0.10299001728E+01 0.  0.
     999903    2    3    3    0    0  0.12656728017E+00 -0.39345562051E-01 -0.55953715461E-02  0.14038883493E+00  0.45938732340E-01 0.  0.
         14    1    1    2    0    0 -0.26927520122E-02  0.33231425083E-02 -0.13262932722E-01  0.13935550722E-01  0.00000000000E+00 0. -1.
     999901    1    3    3    0    0 -0.12387452815E+00  0.36022419543E-01  0.18858304268E-01  0.88960561435E+00  0.88000000000E+00 0.  1.
        -11    1    4    4    0    0  0.57364891943E-01 -0.41801953274E-01 -0.10005460726E-02  0.70988705711E-01  0.51100000000E-03 0.  1.
         11    1    4    4    0    0  0.69202388224E-01  0.24563912229E-02 -0.45948254734E-02  0.69400129221E-01  0.51100000000E-03 0. -1.
</event>
<event>
 8    1  0.2825007E+004  0.1043930E+01  0.7957747E-01            NaN
         13   -1    0    0    0    0  0.00000000000E+00  0.00000000000E+00  0.74505805969E-08  0.10566000000E+00  0.10566000000E+00 0.  1.
     999900   -1    0    0    0    0 -0.00000000000E+00 -0.00000000000E+00 -0.74505805969E-08  0.93827000000E+00  0.93827000000E+00 0.  1.
     999902    2    1    2    0    0 -0.37394053626E-02 -0.11574507124E-01  0.76882832865E-02  0.10295403486E+01  0.10294397832E+01 0.  0.
     999903    2    3    3    0    0 -0.32350677434E-02  0.12984364284E+00 -0.12736991909E-01  0.13801550914E+00  0.44902255537E-01 0.  0.
         14    1    1    2    0    0  0.37394053626E-02  0.11574507124E-01 -0.76882832865E-02  0.14389651404E-01  0.00000000000E+00 0. -1.
     999901    1    3    3    0    0 -0.50433761915E-03 -0.14141814996E+00  0.20425275195E-01  0.89152483945E+00  0.88000000000E+00 0.  1.
        -11    1    4    4    0    0 -0.89622183959E-02  0.10592116207E+00 -0.26866140967E-01  0.10964335175E+00  0.51100000000E-03 0.  1.
         11    1    4    4    0    0  0.57271506524E-02  0.23922480773E-01  0.14129149059E-01  0.28372157391E-01  0.51100000000E-03 0. -1.
</event>
<event>
 8    1  0.2825007E+004  0.1043930E+01  0.7957747E-01            NaN
         13   -1    0    0    0    0  0.00000000000E+00  0.00000000000E+00  0.74505805969E-08  0.10566000000E+00  0.10566000000E+00 0.  1.
     999900   -1    0    0    0    0 -0.00000000000E+00 -0.00000000000E+00 -0.74505805969E-08  0.93827000000E+00  0.93827000000E+00 0.  1.
     999902    2    1    2    0    0 -0.16094662676E-02  0.21519949681E-02 -0.13108264990E-01  0.10305491153E+01  0.10304622414E+01 0.  0.
     999903    2    3    3    0    0 -0.41960114478E-01 -0.70453042964E-02  0.12442201831E+00  0.13890605671E+00  0.44763449719E-01 0.  0.
         14    1    1    2    0    0  0.16094662676E-02 -0.21519949681E-02  0.13108264990E-01  0.13380884688E-01  0.00000000000E+00 0.  1.
     999901    1    3    3    0    0  0.40350648210E-01  0.91972992645E-02 -0.13753028330E+00  0.89164305860E+00  0.88000000000E+00 0.  1.
        -11    1    4    4    0    0 -0.26807750170E-01  0.14058764424E-01  0.94724503484E-01  0.99444944606E-01  0.51100000000E-03 0.  1.
         11    1    4    4    0    0 -0.15152364308E-01 -0.21104068721E-01  0.29697514827E-01  0.39461112106E-01  0.51100000000E-03 0. -1.
</event>
<event>
 8    1  0.2825007E+004  0.1043930E+01  0.7957747E-01            NaN
         13   -1    0    0    0    0  0.00000000000E+00  0.00000000000E+00  0.74505805969E-08  0.10566000000E+00  0.10566000000E+00 0.  1.
     999900   -1    0    0    0    0 -0.00000000000E+00 -0.00000000000E+00 -0.74505805969E-08  0.93827000000E+00  0.93827000000E+00 0.  1.
     999902    2    1    2    0    0 -0.77324651187E-02  0.17231289565E-02 -0.10888846860E-01  0.10304642220E+01  0.10303762350E+01 0.  0.
     999903    2    3    3    0    0 -0.10147903501E+00 -0.86053423871E-01 -0.66230991876E-02  0.14113225972E+00  0.46596813022E-01 0.  0.
         14    1    1    2    0    0  0.77324651187E-02 -0.17231289565E-02  0.10888846860E-01  0.13465777963E-01  0.00000000000E+00 0.  1.
     999901    1    3    3    0    0  0.93746569896E-01  0.87776552828E-01 -0.42657476723E-02  0.88933196232E+00  0.88000000000E+00 0.  1.
        -11    1    4    4    0    0 -0.23176621426E-01 -0.21524172534E-01  0.18439423420E-01  0.36615833202E-01  0.51100000000E-03 0. -1.
         11    1    4    4    0    0 -0.78302413588E-01 -0.64529251337E-01 -0.25062522608E-01  0.10451642652E+00  0.51100000000E-03 0.  1.
</event>
<event>
 8    1  0.2825007E+004  0.1043930E+01  0.7957747E-01            NaN
         13   -1    0    0    0    0  0.00000000000E+00  0.00000000000E+00  0.74505805969E-08  0.10566000000E+00  0.10566000000E+00 0.  1.
     999900   -1    0    0    0    0 -0.00000000000E+00 -0.00000000000E+00 -0.74505805969E-08  0.93827000000E+00  0.93827000000E+00 0. -1.
     999902    2    1    2    0    0  0.11132897005E-01  0.46731916395E-03 -0.77775707886E-02  0.10303413875E+01  0.10302517772E+01 0.  0.
     999903    2    3    3    0    0 -0.46013237244E-01  0.44203994599E-01 -0.11676343540E+00  0.14070297996E+00  0.45742951190E-01 0.  0.
         14    1    1    2    0    0 -0.11132897005E-01 -0.46731916395E-03  0.77775707886E-02  0.13588612523E-01  0.00000000000E+00 0.  1.
     999901    1    3    3    0    0  0.57146134249E-01 -0.43736675435E-01  0.10898586461E+00  0.88963840751E+00  0.88000000000E+00 0.  1.
        -11    1    4    4    0    0 -0.95487446420E-02  0.19732702916E-01 -0.81446222902E-01  0.84346348081E-01  0.51100000000E-03 0. -1.
         11    1    4    4    0    0 -0.36464492602E-01  0.24471291683E-01 -0.35317212500E-01  0.56356631883E-01  0.51100000000E-03 0.  1.
</event>
<event>
 8    1  0.2825007E+004  0.1043930E+01  0.7957747E-01            NaN
         13   -1    0    0    0    0  0.00000000000E+00  0.00000000000E+00  0.74505805969E-08  0.10566000000E+00  0.10566000000E+00 0.  1.
     999900   -1    0    0    0    0 -0.00000000000E+00 -0.00000000000E+00 -0.74505805969E-08  0.93827000000E+00  0.93827000000E+00 0.  1.
     999902    2    1    2    0    0  0.13023569730E-01  0.28899112768E-02  0.64441859963E-02  0.10291147211E+01  0.10290080742E+01 0.  0.
     999903    2    3    3    0    0  0.27841336638E-01 -0.56214797607E-01  0.11680126455E+00  0.14013124678E+00  0.45376066695E-01 0.  0.
         14    1    1    2    0    0 -0.13023569730E-01 -0.28899112768E-02 -0.64441859963E-02  0.14815278899E-01  0.00000000000E+00 0. -1.
     999901    1    3    3    0    0 -0.14817766908E-01  0.59104708884E-01 -0.11035707855E+00  0.88898347432E+00  0.88000000000E+00 0.  1.
        -11    1    4    4    0    0  0.20410776078E-01 -0.10473611025E-01  0.72403025188E-01  0.75952323765E-01  0.51100000000E-03 0.  1.
         11    1    4    4    0    0  0.74305605596E-02 -0.45741186582E-01  0.44398239359E-01  0.64178923015E-01  0.51100000000E-03 0. -1.
</event>
<event>
 8    1  0.2825007E+004  0.1043930E+01  0.7957747E-01            NaN
         13   -1    0    0    0    0  0.00000000000E+00  0.00000000000E+00  0.74505805969E-08  0.10566000000E+00  0.10566000000E+00 0. -1.
     999900   -1    0    0    0    0 -0.00000000000E+00 -0.00000000000E+00 -0.74505805969E-08  0.93827000000E+00  0.93827000000E+00 0.  1.
     999902    2    1    2    0    0 -0.11122599942E-01  0.64853893171E-02  0.48352525538E-02  0.10301767396E+01  0.10300849298E+01 0.  0.
     999903    2    3    3    0    0  0.10250196232E+00 -0.81897817064E-01  0.31333353410E-02  0.13847890467E+00  0.44189190177E-01 0.  0.
         14    1    1    2    0    0  0.11122599942E-01 -0.64853893171E-02 -0.48352525538E-02  0.13753260389E-01  0.00000000000E+00 0.  1.
     999901    1    3    3    0    0 -0.11362456226E+00  0.88383206382E-01  0.17019172128E-02  0.89169783494E+00  0.88000000000E+00 0.  1.
        -11    1    4    4    0    0  0.69008842681E-01 -0.32808179793E-01  0.15014531613E-01  0.77873579024E-01  0.51100000000E-03 0. -1.
         11    1    4    4    0    0  0.33493119639E-01 -0.49089637272E-01 -0.11881196272E-01  0.60605325644E-01  0.51100000000E-03 0.  1.
</event>
<event>
 8    1  0.2825007E+004  0.1043930E+01  0.7957747E-01            NaN
         13   -1    0    0    0    0  0.00000000000E+00  0.00000000000E+00  0.74505805969E-08  0.10566000000E+00  0.10566000000E+00 0.  1.
     999900   -1    0    0    0    0 -0.00000000000E+00 -0.00000000000E+00 -0.74505805969E-08  0.93827000000E+00  0.93827000000E+00 0.  1.
     999902    2    1    2    0    0 -0.10695776846E-01  0.46227326705E-02  0.10948007589E-01  0.10279416239E+01  0.10278172766E+01 0.  0.
     999903    2    3    3    0    0  0.34846243834E-01  0.51691693782E-01  0.11499181628E+00  0.13939523972E+00  0.48183224562E-01 0.  0.
         14    1    1    2    0    0  0.10695776846E-01 -0.46227326705E-02 -0.10948007589E-01  0.15988376086E-01  0.00000000000E+00 0. -1.
     999901    1    3    3    0    0 -0.45542020680E-01 -0.47068961111E-01 -0.10404380869E+00  0.88854638420E+00  0.88000000000E+00 0.  1.
        -11    1    4    4    0    0  0.27597431435E-01  0.17128485667E-02  0.49378496770E-01  0.56595486889E-01  0.51100000000E-03 0. -1.
         11    1    4    4    0    0  0.72488123989E-02  0.49978845215E-01  0.65613319507E-01  0.82799752826E-01  0.51100000000E-03 0.  1.
</event>
<event>
 8    1  0.2825007E+004  0.1043930E+01  0.7957747E-01            NaN
         13   -1    0    0    0    0  0.00000000000E+00  0.00000000000E+00  0.74505805969E-08  0.10566000000E+00  0.10566000000E+00 0. -1.
     999900   -1    0    0    0    0 -0.00000000000E+00 -0.00000000000E+00 -0.74505805969E-08  0.93827000000E+00  0.93827000000E+00 0. -1.
     999902    2    1    2    0    0 -0.38308542502E-02  0.25356047432E-02  0.15070205811E-01  0.10281751329E+01  0.10280544188E+01 0.  0.
     999903    2    3    3    0    0  0.45565795770E-01 -0.90537079125E-01 -0.80722108734E-01  0.13672759034E+00  0.43648260929E-01 0.  0.
         14    1    1    2    0    0  0.38308542502E-02 -0.25356047432E-02 -0.15070205811E-01  0.15754867149E-01  0.00000000000E+00 0.  1.
     999901    1    3    3    0    0 -0.49396650020E-01  0.93072683869E-01  0.95792314545E-01  0.89144754251E+00  0.88000000000E+00 0.  1.
        -11    1    4    4    0    0  0.19220259097E-01 -0.69903126783E-01 -0.36215027773E-01  0.81041068918E-01  0.51100000000E-03 0.  1.
         11    1    4    4    0    0  0.26345536672E-01 -0.20633952342E-01 -0.44507080961E-01  0.55686521425E-01  0.51100000000E-03 0. -1.
</event>
<event>
 8    1  0.2825007E+004  0.1043930E+01  0.7957747E-01            NaN
         13   -1    0    0    0    0  0.00000000000E+00  0.00000000000E+00  0.74505805969E-08  0.10566000000E+00  0.10566000000E+00 0. -1.
     999900   -1    0    0    0    0 -0.00000000000E+00 -0.00000000000E+00 -0.74505805969E-08  0.93827000000E+00  0.93827000000E+00 0. -1.
     999902    2    1    2    0    0 -0.24385599009E-02  0.12091161843E-01  0.61596515246E-02  0.10301429018E+01  0.10300506367E+01 0.  0.
     999903    2    3    3    0    0 -0.31146928355E-02  0.12994880815E+00  0.35660696650E-01  0.14179545088E+00  0.44021251134E-01 0.  0.
         14    1    1    2    0    0  0.24385599009E-02 -0.12091161843E-01 -0.61596515246E-02  0.13787098172E-01  0.00000000000E+00 0.  1.
     999901    1    3    3    0    0  0.67613293457E-03 -0.11785764631E+00 -0.29501045125E-01  0.88834745095E+00  0.88000000000E+00 0. -1.
        -11    1    4    4    0    0 -0.15120370918E-01  0.27015773132E-01  0.20316045576E-01  0.37033504337E-01  0.51100000000E-03 0.  1.
         11    1    4    4    0    0  0.12005678083E-01  0.10293303502E+00  0.15344651074E-01  0.10476194654E+00  0.51100000000E-03 0. -1.
</event>
<event>
 8    1  0.2825007E+004  0.1043930E+01  0.7957747E-01            NaN
         13   -1    0    0    0    0  0.00000000000E+00  0.00000000000E+00  0.74505805969E-08  0.10566000000E+00  0.10566000000E+00 0.  1.
     999900   -1    0    0    0    0 -0.00000000000E+00 -0.00000000000E+00 -0.74505805969E-08  0.93827000000E+00  0.93827000000E+00 0.  1.
     999902    2    1    2    0    0 -0.75203245991E-02 -0.69549124534E-02  0.98204094419E-02  0.10297396325E+01  0.10296418524E+01 0.  0.
     999903    2    3    3    0    0  0.70613935642E-02 -0.13305483114E+00  0.62029144264E-02  0.14062383445E+00  0.44532407314E-01 0.  0.
         14    1    1    2    0    0  0.75203245991E-02  0.69549124534E-02 -0.98204094419E-02  0.14190367540E-01  0.00000000000E+00 0. -1.
     999901    1    3    3    0    0 -0.14581718163E-01  0.12609991868E+00  0.36174950156E-02  0.88911579801E+00  0.88000000000E+00 0. -1.
        -11    1    4    4    0    0  0.63645782443E-02 -0.81251004723E-01  0.25404522478E-01  0.85369107457E-01  0.51100000000E-03 0. -1.
         11    1    4    4    0    0  0.69681531991E-03 -0.51803826413E-01 -0.19201608051E-01  0.55254726996E-01  0.51100000000E-03 0.  1.
</event>
<event>
 8    1  0.2825007E+004  0.1043930E+01  0.7957747E-01            NaN
         13   -1    0    0    0    0  0.00000000000E+00  0.00000000000E+00  0.74505805969E-08  0.10566000000E+00  0.10566000000E+00 0.  1.
     999900   -1    0    0    0    0 -0.00000000000E+00 -0.00000000000E+00 -0.74505805969E-08  0.93827000000E+00  0.93827000000E+00 0.  1.
     999902    2    1    2    0    0 -0.11351795708E-01  0.12079583830E-01 -0.11941148287E-02  0.10273105680E+01  0.10271761278E+01 0.  0.
     999903    2    3    3    0    0  0.54937523967E-01  0.87726111484E-01 -0.79994802776E-01  0.13808268970E+00  0.44200209805E-01 0.  0.
         14    1    1    2    0    0  0.11351795708E-01 -0.12079583830E-01  0.11941148287E-02  0.16619432046E-01  0.00000000000E+00 0.  1.
     999901    1    3    3    0    0 -0.66289319675E-01 -0.75646527654E-01  0.78800687947E-01  0.88922787826E+00  0.88000000000E+00 0.  1.
        -11    1    4    4    0    0  0.18824190846E-01  0.39527579938E-01 -0.85027966209E-02  0.44602000046E-01  0.51100000000E-03 0. -1.
         11    1    4    4    0    0  0.36113333121E-01  0.48198531546E-01 -0.71492006155E-01  0.93480689650E-01  0.51100000000E-03 0.  1.
</event>
<event>
 8    1  0.2825007E+004  0.1043930E+01  0.7957747E-01            NaN
         13   -1    0    0    0    0  0.00000000000E+00  0.00000000000E+00  0.74505805969E-08  0.10566000000E+00  0.10566000000E+00 0.  1.
     999900   -1    0    0    0    0 -0.00000000000E+00 -0.00000000000E+00 -0.74505805969E-08  0.93827000000E+00  0.93827000000E+00 0. -1.
     999902    2    1    2    0    0 -0.61272523367E-02  0.25257547362E-02  0.91495733306E-02  0.10326323299E+01  0.10325705261E+01 0.  0.
     999903    2    3    3    0    0  0.64452514953E-01 -0.25693059168E-01 -0.11391578997E+00  0.14082355628E+00  0.45168648705E-01 0.  0.
         14    1    1    2    0    0  0.61272523367E-02 -0.25257547362E-02 -0.91495733306E-02  0.11297670128E-01  0.00000000000E+00 0. -1.
     999901    1    3    3    0    0 -0.70579767290E-01  0.28218813904E-01  0.12306536330E+00  0.89180877359E+00  0.88000000000E+00 0.  1.
        -11    1    4    4    0    0  0.18807812193E-01 -0.23269662903E-01 -0.75144624902E-01  0.80883785666E-01  0.51100000000E-03 0.  1.
         11    1    4    4    0    0  0.45644702761E-01 -0.24233962651E-02 -0.38771165069E-01  0.59939770615E-01  0.51100000000E-03 0. -1.
</event>
<event>
 8    1  0.2825007E+004  0.1043930E+01  0.7957747E-01            NaN
         13   -1    0    0    0    0  0.00000000000E+00  0.00000000000E+00  0.74505805969E-08  0.10566000000E+00  0.10566000000E+00 0. -1.
     999900   -1    0    0    0    0 -0.00000000000E+00 -0.00000000000E+00 -0.74505805969E-08  0.93827000000E+00  0.93827000000E+00 0.  1.
     999902    2    1    2    0    0  0.88036949173E-02 -0.87525866329E-02 -0.52348677547E-02  0.10304571882E+01  0.10303691087E+01 0.  0.
     999903    2    3    3    0    0  0.63160403648E-01  0.40656466437E-02 -0.11831271636E+00  0.14146587289E+00  0.44821069458E-01 0.  0.
         14    1    1    2    0    0 -0.88036949173E-02  0.87525866329E-02  0.52348677547E-02  0.13472811784E-01  0.00000000000E+00 0. -1.
     999901    1    3    3    0    0 -0.54356708731E-01 -0.12818233277E-01  0.11307784860E+00  0.88899131533E+00  0.88000000000E+00 0. -1.
        -11    1    4    4    0    0  0.17932840395E-01 -0.17784030835E-01 -0.25276867142E-01  0.35735691555E-01  0.51100000000E-03 0. -1.
         11    1    4    4    0    0  0.45227563253E-01  0.21849677479E-01 -0.93035849216E-01  0.10573018133E+00  0.51100000000E-03 0.  1.
</event>
<event>
 8    1  0.2825007E+004  0.1043930E+01  0.7957747E-01            NaN
         13   -1    0    0    0    0  0.00000000000E+00  0.00000000000E+00  0.74505805969E-08  0.10566000000E+00  0.10566000000E+00 0. -1.
     999900   -1    0    0    0    0 -0.00000000000E+00 -0.00000000000E+00 -0.74505805969E-08  0.93827000000E+00  0.93827000000E+00 0. -1.
     999902    2    1    2    0    0 -0.24494648406E-02 -0.10877980761E-01 -0.71626865188E-02  0.10306772863E+01  0.10305920793E+01 0.  0.
     999903    2    3    3    0    0 -0.14841549516E-01  0.63378404183E-01 -0.11680307816E+00  0.14068369642E+00  0.43724703110E-01 0.  0.
         14    1    1    2    0    0  0.24494648406E-02  0.10877980761E-01  0.71626865188E-02  0.13252713745E-01  0.00000000000E+00 0. -1.
     999901    1    3    3    0    0  0.12392084676E-01 -0.74256384944E-01  0.10964039164E+00  0.88999358983E+00  0.88000000000E+00 0.  1.
        -11    1    4    4    0    0  0.68109976971E-03  0.14870884346E-01 -0.19228705579E-02  0.15018843175E-01  0.51100000000E-03 0. -1.
         11    1    4    4    0    0 -0.15522649286E-01  0.48507519837E-01 -0.11488020760E+00  0.12566485325E+00  0.51100000000E-03 0.  1.
</event>
<event>
 8    1  0.2825007E+004  0.1043930E+01  0.7957747E-01            NaN
         13   -1    0    0    0    0  0.00000000000E+00  0.00000000000E+00  0.74505805969E-08  0.10566000000E+00  0.10566000000E+00 0. -1.
     999900   -1    0    0    0    0 -0.00000000000E+00 -0.00000000000E+00 -0.74505805969E-08  0.93827000000E+00  0.93827000000E+00 0. -1.
     999902    2    1    2    0    0 -0.12706914981E-01  0.36193411296E-02 -0.99084540579E-03  0.10306805814E+01  0.10305954171E+01 0.  0.
     999903    2    3    3    0    0  0.48717046428E-01  0.88791646442E-01  0.85681640843E-01  0.14020916440E+00  0.45386772451E-01 0.  0.
         14    1    1    2    0    0  0.12706914981E-01 -0.36193411296E-02  0.99084540579E-03  0.13249418597E-01  0.00000000000E+00 0.  1.
     999901    1    3    3    0    0 -0.61423961409E-01 -0.85172305313E-01 -0.86672486248E-01  0.89047141700E+00  0.88000000000E+00 0. -1.
        -11    1    4    4    0    0  0.75696405808E-02  0.38235823334E-01  0.56851236109E-01  0.68931863551E-01  0.51100000000E-03 0. -1.
         11    1    4    4    0    0  0.41147405847E-01  0.50555823108E-01  0.28830404734E-01  0.71277300848E-01  0.51100000000E-03 0.  1.
</event>
<event>
 8    1  0.2825007E+004  0.1043930E+01  0.7957747E-01            NaN
         13   -1    0    0    0    0  0.00000000000E+00  0.00000000000E+00  0.74505805969E-08  0.10566000000E+00  0.10566000000E+00 0. -1.
     999900   -1    0    0    0    0 -0.00000000000E+00 -0.00000000000E+00 -0.74505805969E-08  0.93827000000E+00  0.93827000000E+00 0. -1.
     999902    2    1    2    0    0 -0.12884809868E-01 -0.43352135944E-02 -0.61294625566E-02  0.10290174981E+01  0.10289094366E+01 0.  0.
     999903    2    3    3    0    0 -0.97079012955E-02  0.21377385331E-01 -0.13074868000E+00  0.13985993058E+00  0.43753250278E-01 0.  0.
         14    1    1    2    0    0  0.12884809868E-01  0.43352135944E-02  0.61294625566E-02  0.14912501918E-01  0.00000000000E+00 0. -1.
     999901    1    3    3    0    0 -0.31769085720E-02 -0.25712598926E-01  0.12461921744E+00  0.88915756750E+00  0.88000000000E+00 0.  1.
        -11    1    4    4    0    0 -0.26050453602E-02  0.23861927999E-01 -0.28208117874E-01  0.37042366341E-01  0.51100000000E-03 0.  1.
         11    1    4    4    0    0 -0.71028559353E-02 -0.24845426674E-02 -0.10254056212E+00  0.10281756424E+00  0.51100000000E-03 0. -1.
</event>
<event>
 8    1  0.2825007E+004  0.1043930E+01  0.7957747E-01            NaN
         13   -1    0    0    0    0  0.00000000000E+00  0.00000000000E+00  0.74505805969E-08  0.10566000000E+00  0.10566000000E+00 0.  1.
     999900   -1    0    0    0    0 -0.00000000000E+00 -0.00000000000E+00 -0.74505805969E-08  0.93827000000E+00  0.93827000000E+00 0. -1.
     999902    2    1    2    0    0 -0.12125775376E-01  0.70369382634E-02  0.43249256489E-02  0.10292583297E+01  0.10291537549E+01 0.  0.
     999903    2    3    3    0    0 -0.18362253998E-01 -0.12123762517E+00  0.47535980141E-01  0.13888736623E+00  0.44657552127E-01 0.  0.
         14    1    1    2    0    0  0.12125775376E-01 -0.70369382634E-02 -0.43249256489E-02  0.14671670337E-01  0.00000000000E+00 0.  1.
     999901    1    3    3    0    0  0.62364786214E-02  0.12827456344E+00 -0.43211054492E-01  0.89037096343E+00  0.88000000000E+00 0.  1.
        -11    1    4    4    0    0  0.13846341852E-01 -0.40871855610E-01  0.22968542293E-01  0.48888084640E-01  0.51100000000E-03 0. -1.
         11    1    4    4    0    0 -0.32208595849E-01 -0.80365769561E-01  0.24567437847E-01  0.89999281593E-01  0.51100000000E-03 0.  1.
</event>
<event>
 8    1  0.2825007E+004  0.1043930E+01  0.7957747E-01            NaN
         13   -1    0    0    0    0  0.00000000000E+00  0.00000000000E+00  0.74505805969E-08  0.10566000000E+00  0.10566000000E+00 0.  1.
     999900   -1    0    0    0    0 -0.00000000000E+00 -0.00000000000E+00 -0.74505805969E-08  0.93827000000E+00  0.93827000000E+00 0.  1.
     999902    2    1    2    0    0  0.99096018782E-02 -0.57453785326E-02 -0.19545063242E-01  0.10212756609E+01  0.10210243662E+01 0.  0.
     999903    2    3    3    0    0 -0.22718196506E-01  0.69974197177E-03  0.12266395392E+00  0.12923893665E+00  0.33758718371E-01 0.  0.
         14    1    1    2    0    0 -0.99096018782E-02  0.57453785326E-02  0.19545063242E-01  0.22654339121E-01  0.00000000000E+00 0.  1.
     999901    1    3    3    0    0  0.32627798384E-01 -0.64451205044E-02 -0.14220901716E+00  0.89203672423E+00  0.88000000000E+00 0.  1.
        -11    1    4    4    0    0 -0.17818226070E-01 -0.14673388356E-01  0.88355771337E-01  0.91322510673E-01  0.51100000000E-03 0. -1.
         11    1    4    4    0    0 -0.48999704359E-02  0.15373130328E-01  0.34308182579E-01  0.37916425981E-01  0.51100000000E-03 0.  1.
</event>
<event>
 8    1  0.2825007E+004  0.1043930E+01  0.7957747E-01            NaN
         13   -1    0    0    0    0  0.00000000000E+00  0.00000000000E+00  0.74505805969E-08  0.10566000000E+00  0.10566000000E+00 0.  1.
     999900   -1    0    0    0    0 -0.00000000000E+00 -0.00000000000E+00 -0.74505805969E-08  0.93827000000E+00  0.93827000000E+00 0.  1.
     999902    2    1    2    0    0 -0.74852122085E-02 -0.10653819676E-01  0.41819793584E-02  0.10302544296E+01  0.10301636610E+01 0.  0.
     999903    2    3    3    0    0  0.83585937763E-01  0.69409712801E-01 -0.73385549585E-01  0.13855894054E+00  0.44819905100E-01 0.  0.
         14    1    1    2    0    0  0.74852122085E-02  0.10653819676E-01 -0.41819793584E-02  0.13675570440E-01  0.00000000000E+00 0. -1.
     999901    1    3    3    0    0 -0.91071149972E-01 -0.80063532477E-01  0.77567528944E-01  0.89169548902E+00  0.88000000000E+00 0. -1.
        -11    1    4    4    0    0  0.35512107124E-01  0.33147643195E-01 -0.59401788607E-01  0.76737928122E-01  0.51100000000E-03 0. -1.
         11    1    4    4    0    0  0.48073830639E-01  0.36262069606E-01 -0.13983760978E-01  0.61821012419E-01  0.51100000000E-03 0.  1.
</event>
<event>
 8    1  0.2825007E+004  0.1043930E+01  0.7957747E-01            NaN
         13   -1    0    0    0    0  0.00000000000E+00  0.00000000000E+00  0.74505805969E-08  0.10566000000E+00  0.10566000000E+00 0.  1.
     999900   -1    0    0    0    0 -0.00000000000E+00 -0.00000000000E+00 -0.74505805969E-08  0.93827000000E+00  0.93827000000E+00 0. -1.
     999902    2    1    2    0    0  0.17205398010E-01 -0.32844716152E-02  0.38850533079E-02  0.10259882299E+01  0.10258313413E+01 0.  0.
     999903    2    3    3    0    0 -0.67036900453E-01 -0.80787792023E-01  0.73559217137E-01  0.13584328743E+00  0.44964730099E-01 0.  0.
         14    1    1    2    0    0 -0.17205398010E-01  0.32844716152E-02 -0.38850533079E-02  0.17941770082E-01  0.00000000000E+00 0.  1.
     999901    1    3    3    0    0  0.84242298462E-01  0.77503320408E-01 -0.69674163829E-01  0.89014494248E+00  0.88000000000E+00 0. -1.
        -11    1    4    4    0    0 -0.97826780405E-02 -0.20561528825E-01  0.40389207825E-01  0.46368378093E-01  0.51100000000E-03 0. -1.
         11    1    4    4    0    0 -0.57254222412E-01 -0.60226263198E-01  0.33170009312E-01  0.89474909341E-01  0.51100000000E-03 0.  1.
</event>
<event>
 8    1  0.2825007E+004  0.1043930E+01  0.7957747E-01            NaN
         13   -1    0    0    0    0  0.00000000000E+00  0.00000000000E+00  0.74505805969E-08  0.10566000000E+00  0.10566000000E+00 0.  1.
     999900   -1    0    0    0    0 -0.00000000000E+00 -0.00000000000E+00 -0.74505805969E-08  0.93827000000E+00  0.93827000000E+00 0. -1.
     999902    2    1    2    0    0  0.67082995917E-02  0.33793214106E-02 -0.12215220329E-01  0.10295901010E+01  0.10294902347E+01 0.  0.
     999903    2    3    3    0    0  0.43594688471E-01 -0.46379198575E-01 -0.11627573263E+00  0.14129673376E+00  0.48920282597E-01 0.  0.
         14    1    1    2    0    0 -0.67082995917E-02 -0.33793214106E-02  0.12215220329E-01  0.14339899034E-01  0.00000000000E+00 0.  1.
     999901    1    3    3    0    0 -0.36886388879E-01  0.49758519986E-01  0.10406051230E+00  0.88829336720E+00  0.88000000000E+00 0.  1.
        -11    1    4    4    0    0  0.22033421697E-01 -0.71347097329E-02 -0.81126681514E-01  0.84369279534E-01  0.51100000000E-03 0. -1.
         11    1    4    4    0    0  0.21561266774E-01 -0.39244488843E-01 -0.35149051120E-01  0.56927454229E-01  0.51100000000E-03 0.  1.
</event>
<event>
 8    1  0.2825007E+004  0.1043930E+01  0.7957747E-01            NaN
         13   -1    0    0    0    0  0.00000000000E+00  0.00000000000E+00  0.74505805969E-08  0.10566000000E+00  0.10566000000E+00 0.  1.
     999900   -1    0    0    0    0 -0.00000000000E+00 -0.00000000000E+00 -0.74505805969E-08  0.93827000000E+00  0.93827000000E+00 0. -1.
     999902    2    1    2    0    0 -0.17327413054E-02  0.16874116149E-02  0.16821361533E-01  0.10269356493E+01  0.10267950233E+01 0.  0.
     999903    2    3    3    0    0  0.56607056979E-01  0.37202090170E-01  0.11272429707E+00  0.13909433610E+00  0.45300251355E-01 0.  0.
         14    1    1    2    0    0  0.17327413054E-02 -0.16874116149E-02 -0.16821361533E-01  0.16994350656E-01  0.00000000000E+00 0. -1.
     999901    1    3    3    0    0 -0.58339798285E-01 -0.35514678556E-01 -0.95902935535E-01  0.88784131324E+00  0.88000000000E+00 0. -1.
        -11    1    4    4    0    0  0.64846613628E-02 -0.91466259485E-02  0.28796966531E-01  0.30906924816E-01  0.51100000000E-03 0. -1.
         11    1    4    4    0    0  0.50122395616E-01  0.46348716119E-01  0.83927330538E-01  0.10818741128E+00  0.51100000000E-03 0.  1.
</event>
<event>
 8    1  0.2825007E+004  0.1043930E+01  0.7957747E-01            NaN
         13   -1    0    0    0    0  0.00000000000E+00  0.00000000000E+00  0.74505805969E-08  0.10566000000E+00  0.10566000000E+00 0.  1.
     999900   -1    0    0    0    0 -0.00000000000E+00 -0.00000000000E+00 -0.74505805969E-08  0.93827000000E+00  0.93827000000E+00 0. -1.
     999902    2    1    2    0    0  0.35919835353E-02 -0.79134361151E-02  0.10783073515E-01  0.10300808307E+01  0.10299877272E+01 0.  0.
     999903    2    3    3    0    0  0.12199727864E+00 -0.21600779873E-01 -0.48486364111E-01  0.14006958156E+00  0.43802174483E-01 0.  0.
         14    1    1    2    0    0 -0.35919835353E-02  0.79134361151E-02 -0.10783073515E-01  0.13849169336E-01  0.00000000000E+00 0. -1.
     999901    1    3    3    0    0 -0.11840529510E+00  0.13687343758E-01  0.59269437626E-01  0.89001124910E+00  0.88000000000E+00 0.  1.
        -11    1    4    4    0    0  0.70702106260E-01  0.85340027655E-03 -0.84064330554E-02  0.71207059757E-01  0.51100000000E-03 0. -1.
         11    1    4    4    0    0  0.51295172376E-01 -0.22454180149E-01 -0.40079931056E-01  0.68862521808E-01  0.51100000000E-03 0.  1.
</event>
<event>
 8    1  0.2825007E+004  0.1043930E+01  0.7957747E-01            NaN
         13   -1    0    0    0    0  0.00000000000E+00  0.00000000000E+00  0.74505805969E-08  0.10566000000E+00  0.10566000000E+00 0.  1.
     999900   -1    0    0    0    0 -0.00000000000E+00 -0.00000000000E+00 -0.74505805969E-08  0.93827000000E+00  0.93827000000E+00 0.  1.
     999902    2    1    2    0    0  0.23762641836E-02 -0.13750474168E-01  0.16707202226E-02  0.10298760512E+01  0.10297801548E+01 0.  0.
     999903    2    3    3    0    0  0.34298748249E-02 -0.13376170540E+00  0.14014645802E-01  0.14164399917E+00  0.44301854722E-01 0.  0.
         14    1    1    2    0    0 -0.23762641836E-02  0.13750474168E-01 -0.16707202226E-02  0.14053948818E-01  0.00000000000E+00 0.  1.
     999901    1    3    3    0    0 -0.10536106413E-02  0.12001123123E+00 -0.12343925580E-01  0.88823205201E+00  0.88000000000E+00 0. -1.
        -11    1    4    4    0    0  0.10732929376E-01 -0.12220307367E-01 -0.76316794863E-02  0.17973183856E-01  0.51100000000E-03 0.  1.
         11    1    4    4    0    0 -0.73030545514E-02 -0.12154139803E+00  0.21646325289E-01  0.12367081532E+00  0.51100000000E-03 0. -1.
</event>
<event>
 8    1  0.2825007E+004  0.1043930E+01  0.7957747E-01            NaN
         13   -1    0    0    0    0  0.00000000000E+00  0.00000000000E+00  0.74505805969E-08  0.10566000000E+00  0.10566000000E+00 0. -1.
     999900   -1    0    0    0    0 -0.00000000000E+00 -0.00000000000E+00 -0.74505805969E-08  0.93827000000E+00  0.93827000000E+00 0. -1.
     999902    2    1    2    0    0  0.10721434408E-01 -0.60165249134E-03 -0.92049539313E-02  0.10297863683E+01  0.10296892356E+01 0.  0.
     999903    2    3    3    0    0  0.78665803970E-02 -0.11092173873E+00 -0.73200249739E-01  0.14058781367E+00  0.45178994910E-01 0.  0.
         14    1    1    2    0    0 -0.10721434408E-01  0.60165249134E-03  0.92049539313E-02  0.14143631725E-01  0.00000000000E+00 0. -1.
     999901    1    3    3    0    0  0.28548540109E-02  0.11032008624E+00  0.63995295808E-01  0.88919855460E+00  0.88000000000E+00 0.  1.
        -11    1    4    4    0    0 -0.13582465452E-01 -0.15284494204E-01 -0.21876815768E-01  0.29949212343E-01  0.51100000000E-03 0. -1.
         11    1    4    4    0    0  0.21449045849E-01 -0.95637244529E-01 -0.51323433971E-01  0.11063860133E+00  0.51100000000E-03 0.  1.
</event>
<event>
 8    1  0.2825007E+004  0.1043930E+01  0.7957747E-01            NaN
         13   -1    0    0    0    0  0.00000000000E+00  0.00000000000E+00  0.74505805969E-08  0.10566000000E+00  0.10566000000E+00 0.  1.
     999900   -1    0    0    0    0 -0.00000000000E+00 -0.00000000000E+00 -0.74505805969E-08  0.93827000000E+00  0.93827000000E+00 0.  1.
     999902    2    1    2    0    0 -0.11856159391E-01 -0.75595803925E-02  0.15710204650E-01  0.10228462076E+01  0.10226288858E+01 0.  0.
     999903    2    3    3    0    0 -0.42912839547E-01  0.99122638219E-01 -0.61976156160E-01  0.13246382694E+00  0.45153209310E-01 0.  0.
         14    1    1    2    0    0  0.11856159391E-01  0.75595803925E-02 -0.15710204650E-01  0.21083792386E-01  0.00000000000E+00 0. -1.
     999901    1    3    3    0    0  0.31056680156E-01 -0.10668221861E+00  0.77686360810E-01  0.89038238067E+00  0.88000000000E+00 0. -1.
        -11    1    4    4    0    0 -0.49473630826E-01  0.83826996006E-01 -0.40846849962E-01  0.10556198027E+00  0.51100000000E-03 0. -1.
         11    1    4    4    0    0  0.65607912784E-02  0.15295642213E-01 -0.21129306198E-01  0.26901846671E-01  0.51100000000E-03 0.  1.
</event>
<event>
 8    1  0.2825007E+004  0.1043930E+01  0.7957747E-01            NaN
         13   -1    0    0    0    0  0.00000000000E+00  0.00000000000E+00  0.74505805969E-08  0.10566000000E+00  0.10566000000E+00 0. -1.
     999900   -1    0    0    0    0 -0.00000000000E+00 -0.00000000000E+00 -0.74505805969E-08  0.93827000000E+00  0.93827000000E+00 0.  1.
     999902    2    1    2    0    0  0.22915192185E-02 -0.14532941117E-01 -0.33622753278E-02  0.10288382031E+01  0.10287275081E+01 0.  0.
     999903    2    3    3    0    0 -0.95059844542E-02  0.91786416057E-01  0.91865719768E-01  0.13726018754E+00  0.43427395761E-01 0.  0.
         14    1    1    2    0    0 -0.22915192185E-02  0.14532941117E-01  0.33622753278E-02  0.15091796885E-01  0.00000000000E+00 0. -1.
     999901    1    3    3    0    0  0.11797503673E-01 -0.10631935717E+00 -0.95227995095E-01  0.89157801557E+00  0.88000000000E+00 0.  1.
        -11    1    4    4    0    0  0.96083449992E-02  0.77541572352E-01  0.69791615322E-01  0.10476710565E+00  0.51100000000E-03 0. -1.
         11    1    4    4    0    0 -0.19114329453E-01  0.14244843705E-01  0.22074104445E-01  0.32493081890E-01  0.51100000000E-03 0.  1.
</event>
<event>
 8    1  0.2825007E+004  0.1043930E+01  0.7957747E-01            NaN
         13   -1    0    0    0    0  0.00000000000E+00  0.00000000000E+00  0.74505805969E-08  0.10566000000E+00  0.10566000000E+00 0. -1.
     999900   -1    0    0    0    0 -0.00000000000E+00 -0.00000000000E+00 -0.74505805969E-08  0.93827000000E+00  0.93827000000E+00 0. -1.
     999902    2    1    2    0    0  0.11906146209E-01 -0.57301894694E-02 -0.46566023019E-02  0.10299201701E+01  0.10298248790E+01 0.  0.
     999903    2    3    3    0    0  0.10533837549E+00 -0.74092543634E-01  0.37539929453E-01  0.14133503618E+00  0.44502446829E-01 0.  0.
         14    1    1    2    0    0 -0.11906146209E-01  0.57301894694E-02  0.46566023019E-02  0.14009829903E-01  0.00000000000E+00 0.  1.
     999901    1    3    3    0    0 -0.93432229283E-01  0.68362354165E-01 -0.42196531755E-01  0.88858513392E+00  0.88000000000E+00 0.  1.
        -11    1    4    4    0    0  0.36391718801E-01 -0.24084871823E-01  0.35298914698E-01  0.56131210105E-01  0.51100000000E-03 0. -1.
         11    1    4    4    0    0  0.68946656691E-01 -0.50007671811E-01  0.22410147556E-02  0.85203826070E-01  0.51100000000E-03 0.  1.
</event>
<event>
 8    1  0.2825007E+004  0.1043930E+01  0.7957747E-01            NaN
         13   -1    0    0    0    0  0.00000000000E+00  0.00000000000E+00  0.74505805969E-08  0.10566000000E+00  0.10566000000E+00 0.  1.
     999900   -1    0    0    0    0 -0.00000000000E+00 -0.00000000000E+00 -0.74505805969E-08  0.93827000000E+00  0.93827000000E+00 0.  1.
     999902    2    1    2    0    0 -0.79342024145E-02 -0.85308655073E-02 -0.77911936986E-02  0.10299146536E+01  0.10298192870E+01 0.  0.
     999903    2    3    3    0    0  0.41516807980E-01 -0.10373767148E+00 -0.76392306188E-01  0.14074883617E+00  0.38591457705E-01 0.  0.
         14    1    1    2    0    0  0.79342024145E-02  0.85308655073E-02  0.77911936986E-02  0.14015346357E-01  0.00000000000E+00 0.  1.
     999901    1    3    3    0    0 -0.49451010395E-01  0.95206805977E-01  0.68601112489E-01  0.88916581748E+00  0.88000000000E+00 0. -1.
        -11    1    4    4    0    0  0.27348781719E-02 -0.57643260180E-01 -0.32697766302E-01  0.66329707108E-01  0.51100000000E-03 0.  1.
         11    1    4    4    0    0  0.38781929808E-01 -0.46094411304E-01 -0.43694539886E-01  0.74419129059E-01  0.51100000000E-03 0. -1.
</event>
<event>
 8    1  0.2825007E+004  0.1043930E+01  0.7957747E-01            NaN
         13   -1    0    0    0    0  0.00000000000E+00  0.00000000000E+00  0.74505805969E-08  0.10566000000E+00  0.10566000000E+00 0.  1.
     999900   -1    0    0    0    0 -0.00000000000E+00 -0.00000000000E+00 -0.74505805969E-08  0.93827000000E+00  0.93827000000E+00 0.  1.
     999902    2    1    2    0    0  0.12051703245E-02  0.10593670748E-01 -0.91488774246E-02  0.10298807917E+01  0.10297849605E+01 0.  0.
     999903    2    3    3    0    0 -0.13121206025E-02 -0.12908054160E+00  0.22389794581E-01  0.13830358800E+00  0.44306564659E-01 0.  0.
         14    1    1    2    0    0 -0.12051703245E-02 -0.10593670748E-01  0.91488774246E-02  0.14049208289E-01  0.00000000000E+00 0.  1.
     999901    1    3    3    0    0  0.25172909271E-02  0.13967421235E+00 -0.31538672006E-01  0.89157720371E+00  0.88000000000E+00 0. -1.
        -11    1    4    4    0    0 -0.12674421206E-01 -0.11120392497E+00  0.29855707098E-01  0.11583858704E+00  0.51100000000E-03 0.  1.
         11    1    4    4    0    0  0.11362300603E-01 -0.17876616633E-01 -0.74659125168E-02  0.22465000956E-01  0.51100000000E-03 0. -1.
</event>
<event>
 8    1  0.2825007E+004  0.1043930E+01  0.7957747E-01            NaN
         13   -1    0    0    0    0  0.00000000000E+00  0.00000000000E+00  0.74505805969E-08  0.10566000000E+00  0.10566000000E+00 0.  1.
     999900   -1    0    0    0    0 -0.00000000000E+00 -0.00000000000E+00 -0.74505805969E-08  0.93827000000E+00  0.93827000000E+00 0.  1.
     999902    2    1    2    0    0  0.11270175673E-01  0.33432115723E-02 -0.10150172973E-01  0.10283987433E+01  0.10282814572E+01 0.  0.
     999903    2    3    3    0    0  0.87617489071E-01  0.76108717578E-01 -0.65446480249E-01  0.14037767783E+00  0.44196033448E-01 0.  0.
         14    1    1    2    0    0 -0.11270175673E-01 -0.33432115723E-02  0.10150172973E-01  0.15531256700E-01  0.00000000000E+00 0.  1.
     999901    1    3    3    0    0 -0.76347313398E-01 -0.72765506005E-01  0.55296307276E-01  0.88802106547E+00  0.88000000000E+00 0. -1.
        -11    1    4    4    0    0  0.11514590084E-01  0.14597136068E-01 -0.31911513711E-01  0.36935998627E-01  0.51100000000E-03 0.  1.
         11    1    4    4    0    0  0.76102898986E-01  0.61511581509E-01 -0.33534966537E-01  0.10344167920E+00  0.51100000000E-03 0. -1.
</event>
<event>
 8    1  0.2825007E+004  0.1043930E+01  0.7957747E-01            NaN
         13   -1    0    0    0    0  0.00000000000E+00  0.00000000000E+00  0.74505805969E-08  0.10566000000E+00  0.10566000000E+00 0.  1.
     999900   -1    0    0    0    0 -0.00000000000E+00 -0.00000000000E+00 -0.74505805969E-08  0.93827000000E+00  0.93827000000E+00 0.  1.
     999902    2    1    2    0    0  0.50929620600E-02 -0.10759091303E-01  0.41990710011E-02  0.10313074604E+01  0.10312302116E+01 0.  0.
     999903    2    3    3    0    0 -0.10270002855E+00 -0.15368015317E-02  0.85244603007E-01  0.14098574457E+00  0.45394715623E-01 0.  0.
         14    1    1    2    0    0 -0.50929620600E-02  0.10759091303E-01 -0.41990710011E-02  0.12622539581E-01  0.00000000000E+00 0. -1.
     999901    1    3    3    0    0  0.10779299061E+00 -0.92222897712E-02 -0.81045532006E-01  0.89032171585E+00  0.88000000000E+00 0.  1.
        -11    1    4    4    0    0 -0.38591792086E-01 -0.40801535877E-02  0.64005757754E-02  0.39334495814E-01  0.51100000000E-03 0.  1.
         11    1    4    4    0    0 -0.64108236467E-01  0.25433520560E-02  0.78844027231E-01  0.10165124876E+00  0.51100000000E-03 0. -1.
</event>
<event>
 8    1  0.2825007E+004  0.1043930E+01  0.7957747E-01            NaN
         13   -1    0    0    0    0  0.00000000000E+00  0.00000000000E+00  0.74505805969E-08  0.10566000000E+00  0.10566000000E+00 0.  1.
     999900   -1    0    0    0    0 -0.00000000000E+00 -0.00000000000E+00 -0.74505805969E-08  0.93827000000E+00  0.93827000000E+00 0.  1.
     999902    2    1    2    0    0 -0.45604613801E-02 -0.59687000683E-02 -0.12600142462E-01  0.10292607540E+01  0.10291562141E+01 0.  0.
     999903    2    3    3    0    0 -0.72748482447E-01  0.59315012648E-01 -0.94232846405E-01  0.14045511285E+00  0.45135318328E-01 0.  0.
         14    1    1    2    0    0  0.45604613801E-02  0.59687000683E-02  0.12600142462E-01  0.14669246012E-01  0.00000000000E+00 0.  1.
     999901    1    3    3    0    0  0.68188021067E-01 -0.65283712716E-01  0.81632703943E-01  0.88880564114E+00  0.88000000000E+00 0. -1.
        -11    1    4    4    0    0 -0.27340335855E-01  0.47705714834E-01 -0.65320945527E-01  0.85383934309E-01  0.51100000000E-03 0. -1.
         11    1    4    4    0    0 -0.45408146592E-01  0.11609297814E-01 -0.28911900878E-01  0.55071178542E-01  0.51100000000E-03 0.  1.
</event>
<event>
 8    1  0.2825007E+004  0.1043930E+01  0.7957747E-01            NaN
         13   -1    0    0    0    0  0.00000000000E+00  0.00000000000E+00  0.74505805969E-08  0.10566000000E+00  0.10566000000E+00 0. -1.
     999900   -1    0    0    0    0 -0.00000000000E+00 -0.00000000000E+00 -0.74505805969E-08  0.93827000000E+00  0.93827000000E+00 0. -1.
     999902    2    1    2    0    0 -0.90521370821E-02 -0.16604245892E-01 -0.36462464033E-02  0.10246702679E+01  0.10244892487E+01 0.  0.
     999903    2    3    3    0    0  0.11470913545E+00 -0.53533269785E-01  0.13114487263E-01  0.13508523680E+00  0.45299389551E-01 0.  0.
         14    1    1    2    0    0  0.90521370821E-02  0.16604245892E-01  0.36462464033E-02  0.19259732092E-01  0.00000000000E+00 0. -1.
     999901    1    3    3    0    0 -0.12376127254E+00  0.36929023893E-01 -0.16760733667E-01  0.88958503111E+00  0.88000000000E+00 0. -1.
        -11    1    4    4    0    0  0.74808769328E-01 -0.50555657501E-01  0.24361863429E-01  0.93519987086E-01  0.51100000000E-03 0. -1.
         11    1    4    4    0    0  0.39900366126E-01 -0.29776122837E-02 -0.11247376166E-01  0.41565249711E-01  0.51100000000E-03 0.  1.
</event>
<event>
 8    1  0.2825007E+004  0.1043930E+01  0.7957747E-01            NaN
         13   -1    0    0    0    0  0.00000000000E+00  0.00000000000E+00  0.74505805969E-08  0.10566000000E+00  0.10566000000E+00 0.  1.
     999900   -1    0    0    0    0 -0.00000000000E+00 -0.00000000000E+00 -0.74505805969E-08  0.93827000000E+00  0.93827000000E+00 0.  1.
     999902    2    1    2    0    0  0.70740809075E-02 -0.11921342910E-01 -0.22855330313E-02  0.10298806335E+01  0.10297848001E+01 0.  0.
     999903    2    3    3    0    0  0.55493072336E-01 -0.78578423112E-01  0.92750284014E-01  0.14093779418E+00  0.44797287739E-01 0.  0.
         14    1    1    2    0    0 -0.70740809075E-02  0.11921342910E-01  0.22855330313E-02  0.14049366487E-01  0.00000000000E+00 0.  1.
     999901    1    3    3    0    0 -0.48418991428E-01  0.66657080203E-01 -0.95035817045E-01  0.88894283933E+00  0.88000000000E+00 0.  1.
        -11    1    4    4    0    0  0.41738639858E-01 -0.48155283390E-01  0.31297581084E-01  0.70998908994E-01  0.51100000000E-03 0.  1.
         11    1    4    4    0    0  0.13754432478E-01 -0.30423139722E-01  0.61452702929E-01  0.69938885190E-01  0.51100000000E-03 0. -1.
</event>
<event>
 8    1  0.2825007E+004  0.1043930E+01  0.7957747E-01            NaN
         13   -1    0    0    0    0  0.00000000000E+00  0.00000000000E+00  0.74505805969E-08  0.10566000000E+00  0.10566000000E+00 0. -1.
     999900   -1    0    0    0    0 -0.00000000000E+00 -0.00000000000E+00 -0.74505805969E-08  0.93827000000E+00  0.93827000000E+00 0.  1.
     999902    2    1    2    0    0  0.91154907436E-02 -0.12968693033E-01 -0.30878101037E-03  0.10280752053E+01  0.10279529431E+01 0.  0.
     999903    2    3    3    0    0  0.29991160265E-01  0.24719348266E-01 -0.12483465954E+00  0.13826462067E+00  0.44976629866E-01 0.  0.
         14    1    1    2    0    0 -0.91154907436E-02  0.12968693033E-01  0.30878101037E-03  0.15854794739E-01  0.00000000000E+00 0. -1.
     999901    1    3    3    0    0 -0.20875669521E-01 -0.37688041299E-01  0.12452587852E+00  0.88981058459E+00  0.88000000000E+00 0.  1.
        -11    1    4    4    0    0  0.35998631293E-01  0.53133583326E-02 -0.98454354651E-01  0.10496501466E+00  0.51100000000E-03 0. -1.
         11    1    4    4    0    0 -0.60074710282E-02  0.19405989933E-01 -0.26380304885E-01  0.33299606007E-01  0.51100000000E-03 0.  1.
</event>
<event>
 8    1  0.2825007E+004  0.1043930E+01  0.7957747E-01            NaN
         13   -1    0    0    0    0  0.00000000000E+00  0.00000000000E+00  0.74505805969E-08  0.10566000000E+00  0.10566000000E+00 0. -1.
     999900   -1    0    0    0    0 -0.00000000000E+00 -0.00000000000E+00 -0.74505805969E-08  0.93827000000E+00  0.93827000000E+00 0.  1.
     999902    2    1    2    0    0 -0.90188024929E-03  0.31934473320E-02 -0.34116304133E-02  0.10391707232E+01  0.10391598247E+01 0.  0.
     999903    2    3    3    0    0  0.13115414674E+00 -0.27512870926E-01  0.42664077011E-01  0.14759647329E+00  0.44789811174E-01 0.  0.
         14    1    1    2    0    0  0.90188024929E-03 -0.31934473320E-02  0.34116304133E-02  0.47592768277E-02  0.00000000000E+00 0. -1.
     999901    1    3    3    0    0 -0.13205602699E+00  0.30706318258E-01 -0.46075707424E-01  0.89157424989E+00  0.88000000000E+00 0.  1.
        -11    1    4    4    0    0  0.12414002716E+00 -0.12567144735E-01  0.37959873227E-01  0.13042197885E+00  0.51100000000E-03 0. -1.
         11    1    4    4    0    0  0.70141195779E-02 -0.14945726191E-01  0.47042037845E-02  0.17174494435E-01  0.51100000000E-03 0.  1.
</event>
<event>
 8    1  0.2825007E+004  0.1043930E+01  0.7957747E-01            NaN
         13   -1    0    0    0    0  0.00000000000E+00  0.00000000000E+00  0.74505805969E-08  0.10566000000E+00  0.10566000000E+00 0. -1.
     999900   -1    0    0    0    0 -0.00000000000E+00 -0.00000000000E+00 -0.74505805969E-08  0.93827000000E+00  0.93827000000E+00 0. -1.
     999902    2    1    2    0    0  0.76694312323E-02 -0.92376367282E-02  0.64958275785E-02  0.10302789970E+01  0.10301885564E+01 0.  0.
     999903    2    3    3    0    0 -0.66254572846E-01  0.86805471493E-01 -0.72617766588E-01  0.13845614584E+00  0.44406148145E-01 0.  0.
         14    1    1    2    0    0 -0.76694312323E-02  0.92376367282E-02 -0.64958275785E-02  0.13651003028E-01  0.00000000000E+00 0. -1.
     999901    1    3    3    0    0  0.73924004078E-01 -0.96043108221E-01  0.79113594166E-01  0.89182285113E+00  0.88000000000E+00 0.  1.
        -11    1    4    4    0    0  0.53867281879E-02  0.83336082391E-02 -0.13803803808E-01  0.17007997749E-01  0.51100000000E-03 0. -1.
         11    1    4    4    0    0 -0.71641301034E-01  0.78471863254E-01 -0.58813962780E-01  0.12144814809E+00  0.51100000000E-03 0.  1.
</event>
<event>
 8    1  0.2825007E+004  0.1043930E+01  0.7957747E-01            NaN
         13   -1    0    0    0    0  0.00000000000E+00  0.00000000000E+00  0.74505805969E-08  0.10566000000E+00  0.10566000000E+00 0.  1.
     999900   -1    0    0    0    0 -0.00000000000E+00 -0.00000000000E+00 -0.74505805969E-08  0.93827000000E+00  0.93827000000E+00 0. -1.
     999902    2    1    2    0    0 -0.82121604826E-03  0.11341246895E-01  0.69446022094E-02  0.10306061201E+01  0.10305199896E+01 0.  0.
     999903    2    3    3    0    0 -0.48814926679E-01 -0.10931050404E+00 -0.54144377743E-01  0.13898282250E+00  0.45309247940E-01 0.  0.
         14    1    1    2    0    0  0.82121604826E-03 -0.11341246895E-01 -0.69446022094E-02  0.13323879945E-01  0.00000000000E+00 0. -1.
     999901    1    3    3    0    0  0.47993710630E-01  0.12065175094E+00  0.61088979952E-01  0.89162329755E+00  0.88000000000E+00 0.  1.
        -11    1    4    4    0    0  0.66621057691E-02 -0.21444174053E-01 -0.15470612792E-02  0.22514234912E-01  0.51100000000E-03 0.  1.
         11    1    4    4    0    0 -0.55477032448E-01 -0.87866329992E-01 -0.52597316463E-01  0.11646858759E+00  0.51100000000E-03 0. -1.
</event>
<event>
 8    1  0.2825007E+004  0.1043930E+01  0.7957747E-01            NaN
         13   -1    0    0    0    0  0.00000000000E+00  0.00000000000E+00  0.74505805969E-08  0.10566000000E+00  0.10566000000E+00 0. -1.
     999900   -1    0    0    0    0 -0.00000000000E+00 -0.00000000000E+00 -0.74505805969E-08  0.93827000000E+00  0.93827000000E+00 0. -1.
     999902    2    1    2    0    0 -0.45096261452E-02 -0.31477062224E-03  0.12898437837E-01  0.10302623189E+01  0.10301716557E+01 0.  0.
     999903    2    3    3    0    0 -0.61779836973E-01 -0.96445375580E-01 -0.66657261400E-01  0.13961644114E+00  0.43944298970E-01 0.  0.
         14    1    1    2    0    0  0.45096261452E-02  0.31477062224E-03 -0.12898437837E-01  0.13667681118E-01  0.00000000000E+00 0.  1.
     999901    1    3    3    0    0  0.57270210828E-01  0.96130604958E-01  0.79555699237E-01  0.89064587774E+00  0.88000000000E+00 0.  1.
        -11    1    4    4    0    0 -0.65845828997E-02 -0.16875680297E-01 -0.31973607329E-01  0.36752115640E-01  0.51100000000E-03 0.  1.
         11    1    4    4    0    0 -0.55195254073E-01 -0.79569695284E-01 -0.34683654071E-01  0.10286432550E+00  0.51100000000E-03 0. -1.
</event>
<event>
 8    1  0.2825007E+004  0.1043930E+01  0.7957747E-01            NaN
         13   -1    0    0    0    0  0.00000000000E+00  0.00000000000E+00  0.74505805969E-08  0.10566000000E+00  0.10566000000E+00 0.  1.
     999900   -1    0    0    0    0 -0.00000000000E+00 -0.00000000000E+00 -0.74505805969E-08  0.93827000000E+00  0.93827000000E+00 0.  1.
     999902    2    1    2    0    0 -0.39007558240E-02  0.75711678332E-02  0.11091616033E-01  0.10299456364E+01  0.10298506938E+01 0.  0.
     999903    2    3    3    0    0  0.21448750957E-01  0.93453882117E-01 -0.90793886748E-01  0.13955297373E+00  0.45142281790E-01 0.  0.
         14    1    1    2    0    0  0.39007558240E-02 -0.75711678332E-02 -0.11091616033E-01  0.13984363575E-01  0.00000000000E+00 0. -1.
     999901    1    3    3    0    0 -0.25349506781E-01 -0.85882714284E-01  0.10188550278E+00  0.89039266270E+00  0.88000000000E+00 0. -1.
        -11    1    4    4    0    0  0.22328374794E-01  0.78439872703E-01 -0.49030257800E-01  0.95160901906E-01  0.51100000000E-03 0. -1.
         11    1    4    4    0    0 -0.87962383638E-03  0.15014009414E-01 -0.41763628948E-01  0.44392071823E-01  0.51100000000E-03 0.  1.
</event>
<event>
 8    1  0.2825007E+004  0.1043930E+01  0.7957747E-01            NaN
         13   -1    0    0    0    0  0.00000000000E+00  0.00000000000E+00  0.74505805969E-08  0.10566000000E+00  0.10566000000E+00 0. -1.
     999900   -1    0    0    0    0 -0.00000000000E+00 -0.00000000000E+00 -0.74505805969E-08  0.93827000000E+00  0.93827000000E+00 0. -1.
     999902    2    1    2    0    0  0.55432968974E-02 -0.13332343733E-01  0.38017220241E-02  0.10289990717E+01  0.10288907410E+01 0.  0.
     999903    2    3    3    0    0  0.12812492801E+00  0.20639884976E-02  0.34211352433E-01  0.13984888811E+00  0.44351298114E-01 0.  0.
         14    1    1    2    0    0 -0.55432968974E-02  0.13332343733E-01 -0.38017220241E-02  0.14930928312E-01  0.00000000000E+00 0.  1.
     999901    1    3    3    0    0 -0.12258163111E+00 -0.15396332230E-01 -0.30409630409E-01  0.88915018358E+00  0.88000000000E+00 0.  1.
        -11    1    4    4    0    0  0.61700472902E-01  0.11187015181E-03 -0.62932290032E-02  0.62022791968E-01  0.51100000000E-03 0. -1.
         11    1    4    4    0    0  0.66424455109E-01  0.19521183458E-02  0.40504581436E-01  0.77826096143E-01  0.51100000000E-03 0.  1.
</event>
<event>
 8    1  0.2825007E+004  0.1043930E+01  0.7957747E-01            NaN
         13   -1    0    0    0    0  0.00000000000E+00  0.00000000000E+00  0.74505805969E-08  0.10566000000E+00  0.10566000000E+00 0. -1.
     999900   -1    0    0    0    0 -0.00000000000E+00 -0.00000000000E+00 -0.74505805969E-08  0.93827000000E+00  0.93827000000E+00 0.  1.
     999902    2    1    2    0    0  0.11484048737E-01 -0.35244156062E-02 -0.61012785103E-02  0.10304566752E+01  0.10303685889E+01 0.  0.
     999903    2    3    3    0    0 -0.76770021600E-01  0.10264511851E+00  0.29366834645E-01  0.13898668810E+00  0.45002576836E-01 0.  0.
         14    1    1    2    0    0 -0.11484048737E-01  0.35244156062E-02  0.61012785103E-02  0.13473324765E-01  0.00000000000E+00 0. -1.
     999901    1    3    3    0    0  0.88254070337E-01 -0.10616953412E+00 -0.35468113155E-01  0.89146998713E+00  0.88000000000E+00 0.  1.
        -11    1    4    4    0    0 -0.61765410870E-01  0.73284051738E-01  0.40686774643E-01  0.10412104961E+00  0.51100000000E-03 0. -1.
         11    1    4    4    0    0 -0.15004610729E-01  0.29361066775E-01 -0.11319939998E-01  0.34865638498E-01  0.51100000000E-03 0.  1.
</event>
<event>
 8    1  0.2825007E+004  0.1043930E+01  0.7957747E-01            NaN
         13   -1    0    0    0    0  0.00000000000E+00  0.00000000000E+00  0.74505805969E-08  0.10566000000E+00  0.10566000000E+00 0.  1.
     999900   -1    0    0    0    0 -0.00000000000E+00 -0.00000000000E+00 -0.74505805969E-08  0.93827000000E+00  0.93827000000E+00 0.  1.
     999902    2    1    2    0    0  0.12214476733E-01 -0.47743832586E-02  0.22985320333E-02  0.10306156684E+01  0.10305296621E+01 0.  0.
     999903    2    3    3    0    0  0.99518386543E-01 -0.87750363548E-01  0.24258652972E-01  0.14213987641E+00  0.44846701775E-01 0.  0.
         14    1    1    2    0    0 -0.12214476733E-01  0.47743832586E-02 -0.22985320333E-02  0.13314331634E-01  0.00000000000E+00 0.  1.
     999901    1    3    3    0    0 -0.87303909810E-01  0.82975980289E-01 -0.21960120938E-01  0.88847579195E+00  0.88000000000E+00 0.  1.
        -11    1    4    4    0    0  0.76682152574E-01 -0.64214489589E-01 -0.21328826354E-02  0.10004230858E+00  0.51100000000E-03 0. -1.
         11    1    4    4    0    0  0.22836233969E-01 -0.23535873959E-01  0.26391535607E-01  0.42097567835E-01  0.51100000000E-03 0.  1.
</event>
<event>
 8    1  0.2825007E+004  0.1043930E+01  0.7957747E-01            NaN
         13   -1    0    0    0    0  0.00000000000E+00  0.00000000000E+00  0.74505805969E-08  0.10566000000E+00  0.10566000000E+00 0.  1.
     999900   -1    0    0    0    0 -0.00000000000E+00 -0.00000000000E+00 -0.74505805969E-08  0.93827000000E+00  0.93827000000E+00 0.  1.
     999902    2    1    2    0    0 -0.35221819927E-02 -0.61403191520E-02  0.10790169680E-01  0.10310250766E+01  0.10309443106E+01 0.  0.
     999903    2    3    3    0    0  0.20440124241E-01 -0.60089368551E-01  0.11921224909E+00  0.14240815166E+00  0.45166253275E-01 0.  0.
         14    1    1    2    0    0  0.35221819927E-02  0.61403191520E-02 -0.10790169680E-01  0.12904923363E-01  0.00000000000E+00 0. -1.
     999901    1    3    3    0    0 -0.23962306234E-01  0.53949049399E-01 -0.10842207941E+00  0.88861692498E+00  0.88000000000E+00 0.  1.
        -11    1    4    4    0    0  0.17385782241E-01 -0.53741411077E-01  0.58622095532E-01  0.81407713973E-01  0.51100000000E-03 0.  1.
         11    1    4    4    0    0  0.30543419995E-02 -0.63479574738E-02  0.60590153556E-01  0.61000437688E-01  0.51100000000E-03 0. -1.
</event>
<event>
 8    1  0.2825007E+004  0.1043930E+01  0.7957747E-01            NaN
         13   -1    0    0    0    0  0.00000000000E+00  0.00000000000E+00  0.74505805969E-08  0.10566000000E+00  0.10566000000E+00 0. -1.
     999900   -1    0    0    0    0 -0.00000000000E+00 -0.00000000000E+00 -0.74505805969E-08  0.93827000000E+00  0.93827000000E+00 0. -1.
     999902    2    1    2    0    0  0.53611457174E-02 -0.84561590989E-02  0.89488316073E-02  0.10305012958E+01  0.10304137958E+01 0.  0.
     999903    2    3    3    0    0  0.31585602104E-01  0.39352107050E-01 -0.12183625629E+00  0.13916629049E+00  0.44462843735E-01 0.  0.
         14    1    1    2    0    0 -0.53611457174E-02  0.84561590989E-02 -0.89488316073E-02  0.13428704228E-01  0.00000000000E+00 0.  1.
     999901    1    3    3    0    0 -0.26224456387E-01 -0.47808266148E-01  0.13078508790E+00  0.89133500528E+00  0.88000000000E+00 0.  1.
        -11    1    4    4    0    0  0.33670504194E-01  0.18738873180E-01 -0.10686064202E+00  0.11359712212E+00  0.51100000000E-03 0. -1.
         11    1    4    4    0    0 -0.20849020902E-02  0.20613233870E-01 -0.14975614270E-01  0.25569168369E-01  0.51100000000E-03 0.  1.
</event>
<event>
 8    1  0.2825007E+004  0.1043930E+01  0.7957747E-01            NaN
         13   -1    0    0    0    0  0.00000000000E+00  0.00000000000E+00  0.74505805969E-08  0.10566000000E+00  0.10566000000E+00 0.  1.
     999900   -1    0    0    0    0 -0.00000000000E+00 -0.00000000000E+00 -0.74505805969E-08  0.93827000000E+00  0.93827000000E+00 0.  1.
     999902    2    1    2    0    0 -0.11317260402E-01 -0.86938794391E-02 -0.26351119743E-03  0.10296564804E+01  0.10295575430E+01 0.  0.
     999903    2    3    3    0    0  0.40339069813E-02 -0.64446385975E-01  0.11591705501E+00  0.14013867606E+00  0.45082988102E-01 0.  0.
         14    1    1    2    0    0  0.11317260402E-01  0.86938794391E-02  0.26351119743E-03  0.14273519568E-01  0.00000000000E+00 0.  1.
     999901    1    3    3    0    0 -0.15351167383E-01  0.55752506536E-01 -0.11618056621E+00  0.88951780437E+00  0.88000000000E+00 0. -1.
        -11    1    4    4    0    0  0.57168966547E-02 -0.31394159806E-01  0.17699557800E-01  0.36493994638E-01  0.51100000000E-03 0.  1.
         11    1    4    4    0    0 -0.16829896734E-02 -0.33052226168E-01  0.98217497208E-01  0.10364468143E+00  0.51100000000E-03 0. -1.
</event>
<event>
 8    1  0.2825007E+004  0.1043930E+01  0.7957747E-01            NaN
         13   -1    0    0    0    0  0.00000000000E+00  0.00000000000E+00  0.74505805969E-08  0.10566000000E+00  0.10566000000E+00 0. -1.
     999900   -1    0    0    0    0 -0.00000000000E+00 -0.00000000000E+00 -0.74505805969E-08  0.93827000000E+00  0.93827000000E+00 0.  1.
     999902    2    1    2    0    0 -0.23457767609E-01 -0.86076331829E-02  0.11912694036E-01  0.10162484088E+01  0.10158713294E+01 0.  0.
     999903    2    3    3    0    0  0.33012276047E-01 -0.36173072068E-01 -0.10730582305E+00  0.12598902300E+00  0.44276322618E-01 0.  0.
         14    1    1    2    0    0  0.23457767609E-01  0.86076331829E-02 -0.11912694036E-01  0.27681591165E-01  0.00000000000E+00 0. -1.
     999901    1    3    3    0    0 -0.56470043656E-01  0.27565438886E-01  0.11921851708E+00  0.89025938583E+00  0.88000000000E+00 0. -1.
        -11    1    4    4    0    0 -0.73591040823E-02 -0.19775966532E-01 -0.47618319936E-01  0.52086570052E-01  0.51100000000E-03 0. -1.
         11    1    4    4    0    0  0.40371380129E-01 -0.16397105536E-01 -0.59687503109E-01  0.73902452949E-01  0.51100000000E-03 0.  1.
</event>
<event>
 8    1  0.2825007E+004  0.1043930E+01  0.7957747E-01            NaN
         13   -1    0    0    0    0  0.00000000000E+00  0.00000000000E+00  0.74505805969E-08  0.10566000000E+00  0.10566000000E+00 0.  1.
     999900   -1    0    0    0    0 -0.00000000000E+00 -0.00000000000E+00 -0.74505805969E-08  0.93827000000E+00  0.93827000000E+00 0.  1.
     999902    2    1    2    0    0  0.16906905806E-02  0.62990600256E-02 -0.11872138988E-01  0.10303843632E+01  0.10302953226E+01 0.  0.
     999903    2    3    3    0    0 -0.76740774587E-01  0.10882951192E+00 -0.26973250694E-01  0.14083839370E+00  0.37079478679E-01 0.  0.
         14    1    1    2    0    0 -0.16906905806E-02 -0.62990600256E-02  0.11872138988E-01  0.13545636788E-01  0.00000000000E+00 0.  1.
     999901    1    3    3    0    0  0.78431465167E-01 -0.10253045189E+00  0.15101111706E-01  0.88954596951E+00  0.88000000000E+00 0.  1.
        -11    1    4    4    0    0 -0.58849120891E-01  0.89102170726E-01 -0.60292093724E-02  0.10695339333E+00  0.51100000000E-03 0. -1.
         11    1    4    4    0    0 -0.17891653696E-01  0.19727341193E-01 -0.20944041322E-01  0.33885000375E-01  0.51100000000E-03 0.  1.
</event>
<event>
 8    1  0.2825007E+004  0.1043930E+01  0.7957747E-01            NaN
         13   -1    0    0    0    0  0.00000000000E+00  0.00000000000E+00  0.74505805969E-08  0.10566000000E+00  0.10566000000E+00 0.  1.
     999900   -1    0    0    0    0 -0.00000000000E+00 -0.00000000000E+00 -0.74505805969E-08  0.93827000000E+00  0.93827000000E+00 0.  1.
     999902    2    1    2    0    0 -0.90486195613E-02 -0.65702896620E-02 -0.90236319824E-02  0.10295608610E+01  0.10294605841E+01 0.  0.
     999903    2    3    3    0    0  0.88924660339E-01 -0.39256926159E-01 -0.85838853837E-01  0.14019717941E+00  0.53275123820E-01 0.  0.
         14    1    1    2    0    0  0.90486195613E-02  0.65702896620E-02  0.90236319824E-02  0.14369139026E-01  0.00000000000E+00 0.  1.
     999901    1    3    3    0    0 -0.97973279900E-01  0.32686636497E-01  0.76815221854E-01  0.88936368157E+00  0.88000000000E+00 0.  1.
        -11    1    4    4    0    0  0.14430071814E-01 -0.31622769231E-01 -0.17975632060E-01  0.39135801708E-01  0.51100000000E-03 0.  1.
         11    1    4    4    0    0  0.74494588525E-01 -0.76341569272E-02 -0.67863221777E-01  0.10106137770E+00  0.51100000000E-03 0. -1.
</event>
<event>
 8    1  0.2825007E+004  0.1043930E+01  0.7957747E-01            NaN
         13   -1    0    0    0    0  0.00000000000E+00  0.00000000000E+00  0.74505805969E-08  0.10566000000E+00  0.10566000000E+00 0.  1.
     999900   -1    0    0    0    0 -0.00000000000E+00 -0.00000000000E+00 -0.74505805969E-08  0.93827000000E+00  0.93827000000E+00 0. -1.
     999902    2    1    2    0    0 -0.35149234086E-02 -0.12969954817E-01  0.38776185696E-02  0.10299439233E+01  0.10298489573E+01 0.  0.
     999903    2    3    3    0    0  0.14072744797E-01 -0.73476693007E-01  0.11063723460E+00  0.14125499742E+00  0.45994674218E-01 0.  0.
         14    1    1    2    0    0  0.35149234086E-02  0.12969954817E-01 -0.38776185696E-02  0.13986076658E-01  0.00000000000E+00 0. -1.
     999901    1    3    3    0    0 -0.17587668206E-01  0.60506738190E-01 -0.10675961603E+00  0.88868892592E+00  0.88000000000E+00 0.  1.
        -11    1    4    4    0    0  0.14477078879E-01 -0.20762600540E-01  0.70763035163E-01  0.75155436666E-01  0.51100000000E-03 0. -1.
         11    1    4    4    0    0 -0.40433408155E-03 -0.52714092467E-01  0.39874199432E-01  0.66099560755E-01  0.51100000000E-03 0.  1.
</event>
<event>
 8    1  0.2825007E+004  0.1043930E+01  0.7957747E-01            NaN
         13   -1    0    0    0    0  0.00000000000E+00  0.00000000000E+00  0.74505805969E-08  0.10566000000E+00  0.10566000000E+00 0. -1.
     999900   -1    0    0    0    0 -0.00000000000E+00 -0.00000000000E+00 -0.74505805969E-08  0.93827000000E+00  0.93827000000E+00 0.  1.
     999902    2    1    2    0    0  0.15457114925E-01 -0.93813818014E-02 -0.34317525966E-03  0.10258454625E+01  0.10256860448E+01 0.  0.
     999903    2    3    3    0    0 -0.75953638874E-01 -0.48974166365E-01  0.89591805724E-01  0.13567030263E+00  0.47035254151E-01 0.  0.
         14    1    1    2    0    0 -0.15457114925E-01  0.93813818014E-02  0.34317525966E-03  0.18084537472E-01  0.00000000000E+00 0. -1.
     999901    1    3    3    0    0  0.91410753798E-01  0.39592784563E-01 -0.89934980983E-01  0.89017515990E+00  0.88000000000E+00 0.  1.
        -11    1    4    4    0    0 -0.47729502249E-01 -0.16013052407E-01  0.21104044447E-01  0.54590887933E-01  0.51100000000E-03 0. -1.
         11    1    4    4    0    0 -0.28224136625E-01 -0.32961113957E-01  0.68487761277E-01  0.81079414695E-01  0.51100000000E-03 0.  1.
</event>
<event>
 8    1  0.2825007E+004  0.1043930E+01  0.7957747E-01            NaN
         13   -1    0    0    0    0  0.00000000000E+00  0.00000000000E+00  0.74505805969E-08  0.10566000000E+00  0.10566000000E+00 0. -1.
     999900   -1    0    0    0    0 -0.00000000000E+00 -0.00000000000E+00 -0.74505805969E-08  0.93827000000E+00  0.93827000000E+00 0. -1.
     999902    2    1    2    0    0  0.21462505443E-02  0.12423601692E-01 -0.58196035952E-02  0.10300440338E+01  0.10299504316E+01 0.  0.
     999903    2    3    3    0    0 -0.70048977516E-01  0.10827993631E+00  0.35200375446E-01  0.14095279750E+00  0.44690276722E-01 0.  0.
         14    1    1    2    0    0 -0.21462505443E-02 -0.12423601692E-01  0.58196035952E-02  0.13885966168E-01  0.00000000000E+00 0.  1.
     999901    1    3    3    0    0  0.72195228060E-01 -0.95856334618E-01 -0.41019979041E-01  0.88909123633E+00  0.88000000000E+00 0. -1.
        -11    1    4    4    0    0 -0.79618607688E-02  0.45173279995E-01  0.52787668504E-03  0.45875442528E-01  0.51100000000E-03 0. -1.
         11    1    4    4    0    0 -0.62087116747E-01  0.63106656315E-01  0.34672498761E-01  0.95077354972E-01  0.51100000000E-03 0.  1.
</event>
<event>
 8    1  0.2825007E+004  0.1043930E+01  0.7957747E-01            NaN
         13   -1    0    0    0    0  0.00000000000E+00  0.00000000000E+00  0.74505805969E-08  0.10566000000E+00  0.10566000000E+00 0. -1.
     999900   -1    0    0    0    0 -0.00000000000E+00 -0.00000000000E+00 -0.74505805969E-08  0.93827000000E+00  0.93827000000E+00 0.  1.
     999902    2    1    2    0    0 -0.72774948727E-02 -0.30812758472E-02  0.11237904597E-01  0.10301914887E+01  0.10300998771E+01 0.  0.
     999903    2    3    3    0    0 -0.25599453640E-01  0.10088124844E+00  0.84651015454E-01  0.14084713164E+00  0.42892444080E-01 0.  0.
         14    1    1    2    0    0  0.72774948727E-02  0.30812758472E-02 -0.11237904597E-01  0.13738511280E-01  0.00000000000E+00 0.  1.
     999901    1    3    3    0    0  0.18321958767E-01 -0.10396252429E+00 -0.73413110858E-01  0.88934435708E+00  0.88000000000E+00 0.  1.
        -11    1    4    4    0    0 -0.22884629210E-01  0.80946092478E-01  0.86472968353E-01  0.12063917904E+00  0.51100000000E-03 0.  1.
         11    1    4    4    0    0 -0.27148244295E-02  0.19935155963E-01 -0.18219528990E-02  0.20207952601E-01  0.51100000000E-03 0. -1.
</event>
<event>
 8    1  0.2825007E+004  0.1043930E+01  0.7957747E-01            NaN
         13   -1    0    0    0    0  0.00000000000E+00  0.00000000000E+00  0.74505805969E-08  0.10566000000E+00  0.10566000000E+00 0.  1.
     999900   -1    0    0    0    0 -0.00000000000E+00 -0.00000000000E+00 -0.74505805969E-08  0.93827000000E+00  0.93827000000E+00 0. -1.
     999902    2    1    2    0    0  0.27571010905E-02  0.79898351289E-02  0.11061975292E-01  0.10300085644E+01  0.10299144801E+01 0.  0.
     999903    2    3    3    0    0 -0.10578847820E+00  0.17517726509E-01  0.79026283659E-01  0.14068743527E+00  0.45273922659E-01 0.  0.
         14    1    1    2    0    0 -0.27571010905E-02 -0.79898351289E-02 -0.11061975292E-01  0.13921435600E-01  0.00000000000E+00 0. -1.
     999901    1    3    3    0    0  0.10854557929E+00 -0.95278913806E-02 -0.67964308367E-01  0.88932112913E+00  0.88000000000E+00 0. -1.
        -11    1    4    4    0    0 -0.65040128414E-01  0.30971355710E-01  0.59959644347E-01  0.93727601324E-01  0.51100000000E-03 0. -1.
         11    1    4    4    0    0 -0.40748349787E-01 -0.13453629200E-01  0.19066639312E-01  0.46959833950E-01  0.51100000000E-03 0.  1.
</event>
<event>
 8    1  0.2825007E+004  0.1043930E+01  0.7957747E-01            NaN
         13   -1    0    0    0    0  0.00000000000E+00  0.00000000000E+00  0.74505805969E-08  0.10566000000E+00  0.10566000000E+00 0. -1.
     999900   -1    0    0    0    0 -0.00000000000E+00 -0.00000000000E+00 -0.74505805969E-08  0.93827000000E+00  0.93827000000E+00 0.  1.
     999902    2    1    2    0    0  0.83269732799E-03  0.17763565564E-02 -0.13915374865E-01  0.10298770115E+01  0.10297811284E+01 0.  0.
     999903    2    3    3    0    0  0.67334934383E-01  0.54740546880E-02  0.11195701395E+00  0.13842870749E+00  0.45433197353E-01 0.  0.
         14    1    1    2    0    0 -0.83269732799E-03 -0.17763565564E-02  0.13915374865E-01  0.14052988476E-01  0.00000000000E+00 0. -1.
     999901    1    3    3    0    0 -0.66502237055E-01 -0.36976981316E-02 -0.12587238881E+00  0.89144830404E+00  0.88000000000E+00 0.  1.
        -11    1    4    4    0    0  0.53215174781E-01 -0.80751844629E-02  0.10437280292E+00  0.11743511631E+00  0.51100000000E-03 0.  1.
         11    1    4    4    0    0  0.14119759602E-01  0.13549239151E-01  0.75842110235E-02  0.20993591180E-01  0.51100000000E-03 0. -1.
</event>
<event>
 8    1  0.2825007E+004  0.1043930E+01  0.7957747E-01            NaN
         13   -1    0    0    0    0  0.00000000000E+00  0.00000000000E+00  0.74505805969E-08  0.10566000000E+00  0.10566000000E+00 0. -1.
     999900   -1    0    0    0    0 -0.00000000000E+00 -0.00000000000E+00 -0.74505805969E-08  0.93827000000E+00  0.93827000000E+00 0. -1.
     999902    2    1    2    0    0  0.30272376120E-02  0.13803094606E-01  0.10666226454E-02  0.10297586461E+01  0.10296611296E+01 0.  0.
     999903    2    3    3    0    0  0.24238678791E-01  0.33370042656E-01  0.12530020177E+00  0.14056419441E+00  0.48549756823E-01 0.  0.
         14    1    1    2    0    0 -0.30272376120E-02 -0.13803094606E-01 -0.10666226454E-02  0.14171353927E-01  0.00000000000E+00 0.  1.
     999901    1    3    3    0    0 -0.21211441179E-01 -0.19566948050E-01 -0.12423357913E+00  0.88919445167E+00  0.88000000000E+00 0. -1.
        -11    1    4    4    0    0  0.17709800140E-01  0.43659659433E-01  0.73185606483E-01  0.87041352241E-01  0.51100000000E-03 0. -1.
         11    1    4    4    0    0  0.65288786515E-02 -0.10289616777E-01  0.52114595292E-01  0.53522842164E-01  0.51100000000E-03 0.  1.
</event>
<event>
 8    1  0.2825007E+004  0.1043930E+01  0.7957747E-01            NaN
         13   -1    0    0    0    0  0.00000000000E+00  0.00000000000E+00  0.74505805969E-08  0.10566000000E+00  0.10566000000E+00 0. -1.
     999900   -1    0    0    0    0 -0.00000000000E+00 -0.00000000000E+00 -0.74505805969E-08  0.93827000000E+00  0.93827000000E+00 0. -1.
     999902    2    1    2    0    0  0.64525408439E-02  0.11512364375E-01 -0.78715514020E-03  0.10307092046E+01  0.10306244103E+01 0.  0.
     999903    2    3    3    0    0  0.81622454959E-01  0.69018180082E-02 -0.10572129115E+00  0.14128076680E+00  0.45534639793E-01 0.  0.
         14    1    1    2    0    0 -0.64525408439E-02 -0.11512364375E-01  0.78715514020E-03  0.13220795364E-01  0.00000000000E+00 0.  1.
     999901    1    3    3    0    0 -0.75169914115E-01  0.46105463670E-02  0.10493413601E+00  0.88942843783E+00  0.88000000000E+00 0.  1.
        -11    1    4    4    0    0 -0.39887057828E-02 -0.50603855438E-02 -0.12973070301E-01  0.14494100514E-01  0.51100000000E-03 0.  1.
         11    1    4    4    0    0  0.85611160742E-01  0.11962203552E-01 -0.92748220847E-01  0.12678666629E+00  0.51100000000E-03 0. -1.
</event>
<event>
 8    1  0.2825007E+004  0.1043930E+01  0.7957747E-01            NaN
         13   -1    0    0    0    0  0.00000000000E+00  0.00000000000E+00  0.74505805969E-08  0.10566000000E+00  0.10566000000E+00 0. -1.
     999900   -1    0    0    0    0 -0.00000000000E+00 -0.00000000000E+00 -0.74505805969E-08  0.93827000000E+00  0.93827000000E+00 0.  1.
     999902    2    1    2    0    0  0.29853786860E-02  0.18382227443E-01 -0.27251356869E-02  0.10251085990E+01  0.10249358002E+01 0.  0.
     999903    2    3    3    0    0 -0.16463517586E-01 -0.10811609738E+00  0.62316575762E-01  0.13347498030E+00  0.44408071633E-01 0.  0.
         14    1    1    2    0    0 -0.29853786860E-02 -0.18382227443E-01  0.27251356869E-02  0.18821401015E-01  0.00000000000E+00 0.  1.
     999901    1    3    3    0    0  0.19448896272E-01  0.12649832482E+00 -0.65041711449E-01  0.89163361869E+00  0.88000000000E+00 0.  1.
        -11    1    4    4    0    0 -0.19480815803E-01 -0.95966176263E-01  0.36008111308E-01  0.10433529782E+00  0.51100000000E-03 0. -1.
         11    1    4    4    0    0  0.30172982167E-02 -0.12149921118E-01  0.26308464453E-01  0.29139682472E-01  0.51100000000E-03 0.  1.
</event>
<event>
 8    1  0.2825007E+004  0.1043930E+01  0.7957747E-01            NaN
         13   -1    0    0    0    0  0.00000000000E+00  0.00000000000E+00  0.74505805969E-08  0.10566000000E+00  0.10566000000E+00 0. -1.
     999900   -1    0    0    0    0 -0.00000000000E+00 -0.00000000000E+00 -0.74505805969E-08  0.93827000000E+00  0.93827000000E+00 0. -1.
     999902    2    1    2    0    0  0.42361315904E-02  0.65981407984E-02  0.11309966439E-01  0.10301678921E+01  0.10300759634E+01 0.  0.
     999903    2    3    3    0    0 -0.11267611409E+00 -0.51726095611E-01 -0.43623158157E-01  0.13882741960E+00  0.44705445449E-01 0.  0.
         14    1    1    2    0    0 -0.42361315904E-02 -0.65981407984E-02 -0.11309966439E-01  0.13762107894E-01  0.00000000000E+00 0.  1.
     999901    1    3    3    0    0  0.11691224568E+00  0.58324236410E-01  0.54933124595E-01  0.89134047250E+00  0.88000000000E+00 0. -1.
        -11    1    4    4    0    0 -0.52927626313E-01 -0.37121053255E-01 -0.42385474523E-01  0.77305211942E-01  0.51100000000E-03 0.  1.
         11    1    4    4    0    0 -0.59748487776E-01 -0.14605042357E-01 -0.12376836336E-02  0.61522207661E-01  0.51100000000E-03 0. -1.
</event>
<event>
 8    1  0.2825007E+004  0.1043930E+01  0.7957747E-01            NaN
         13   -1    0    0    0    0  0.00000000000E+00  0.00000000000E+00  0.74505805969E-08  0.10566000000E+00  0.10566000000E+00 0.  1.
     999900   -1    0    0    0    0 -0.00000000000E+00 -0.00000000000E+00 -0.74505805969E-08  0.93827000000E+00  0.93827000000E+00 0.  1.
     999902    2    1    2    0    0 -0.44307119563E-02  0.39511760007E-02 -0.12615341352E-01  0.10299876244E+01  0.10298932549E+01 0.  0.
     999903    2    3    3    0    0 -0.96087332073E-01  0.53962434185E-02  0.90012291435E-01  0.13929381884E+00  0.45151528547E-01 0.  0.
         14    1    1    2    0    0  0.44307119563E-02 -0.39511760007E-02  0.12615341352E-01  0.13942375610E-01  0.00000000000E+00 0.  1.
     999901    1    3    3    0    0  0.91656620117E-01 -0.14450674179E-02 -0.10262763279E+00  0.89069380555E+00  0.88000000000E+00 0.  1.
        -11    1    4    4    0    0 -0.38212532990E-01  0.16901621563E-02  0.66491651575E-01  0.76710202554E-01  0.51100000000E-03 0.  1.
         11    1    4    4    0    0 -0.57874799083E-01  0.37060812623E-02  0.23520639859E-01  0.62583616287E-01  0.51100000000E-03 0. -1.
</event>
<event>
 8    1  0.2825007E+004  0.1043930E+01  0.7957747E-01            NaN
         13   -1    0    0    0    0  0.00000000000E+00  0.00000000000E+00  0.74505805969E-08  0.10566000000E+00  0.10566000000E+00 0. -1.
     999900   -1    0    0    0    0 -0.00000000000E+00 -0.00000000000E+00 -0.74505805969E-08  0.93827000000E+00  0.93827000000E+00 0. -1.
     999902    2    1    2    0    0 -0.67389537383E-02  0.51097199368E-02  0.11965998359E-01  0.10292770873E+01  0.10291727816E+01 0.  0.
     999903    2    3    3    0    0 -0.92515524478E-01 -0.33094993260E-01  0.89800343387E-01  0.14086535530E+00  0.46092795570E-01 0.  0.
         14    1    1    2    0    0  0.67389537383E-02 -0.51097199368E-02 -0.11965998359E-01  0.14652912750E-01  0.00000000000E+00 0.  1.
     999901    1    3    3    0    0  0.85776570740E-01  0.38204713197E-01 -0.77834345028E-01  0.88841173195E+00  0.88000000000E+00 0. -1.
        -11    1    4    4    0    0 -0.15674992023E-01 -0.90247608653E-02  0.45486351982E-01  0.48953253428E-01  0.51100000000E-03 0. -1.
         11    1    4    4    0    0 -0.76840532455E-01 -0.24070232395E-01  0.44313991405E-01  0.91912101873E-01  0.51100000000E-03 0.  1.
</event>
<event>
 8    1  0.2825007E+004  0.1043930E+01  0.7957747E-01            NaN
         13   -1    0    0    0    0  0.00000000000E+00  0.00000000000E+00  0.74505805969E-08  0.10566000000E+00  0.10566000000E+00 0.  1.
     999900   -1    0    0    0    0 -0.00000000000E+00 -0.00000000000E+00 -0.74505805969E-08  0.93827000000E+00  0.93827000000E+00 0.  1.
     999902    2    1    2    0    0  0.90635269912E-02  0.92309534096E-02  0.25565510251E-03  0.10309907812E+01  0.10309095827E+01 0.  0.
     999903    2    3    3    0    0  0.13699032235E-02 -0.43827059223E-01 -0.12549537671E+00  0.14043608526E+00  0.45282631458E-01 0.  0.
         14    1    1    2    0    0 -0.90635269912E-02 -0.92309534096E-02 -0.25565510251E-03  0.12939218752E-01  0.00000000000E+00 0.  1.
     999901    1    3    3    0    0  0.76936237677E-02  0.53058012633E-01  0.12575103181E+00  0.89055469599E+00  0.88000000000E+00 0. -1.
        -11    1    4    4    0    0 -0.31949975106E-02  0.34174816291E-02 -0.56463684768E-01  0.56659474127E-01  0.51100000000E-03 0.  1.
         11    1    4    4    0    0  0.45649007341E-02 -0.47244540852E-01 -0.69031691942E-01  0.83776611130E-01  0.51100000000E-03 0. -1.
</event>
<event>
 8    1  0.2825007E+004  0.1043930E+01  0.7957747E-01            NaN
         13   -1    0    0    0    0  0.00000000000E+00  0.00000000000E+00  0.74505805969E-08  0.10566000000E+00  0.10566000000E+00 0.  1.
     999900   -1    0    0    0    0 -0.00000000000E+00 -0.00000000000E+00 -0.74505805969E-08  0.93827000000E+00  0.93827000000E+00 0. -1.
     999902    2    1    2    0    0  0.12059231657E-01  0.48279247234E-02  0.21289434285E-02  0.10307669333E+01  0.10306828826E+01 0.  0.
     999903    2    3    3    0    0  0.46950132892E-01  0.79757207943E-01  0.97780140328E-01  0.14173323092E+00  0.44292501694E-01 0.  0.
         14    1    1    2    0    0 -0.12059231657E-01 -0.48279247234E-02 -0.21289434285E-02  0.13163066717E-01  0.00000000000E+00 0.  1.
     999901    1    3    3    0    0 -0.34890901236E-01 -0.74929283220E-01 -0.95651196900E-01  0.88903370237E+00  0.88000000000E+00 0.  1.
        -11    1    4    4    0    0  0.40387528684E-01  0.25154831496E-01  0.46814366553E-01  0.66751509778E-01  0.51100000000E-03 0.  1.
         11    1    4    4    0    0  0.65626042078E-02  0.54602376447E-01  0.50965773775E-01  0.74981721140E-01  0.51100000000E-03 0. -1.
</event>
<event>
 8    1  0.2825007E+004  0.1043930E+01  0.7957747E-01            NaN
         13   -1    0    0    0    0  0.00000000000E+00  0.00000000000E+00  0.74505805969E-08  0.10566000000E+00  0.10566000000E+00 0.  1.
     999900   -1    0    0    0    0 -0.00000000000E+00 -0.00000000000E+00 -0.74505805969E-08  0.93827000000E+00  0.93827000000E+00 0.  1.
     999902    2    1    2    0    0  0.60111472400E-02 -0.22701536788E-02  0.13983445842E-01  0.10285409049E+01  0.10284257722E+01 0.  0.
     999903    2    3    3    0    0  0.91882890031E-01  0.83055743368E-01 -0.42310743487E-01  0.13847152526E+00  0.45204450060E-01 0.  0.
         14    1    1    2    0    0 -0.60111472400E-02  0.22701536788E-02 -0.13983445842E-01  0.15389095051E-01  0.00000000000E+00 0. -1.
     999901    1    3    3    0    0 -0.85871742791E-01 -0.85325897047E-01  0.56294189329E-01  0.89006937969E+00  0.88000000000E+00 0.  1.
        -11    1    4    4    0    0  0.66602516302E-01  0.76315929975E-01 -0.18252053891E-01  0.10292431655E+00  0.51100000000E-03 0. -1.
         11    1    4    4    0    0  0.25280373729E-01  0.67398133932E-02 -0.24058689595E-01  0.35547208702E-01  0.51100000000E-03 0.  1.
</event>
<event>
 8    1  0.2825007E+004  0.1043930E+01  0.7957747E-01            NaN
         13   -1    0    0    0    0  0.00000000000E+00  0.00000000000E+00  0.74505805969E-08  0.10566000000E+00  0.10566000000E+00 0.  1.
     999900   -1    0    0    0    0 -0.00000000000E+00 -0.00000000000E+00 -0.74505805969E-08  0.93827000000E+00  0.93827000000E+00 0. -1.
     999902    2    1    2    0    0  0.47980687051E-02  0.10785032409E-01  0.54032895585E-02  0.10309479383E+01  0.10308661977E+01 0.  0.
     999903    2    3    3    0    0 -0.12363742619E+00  0.49799579068E-01 -0.90559920366E-02  0.14065198639E+00  0.43985896066E-01 0.  0.
         14    1    1    2    0    0 -0.47980687051E-02 -0.10785032409E-01 -0.54032895585E-02  0.12982061678E-01  0.00000000000E+00 0. -1.
     999901    1    3    3    0    0  0.12843549490E+00 -0.39014546659E-01  0.14459281595E-01  0.89029595193E+00  0.88000000000E+00 0.  1.
        -11    1    4    4    0    0 -0.58281411336E-01  0.15785038117E-02  0.37572110046E-02  0.58425956023E-01  0.51100000000E-03 0.  1.
         11    1    4    4    0    0 -0.65356014857E-01  0.48221075256E-01 -0.12813203041E-01  0.82226030368E-01  0.51100000000E-03 0. -1.
</event>
<event>
 8    1  0.2825007E+004  0.1043930E+01  0.7957747E-01            NaN
         13   -1    0    0    0    0  0.00000000000E+00  0.00000000000E+00  0.74505805969E-08  0.10566000000E+00  0.10566000000E+00 0.  1.
     999900   -1    0    0    0    0 -0.00000000000E+00 -0.00000000000E+00 -0.74505805969E-08  0.93827000000E+00  0.93827000000E+00 0. -1.
     999902    2    1    2    0    0  0.25468036228E-02 -0.12481116490E-01  0.67523836893E-03  0.10311738084E+01  0.10310949048E+01 0.  0.
     999903    2    3    3    0    0 -0.55720306936E-01 -0.11953675076E+00  0.28560515884E-01  0.14233549143E+00  0.45275839756E-01 0.  0.
         14    1    1    2    0    0 -0.25468036228E-02  0.12481116490E-01 -0.67523836893E-03  0.12756191610E-01  0.00000000000E+00 0. -1.
     999901    1    3    3    0    0  0.58267110558E-01  0.10705563427E+00 -0.27885277515E-01  0.88883831696E+00  0.88000000000E+00 0. -1.
        -11    1    4    4    0    0 -0.56119260976E-01 -0.94751711131E-01  0.36953809941E-01  0.11615981838E+00  0.51100000000E-03 0.  1.
         11    1    4    4    0    0  0.39895404040E-03 -0.24785039625E-01 -0.83932940570E-02  0.26175673051E-01  0.51100000000E-03 0. -1.
</event>
<event>
 8    1  0.2825007E+004  0.1043930E+01  0.7957747E-01            NaN
         13   -1    0    0    0    0  0.00000000000E+00  0.00000000000E+00  0.74505805969E-08  0.10566000000E+00  0.10566000000E+00 0.  1.
     999900   -1    0    0    0    0 -0.00000000000E+00 -0.00000000000E+00 -0.74505805969E-08  0.93827000000E+00  0.93827000000E+00 0. -1.
     999902    2    1    2    0    0  0.11614785099E-01  0.10215345746E-01 -0.50262729693E-02  0.10276659310E+01  0.10275372235E+01 0.  0.
     999903    2    3    3    0    0 -0.70469551208E-01  0.10924577807E+00 -0.11353559549E-01  0.13829261264E+00  0.45774946445E-01 0.  0.
         14    1    1    2    0    0 -0.11614785099E-01 -0.10215345746E-01  0.50262729693E-02  0.16264069035E-01  0.00000000000E+00 0.  1.
     999901    1    3    3    0    0  0.82084336307E-01 -0.99030432326E-01  0.63272865797E-02  0.88937331833E+00  0.88000000000E+00 0. -1.
        -11    1    4    4    0    0 -0.31904620376E-01  0.76905454132E-01 -0.23499272754E-01  0.86514915578E-01  0.51100000000E-03 0.  1.
         11    1    4    4    0    0 -0.38564930832E-01  0.32340323941E-01  0.12145713205E-01  0.51777697062E-01  0.51100000000E-03 0. -1.
</event>
<event>
 8    1  0.2825007E+004  0.1043930E+01  0.7957747E-01            NaN
         13   -1    0    0    0    0  0.00000000000E+00  0.00000000000E+00  0.74505805969E-08  0.10566000000E+00  0.10566000000E+00 0. -1.
     999900   -1    0    0    0    0 -0.00000000000E+00 -0.00000000000E+00 -0.74505805969E-08  0.93827000000E+00  0.93827000000E+00 0. -1.
     999902    2    1    2    0    0  0.44093662695E-02 -0.95887839186E-02 -0.93026358437E-02  0.10298613710E+01  0.10297652729E+01 0.  0.
     999903    2    3    3    0    0 -0.12649506114E+00 -0.14936081638E-01 -0.35748069848E-01  0.13976928382E+00  0.45093693285E-01 0.  0.
         14    1    1    2    0    0 -0.44093662695E-02  0.95887839186E-02  0.93026358437E-02  0.14068628987E-01  0.00000000000E+00 0. -1.
     999901    1    3    3    0    0  0.13090442741E+00  0.53472977196E-02  0.26445434005E-01  0.89009208720E+00  0.88000000000E+00 0.  1.
        -11    1    4    4    0    0 -0.18160958154E-01 -0.10710033329E-01 -0.22012391011E-01  0.30484942086E-01  0.51100000000E-03 0.  1.
         11    1    4    4    0    0 -0.10833410298E+00 -0.42260483094E-02 -0.13735678838E-01  0.10928434173E+00  0.51100000000E-03 0. -1.
</event>
<event>
 8    1  0.2825007E+004  0.1043930E+01  0.7957747E-01            NaN
         13   -1    0    0    0    0  0.00000000000E+00  0.00000000000E+00  0.74505805969E-08  0.10566000000E+00  0.10566000000E+00 0.  1.
     999900   -1    0    0    0    0 -0.00000000000E+00 -0.00000000000E+00 -0.74505805969E-08  0.93827000000E+00  0.93827000000E+00 0.  1.
     999902    2    1    2    0    0 -0.58947705420E-02 -0.12456903290E-01  0.29136354727E-02  0.10298441194E+01  0.10297477838E+01 0.  0.
     999903    2    3    3    0    0  0.73575612379E-01  0.11042594869E+00 -0.88383298685E-02  0.13768166464E+00  0.35649177011E-01 0.  0.
         14    1    1    2    0    0  0.58947705420E-02  0.12456903290E-01 -0.29136354727E-02  0.14085880554E-01  0.00000000000E+00 0.  1.
     999901    1    3    3    0    0 -0.79470382921E-01 -0.12288285198E+00  0.11751965341E-01  0.89216245480E+00  0.88000000000E+00 0.  1.
        -11    1    4    4    0    0  0.33046323401E-01  0.71634440710E-01 -0.17778989543E-01  0.80869686387E-01  0.51100000000E-03 0. -1.
         11    1    4    4    0    0  0.40529288978E-01  0.38791507984E-01  0.89406596744E-02  0.56811978255E-01  0.51100000000E-03 0.  1.
</event>
<event>
 7    1  0.2825007E+004  0.1043930E+01  0.7957747E-01            NaN
         13   -1    0    0    0    0  0.00000000000E+00  0.00000000000E+00  0.74505805969E-08  0.10566000000E+00  0.10566000000E+00 0.  1.
     999900   -1    0    0    0    0 -0.00000000000E+00 -0.00000000000E+00 -0.74505805969E-08  0.93827000000E+00  0.93827000000E+00 0. -1.
     999903    2    1    2    0    0  0.13726770317E-01 -0.26848658556E-01  0.40089524831E-01  0.67295363651E-01  0.44857789493E-01 0.  0.
         14    1    1    2    0    0 -0.34191181629E-01 -0.59201807708E-01  0.54123871950E-01  0.87196814459E-01  0.00000000000E+00 0.  1.
     999901    1    1    2    0    0  0.20464411312E-01  0.86050466264E-01 -0.94213396780E-01  0.88943782189E+00  0.88000000000E+00 0. -1.
        -11    1    3    3    0    0  0.26647860289E-01 -0.17773388380E-01  0.10429345582E-01  0.33690268072E-01  0.51100000000E-03 0.  1.
         11    1    3    3    0    0 -0.12921089972E-01 -0.90752701760E-02  0.29660179249E-01  0.33605095580E-01  0.51100000000E-03 0. -1.
</event>
<event>
 8    1  0.2825007E+004  0.1043930E+01  0.7957747E-01            NaN
         13   -1    0    0    0    0  0.00000000000E+00  0.00000000000E+00  0.74505805969E-08  0.10566000000E+00  0.10566000000E+00 0.  1.
     999900   -1    0    0    0    0 -0.00000000000E+00 -0.00000000000E+00 -0.74505805969E-08  0.93827000000E+00  0.93827000000E+00 0. -1.
     999902    2    1    2    0    0  0.35331007156E-02  0.95358960682E-02 -0.10976531675E-01  0.10289666995E+01  0.10288578951E+01 0.  0.
     999903    2    3    3    0    0 -0.33009129472E-01  0.15701967033E-01 -0.12734839285E+00  0.14053225335E+00  0.46856660919E-01 0.  0.
         14    1    1    2    0    0 -0.35331007156E-02 -0.95358960682E-02  0.10976531675E-01  0.14963300509E-01  0.00000000000E+00 0.  1.
     999901    1    3    3    0    0  0.36542230188E-01 -0.61660709649E-02  0.11637186118E+00  0.88843444614E+00  0.88000000000E+00 0.  1.
        -11    1    4    4    0    0 -0.38396779544E-01  0.26483804293E-01 -0.10913139526E+00  0.11868288470E+00  0.51100000000E-03 0. -1.
         11    1    4    4    0    0  0.53876500720E-02 -0.10781837260E-01 -0.18216997592E-01  0.21849368647E-01  0.51100000000E-03 0.  1.
</event>
<event>
 8    1  0.2825007E+004  0.1043930E+01  0.7957747E-01            NaN
         13   -1    0    0    0    0  0.00000000000E+00  0.00000000000E+00  0.74505805969E-08  0.10566000000E+00  0.10566000000E+00 0.  1.
     999900   -1    0    0    0    0 -0.00000000000E+00 -0.00000000000E+00 -0.74505805969E-08  0.93827000000E+00  0.93827000000E+00 0.  1.
     999902    2    1    2    0    0 -0.66088805522E-02 -0.13696984271E-01 -0.24304593124E-02  0.10285289672E+01  0.10284136544E+01 0.  0.
     999903    2    3    3    0    0 -0.95953274839E-01  0.84595573292E-01  0.27501955293E-01  0.13805729601E+00  0.44045629340E-01 0.  0.
         14    1    1    2    0    0  0.66088805522E-02  0.13696984271E-01  0.24304593124E-02  0.15401032847E-01  0.00000000000E+00 0. -1.
     999901    1    3    3    0    0  0.89344394286E-01 -0.98292557564E-01 -0.29932414605E-01  0.89047167114E+00  0.88000000000E+00 0.  1.
        -11    1    4    4    0    0 -0.25092748131E-01  0.64609275958E-02 -0.73980153612E-02  0.26951462788E-01  0.51100000000E-03 0.  1.
         11    1    4    4    0    0 -0.70860526708E-01  0.78134645696E-01  0.34899970654E-01  0.11110583322E+00  0.51100000000E-03 0. -1.
</event>
<event>
 8    1  0.2825007E+004  0.1043930E+01  0.7957747E-01            NaN
         13   -1    0    0    0    0  0.00000000000E+00  0.00000000000E+00  0.74505805969E-08  0.10566000000E+00  0.10566000000E+00 0. -1.
     999900   -1    0    0    0    0 -0.00000000000E+00 -0.00000000000E+00 -0.74505805969E-08  0.93827000000E+00  0.93827000000E+00 0. -1.
     999902    2    1    2    0    0 -0.12316453791E-01 -0.25985900470E-02  0.57252241638E-02  0.10301015548E+01  0.10300087317E+01 0.  0.
     999903    2    3    3    0    0 -0.13225873990E+00  0.18584376588E-01  0.15411422931E-01  0.14165983332E+00  0.44634550343E-01 0.  0.
         14    1    1    2    0    0  0.12316453791E-01  0.25985900470E-02 -0.57252241638E-02  0.13828445174E-01  0.00000000000E+00 0. -1.
     999901    1    3    3    0    0  0.11994228611E+00 -0.21182966635E-01 -0.96861987668E-02  0.88844172151E+00  0.88000000000E+00 0. -1.
        -11    1    4    4    0    0 -0.45026770625E-01 -0.14794145320E-01  0.40588052244E-02  0.47571123904E-01  0.51100000000E-03 0. -1.
         11    1    4    4    0    0 -0.87231969278E-01  0.33378521908E-01  0.11352617706E-01  0.94088709411E-01  0.51100000000E-03 0.  1.
</event>
<event>
 8    1  0.2825007E+004  0.1043930E+01  0.7957747E-01            NaN
         13   -1    0    0    0    0  0.00000000000E+00  0.00000000000E+00  0.74505805969E-08  0.10566000000E+00  0.10566000000E+00 0.  1.
     999900   -1    0    0    0    0 -0.00000000000E+00 -0.00000000000E+00 -0.74505805969E-08  0.93827000000E+00  0.93827000000E+00 0. -1.
     999902    2    1    2    0    0  0.12410988736E-01 -0.31394461962E-02 -0.51454899939E-02  0.10301327238E+01  0.10300403214E+01 0.  0.
     999903    2    3    3    0    0  0.38963804158E-01  0.12291690187E+00  0.31334089919E-01  0.14000575832E+00  0.44643525525E-01 0.  0.
         14    1    1    2    0    0 -0.12410988736E-01  0.31394461962E-02  0.51454899939E-02  0.13797276220E-01  0.00000000000E+00 0. -1.
     999901    1    3    3    0    0 -0.26552815422E-01 -0.12605634806E+00 -0.36479579912E-01  0.89012696546E+00  0.88000000000E+00 0. -1.
        -11    1    4    4    0    0  0.22311100748E-01  0.80995614405E-01 -0.18013579504E-02  0.84033212368E-01  0.51100000000E-03 0.  1.
         11    1    4    4    0    0  0.16652703410E-01  0.41921287464E-01  0.33135447869E-01  0.55972545949E-01  0.51100000000E-03 0. -1.
</event>
<event>
 8    1  0.2825007E+004  0.1043930E+01  0.7957747E-01            NaN
         13   -1    0    0    0    0  0.00000000000E+00  0.00000000000E+00  0.74505805969E-08  0.10566000000E+00  0.10566000000E+00 0. -1.
     999900   -1    0    0    0    0 -0.00000000000E+00 -0.00000000000E+00 -0.74505805969E-08  0.93827000000E+00  0.93827000000E+00 0.  1.
     999902    2    1    2    0    0  0.11126064922E-01 -0.17715002623E-02 -0.67372235717E-02  0.10308030158E+01  0.10307194282E+01 0.  0.
     999903    2    3    3    0    0  0.57796451230E-01 -0.69936300408E-01 -0.99620744361E-01  0.14206688317E+00  0.45024334494E-01 0.  0.
         14    1    1    2    0    0 -0.11126064922E-01  0.17715002623E-02  0.67372235717E-02  0.13126984242E-01  0.00000000000E+00 0. -1.
     999901    1    3    3    0    0 -0.46670386308E-01  0.68164800145E-01  0.92883520789E-01  0.88873613259E+00  0.88000000000E+00 0. -1.
        -11    1    4    4    0    0  0.22653734264E-01 -0.24964764235E-02 -0.11069973076E-01  0.25342247248E-01  0.51100000000E-03 0. -1.
         11    1    4    4    0    0  0.35142716966E-01 -0.67439823984E-01 -0.88550771284E-01  0.11672463592E+00  0.51100000000E-03 0.  1.
</event>
<event>
 8    1  0.2825007E+004  0.1043930E+01  0.7957747E-01            NaN
         13   -1    0    0    0    0  0.00000000000E+00  0.00000000000E+00  0.74505805969E-08  0.10566000000E+00  0.10566000000E+00 0.  1.
     999900   -1    0    0    0    0 -0.00000000000E+00 -0.00000000000E+00 -0.74505805969E-08  0.93827000000E+00  0.93827000000E+00 0. -1.
     999902    2    1    2    0    0 -0.35745470332E-02 -0.10684850373E-01 -0.74523126372E-02  0.10304214702E+01  0.10303329199E+01 0.  0.
     999903    2    3    3    0    0  0.87441732124E-01 -0.86873805620E-01 -0.54805197922E-01  0.14119089508E+00  0.41691060352E-01 0.  0.
         14    1    1    2    0    0  0.35745470332E-02  0.10684850373E-01  0.74523126372E-02  0.13508529810E-01  0.00000000000E+00 0.  1.
     999901    1    3    3    0    0 -0.91016279157E-01  0.76188955247E-01  0.47352885285E-01  0.88923057511E+00  0.88000000000E+00 0.  1.
        -11    1    4    4    0    0  0.35039633789E-01 -0.37618106168E-01 -0.45533646673E-01  0.68676574959E-01  0.51100000000E-03 0.  1.
         11    1    4    4    0    0  0.52402098335E-01 -0.49255699452E-01 -0.92715512488E-02  0.72514320117E-01  0.51100000000E-03 0. -1.
</event>
<event>
 7    1  0.2825007E+004  0.1043930E+01  0.7957747E-01            NaN
         13   -1    0    0    0    0  0.00000000000E+00  0.00000000000E+00  0.74505805969E-08  0.10566000000E+00  0.10566000000E+00 0. -1.
     999900   -1    0    0    0    0 -0.00000000000E+00 -0.00000000000E+00 -0.74505805969E-08  0.93827000000E+00  0.93827000000E+00 0. -1.
     999902    2    1    2    0    0 -0.90319226807E-02 -0.10139049307E-01  0.38402808727E-02  0.10298188801E+01  0.10297221966E+01 0.  0.
         14    1    1    2    0    0  0.90319226807E-02  0.10139049307E-01 -0.38402808727E-02  0.14111119918E-01  0.00000000000E+00 0. -1.
     999901    1    3    3    0    0  0.52188484254E-01  0.62827899017E-01 -0.71399008213E-01  0.88666160465E+00  0.88000000000E+00 0. -1.
        -11    1    3    3    0    0 -0.77853524438E-01 -0.46996448101E-01  0.55545151458E-01  0.10656154266E+00  0.51100000000E-03 0. -1.
         11    1    3    3    0    0  0.16633117503E-01 -0.25970500223E-01  0.19694137627E-01  0.36595732778E-01  0.51100000000E-03 0.  1.
</event>
<event>
 8    1  0.2825007E+004  0.1043930E+01  0.7957747E-01            NaN
         13   -1    0    0    0    0  0.00000000000E+00  0.00000000000E+00  0.74505805969E-08  0.10566000000E+00  0.10566000000E+00 0. -1.
     999900   -1    0    0    0    0 -0.00000000000E+00 -0.00000000000E+00 -0.74505805969E-08  0.93827000000E+00  0.93827000000E+00 0.  1.
     999902    2    1    2    0    0 -0.61551347708E-02  0.43374649315E-02  0.15580692494E-01  0.10266251664E+01  0.10264793106E+01 0.  0.
     999903    2    3    3    0    0  0.10723904441E+00 -0.31397731167E-01 -0.61774892145E-01  0.13526714040E+00  0.44665778886E-01 0.  0.
         14    1    1    2    0    0  0.61551347708E-02 -0.43374649315E-02 -0.15580692494E-01  0.17304833564E-01  0.00000000000E+00 0.  1.
     999901    1    3    3    0    0 -0.11339417918E+00  0.35735196098E-01  0.77355584639E-01  0.89135802604E+00  0.88000000000E+00 0. -1.
        -11    1    4    4    0    0  0.62894298864E-01 -0.36808787288E-01 -0.23893726828E-01  0.76692574308E-01  0.51100000000E-03 0.  1.
         11    1    4    4    0    0  0.44344745543E-01  0.54110561212E-02 -0.37881165317E-01  0.58574566088E-01  0.51100000000E-03 0. -1.
</event>
<event>
 8    1  0.2825007E+004  0.1043930E+01  0.7957747E-01            NaN
         13   -1    0    0    0    0  0.00000000000E+00  0.00000000000E+00  0.74505805969E-08  0.10566000000E+00  0.10566000000E+00 0.  1.
     999900   -1    0    0    0    0 -0.00000000000E+00 -0.00000000000E+00 -0.74505805969E-08  0.93827000000E+00  0.93827000000E+00 0.  1.
     999902    2    1    2    0    0 -0.27199645224E-02 -0.44733917803E-02  0.12667861099E-01  0.10302229162E+01  0.10301317260E+01 0.  0.
     999903    2    3    3    0    0  0.10324610199E+00  0.37356762248E-01  0.75433343985E-01  0.14066230845E+00  0.45170901831E-01 0.  0.
         14    1    1    2    0    0  0.27199645224E-02  0.44733917803E-02 -0.12667861099E-01  0.13707083784E-01  0.00000000000E+00 0. -1.
     999901    1    3    3    0    0 -0.10596606652E+00 -0.41830154029E-01 -0.62765482885E-01  0.88956060776E+00  0.88000000000E+00 0. -1.
        -11    1    4    4    0    0  0.31458912311E-01  0.30186701379E-01  0.13684797231E-01  0.45699397153E-01  0.51100000000E-03 0. -1.
         11    1    4    4    0    0  0.71787189684E-01  0.71700608696E-02  0.61748546754E-01  0.94962911302E-01  0.51100000000E-03 0.  1.
</event>
<event>
 8    1  0.2825007E+004  0.1043930E+01  0.7957747E-01            NaN
         13   -1    0    0    0    0  0.00000000000E+00  0.00000000000E+00  0.74505805969E-08  0.10566000000E+00  0.10566000000E+00 0.  1.
     999900   -1    0    0    0    0 -0.00000000000E+00 -0.00000000000E+00 -0.74505805969E-08  0.93827000000E+00  0.93827000000E+00 0.  1.
     999902    2    1    2    0    0  0.11891256569E-01  0.59541908407E-02 -0.29825784469E-02  0.10303009815E+01  0.10302108339E+01 0.  0.
     999903    2    3    3    0    0  0.10184960105E+00 -0.52576411892E-01  0.66339662551E-01  0.14107440277E+00  0.48614976801E-01 0.  0.
         14    1    1    2    0    0 -0.11891256569E-01 -0.59541908407E-02  0.29825784469E-02  0.13629018510E-01  0.00000000000E+00 0. -1.
     999901    1    3    3    0    0 -0.89958344479E-01  0.58530602732E-01 -0.69322240998E-01  0.88922657872E+00  0.88000000000E+00 0. -1.
        -11    1    4    4    0    0  0.66589219231E-01 -0.32897297232E-01  0.15030886484E-01  0.75779581369E-01  0.51100000000E-03 0.  1.
         11    1    4    4    0    0  0.35260381818E-01 -0.19679114660E-01  0.51308776068E-01  0.65294821405E-01  0.51100000000E-03 0. -1.
</event>
<event>
 8    1  0.2825007E+004  0.1043930E+01  0.7957747E-01            NaN
         13   -1    0    0    0    0  0.00000000000E+00  0.00000000000E+00  0.74505805969E-08  0.10566000000E+00  0.10566000000E+00 0. -1.
     999900   -1    0    0    0    0 -0.00000000000E+00 -0.00000000000E+00 -0.74505805969E-08  0.93827000000E+00  0.93827000000E+00 0. -1.
     999902    2    1    2    0    0  0.45345369445E-02 -0.21145291900E-02  0.12857707047E-01  0.10301331203E+01  0.10300407233E+01 0.  0.
     999903    2    3    3    0    0  0.93996234974E-01  0.52729386957E-01  0.79686035971E-01  0.14138271884E+00  0.44983646122E-01 0.  0.
         14    1    1    2    0    0 -0.45345369445E-02  0.21145291900E-02 -0.12857707047E-01  0.13796879702E-01  0.00000000000E+00 0.  1.
     999901    1    3    3    0    0 -0.89461698030E-01 -0.54843916147E-01 -0.66828328924E-01  0.88875040146E+00  0.88000000000E+00 0. -1.
        -11    1    4    4    0    0  0.62835495215E-01  0.21611858288E-01  0.69548649818E-01  0.96190684008E-01  0.51100000000E-03 0. -1.
         11    1    4    4    0    0  0.31160739759E-01  0.31117528669E-01  0.10137386153E-01  0.45192034827E-01  0.51100000000E-03 0.  1.
</event>
<event>
 8    1  0.2825007E+004  0.1043930E+01  0.7957747E-01            NaN
         13   -1    0    0    0    0  0.00000000000E+00  0.00000000000E+00  0.74505805969E-08  0.10566000000E+00  0.10566000000E+00 0.  1.
     999900   -1    0    0    0    0 -0.00000000000E+00 -0.00000000000E+00 -0.74505805969E-08  0.93827000000E+00  0.93827000000E+00 0.  1.
     999902    2    1    2    0    0 -0.29577714544E-02 -0.16108081863E-02  0.13554537020E-01  0.10299633043E+01  0.10298686031E+01 0.  0.
     999903    2    3    3    0    0 -0.98816209589E-01  0.86507713733E-01 -0.16669748153E-01  0.13986936460E+00  0.45136801373E-01 0.  0.
         14    1    1    2    0    0  0.29577714544E-02  0.16108081863E-02 -0.13554537020E-01  0.13966695702E-01  0.00000000000E+00 0. -1.
     999901    1    3    3    0    0  0.95858438135E-01 -0.88118521920E-01  0.30224285173E-01  0.89009393969E+00  0.88000000000E+00 0. -1.
        -11    1    4    4    0    0 -0.38061229143E-01  0.74037641280E-02 -0.91462392436E-02  0.39842034341E-01  0.51100000000E-03 0.  1.
         11    1    4    4    0    0 -0.60754980446E-01  0.79103949605E-01 -0.75235089094E-02  0.10002733026E+00  0.51100000000E-03 0. -1.
</event>
<event>
 8    1  0.2825007E+004  0.1043930E+01  0.7957747E-01            NaN
         13   -1    0    0    0    0  0.00000000000E+00  0.00000000000E+00  0.74505805969E-08  0.10566000000E+00  0.10566000000E+00 0. -1.
     999900   -1    0    0    0    0 -0.00000000000E+00 -0.00000000000E+00 -0.74505805969E-08  0.93827000000E+00  0.93827000000E+00 0.  1.
     999902    2    1    2    0    0  0.10467553888E-01  0.65351980159E-02 -0.58839418536E-02  0.10302588892E+01  0.10301681803E+01 0.  0.
     999903    2    3    3    0    0 -0.21942851806E-01 -0.10805569685E+00  0.71002657950E-01  0.13891548920E+00  0.45810624691E-01 0.  0.
         14    1    1    2    0    0 -0.10467553888E-01 -0.65351980159E-02  0.58839418536E-02  0.13671110754E-01  0.00000000000E+00 0.  1.
     999901    1    3    3    0    0  0.32410405695E-01  0.11459089487E+00 -0.76886599804E-01  0.89134340005E+00  0.88000000000E+00 0.  1.
        -11    1    4    4    0    0  0.26411307364E-02 -0.25396049048E-01 -0.24221403868E-02  0.25652734042E-01  0.51100000000E-03 0.  1.
         11    1    4    4    0    0 -0.24583982543E-01 -0.82659647806E-01  0.73424798337E-01  0.11326275515E+00  0.51100000000E-03 0. -1.
</event>
<event>
 8    1  0.2825007E+004  0.1043930E+01  0.7957747E-01            NaN
         13   -1    0    0    0    0  0.00000000000E+00  0.00000000000E+00  0.74505805969E-08  0.10566000000E+00  0.10566000000E+00 0. -1.
     999900   -1    0    0    0    0 -0.00000000000E+00 -0.00000000000E+00 -0.74505805969E-08  0.93827000000E+00  0.93827000000E+00 0. -1.
     999902    2    1    2    0    0 -0.17732961850E-02 -0.11745224121E-01 -0.61808493830E-02  0.10305397883E+01  0.10304527925E+01 0.  0.
     999903    2    3    3    0    0 -0.96317595744E-01  0.76319192748E-01 -0.49669087891E-01  0.14004262778E+00  0.45202000740E-01 0.  0.
         14    1    1    2    0    0  0.17732961850E-02  0.11745224121E-01  0.61808493830E-02  0.13390211652E-01  0.00000000000E+00 0. -1.
     999901    1    3    3    0    0  0.94544299559E-01 -0.88064416868E-01  0.43488238508E-01  0.89049716057E+00  0.88000000000E+00 0. -1.
        -11    1    4    4    0    0 -0.11366967926E-01  0.33098992782E-01 -0.73895169996E-02  0.35771739761E-01  0.51100000000E-03 0. -1.
         11    1    4    4    0    0 -0.84950627818E-01  0.43220199965E-01 -0.42279570891E-01  0.10427088802E+00  0.51100000000E-03 0.  1.
</event>
<event>
 8    1  0.2825007E+004  0.1043930E+01  0.7957747E-01            NaN
         13   -1    0    0    0    0  0.00000000000E+00  0.00000000000E+00  0.74505805969E-08  0.10566000000E+00  0.10566000000E+00 0. -1.
     999900   -1    0    0    0    0 -0.00000000000E+00 -0.00000000000E+00 -0.74505805969E-08  0.93827000000E+00  0.93827000000E+00 0. -1.
     999902    2    1    2    0    0 -0.49169479536E-02  0.80025073360E-02  0.12436163719E-01  0.10283455632E+01  0.10282274665E+01 0.  0.
     999903    2    3    3    0    0  0.11124460045E+00 -0.18192631788E-02 -0.66632582972E-01  0.13714309511E+00  0.44605566636E-01 0.  0.
         14    1    1    2    0    0  0.49169479536E-02 -0.80025073360E-02 -0.12436163719E-01  0.15584436753E-01  0.00000000000E+00 0.  1.
     999901    1    3    3    0    0 -0.11616154841E+00  0.98217705148E-02  0.79068746691E-01  0.89120246813E+00  0.88000000000E+00 0. -1.
        -11    1    4    4    0    0  0.39002528152E-01 -0.94514727729E-02 -0.24558366686E-02  0.40209697768E-01  0.51100000000E-03 0.  1.
         11    1    4    4    0    0  0.72242072303E-01  0.76322095940E-02 -0.64176746303E-01  0.96933397346E-01  0.51100000000E-03 0. -1.
</event>
<event>
 8    1  0.2825007E+004  0.1043930E+01  0.7957747E-01            NaN
         13   -1    0    0    0    0  0.00000000000E+00  0.00000000000E+00  0.74505805969E-08  0.10566000000E+00  0.10566000000E+00 0. -1.
     999900   -1    0    0    0    0 -0.00000000000E+00 -0.00000000000E+00 -0.74505805969E-08  0.93827000000E+00  0.93827000000E+00 0. -1.
     999902    2    1    2    0    0 -0.52936009830E-03 -0.65743750439E-02 -0.12299672336E-01  0.10299734758E+01  0.10298789134E+01 0.  0.
     999903    2    3    3    0    0  0.66461282126E-01 -0.43102967889E-01 -0.10826320948E+00  0.14147413153E+00  0.44933723441E-01 0.  0.
         14    1    1    2    0    0  0.52936009830E-03  0.65743750439E-02  0.12299672336E-01  0.13956524241E-01  0.00000000000E+00 0. -1.
     999901    1    3    3    0    0 -0.66990642224E-01  0.36528592845E-01  0.95963537141E-01  0.88849934423E+00  0.88000000000E+00 0.  1.
        -11    1    4    4    0    0  0.51168916796E-01 -0.13779550363E-01 -0.42760736476E-01  0.68094608886E-01  0.51100000000E-03 0.  1.
         11    1    4    4    0    0  0.15292365329E-01 -0.29323417526E-01 -0.65502473000E-01  0.73379522640E-01  0.51100000000E-03 0. -1.
</event>
<event>
 8    1  0.2825007E+004  0.1043930E+01  0.7957747E-01            NaN
         13   -1    0    0    0    0  0.00000000000E+00  0.00000000000E+00  0.74505805969E-08  0.10566000000E+00  0.10566000000E+00 0.  1.
     999900   -1    0    0    0    0 -0.00000000000E+00 -0.00000000000E+00 -0.74505805969E-08  0.93827000000E+00  0.93827000000E+00 0. -1.
     999902    2    1    2    0    0  0.92605285491E-02 -0.10582679425E-01  0.29562261131E-02  0.10295602482E+01  0.10294599628E+01 0.  0.
     999903    2    3    3    0    0 -0.78302891178E-01  0.72373934549E-01 -0.75063775032E-01  0.13791218266E+00  0.44898448021E-01 0.  0.
         14    1    1    2    0    0 -0.92605285491E-02  0.10582679425E-01 -0.29562261131E-02  0.14369751760E-01  0.00000000000E+00 0.  1.
     999901    1    3    3    0    0  0.87563419727E-01 -0.82956613973E-01  0.78020001145E-01  0.89164806558E+00  0.88000000000E+00 0.  1.
        -11    1    4    4    0    0 -0.61437294531E-01  0.74551389665E-01 -0.53452908961E-01  0.11040799544E+00  0.51100000000E-03 0.  1.
         11    1    4    4    0    0 -0.16865596647E-01 -0.21774551168E-02 -0.21610866071E-01  0.27504187216E-01  0.51100000000E-03 0. -1.
</event>
<event>
 8    1  0.2825007E+004  0.1043930E+01  0.7957747E-01            NaN
         13   -1    0    0    0    0  0.00000000000E+00  0.00000000000E+00  0.74505805969E-08  0.10566000000E+00  0.10566000000E+00 0.  1.
     999900   -1    0    0    0    0 -0.00000000000E+00 -0.00000000000E+00 -0.74505805969E-08  0.93827000000E+00  0.93827000000E+00 0. -1.
     999902    2    1    2    0    0  0.63059271677E-02 -0.12907163548E-01  0.24145784045E-03  0.10295627494E+01  0.10294624991E+01 0.  0.
     999903    2    3    3    0    0  0.75434834732E-01  0.57618125736E-01  0.89825592098E-01  0.13951896428E+00  0.48853266982E-01 0.  0.
         14    1    1    2    0    0 -0.63059271677E-02  0.12907163548E-01 -0.24145784045E-03  0.14367250613E-01  0.00000000000E+00 0. -1.
     999901    1    3    3    0    0 -0.69128907564E-01 -0.70525289284E-01 -0.89584134257E-01  0.89004378510E+00  0.88000000000E+00 0. -1.
        -11    1    4    4    0    0  0.75832945894E-01  0.59265616203E-01  0.68532717980E-01  0.11815262799E+00  0.51100000000E-03 0.  1.
         11    1    4    4    0    0 -0.39811116189E-03 -0.16474904663E-02  0.21292874118E-01  0.21366336292E-01  0.51100000000E-03 0. -1.
</event>
<event>
 8    1  0.2825007E+004  0.1043930E+01  0.7957747E-01            NaN
         13   -1    0    0    0    0  0.00000000000E+00  0.00000000000E+00  0.74505805969E-08  0.10566000000E+00  0.10566000000E+00 0. -1.
     999900   -1    0    0    0    0 -0.00000000000E+00 -0.00000000000E+00 -0.74505805969E-08  0.93827000000E+00  0.93827000000E+00 0. -1.
     999902    2    1    2    0    0 -0.96561273998E-02 -0.58002528681E-02 -0.11074311645E-01  0.10281336679E+01  0.10280123126E+01 0.  0.
     999903    2    3    3    0    0  0.93590257300E-01  0.85455230172E-01  0.25276288851E-01  0.13666928537E+00  0.44473252201E-01 0.  0.
         14    1    1    2    0    0  0.96561273998E-02  0.58002528681E-02  0.11074311645E-01  0.15796332109E-01  0.00000000000E+00 0.  1.
     999901    1    3    3    0    0 -0.10324638470E+00 -0.91255483040E-01 -0.36350600497E-01  0.89146438252E+00  0.88000000000E+00 0. -1.
        -11    1    4    4    0    0  0.52043205661E-01  0.46365710461E-01 -0.87416107142E-02  0.70249208116E-01  0.51100000000E-03 0.  1.
         11    1    4    4    0    0  0.41547051639E-01  0.39089519711E-01  0.34017899566E-01  0.66420077258E-01  0.51100000000E-03 0. -1.
</event>
<event>
 8    1  0.2825007E+004  0.1043930E+01  0.7957747E-01            NaN
         13   -1    0    0    0    0  0.00000000000E+00  0.00000000000E+00  0.74505805969E-08  0.10566000000E+00  0.10566000000E+00 0. -1.
     999900   -1    0    0    0    0 -0.00000000000E+00 -0.00000000000E+00 -0.74505805969E-08  0.93827000000E+00  0.93827000000E+00 0.  1.
     999902    2    1    2    0    0  0.29215692435E-02  0.11459173506E-01  0.39813956073E-02  0.10314520300E+01  0.10313765512E+01 0.  0.
     999903    2    3    3    0    0  0.18565846404E-01  0.13176100202E+00 -0.19405264859E-01  0.14282150541E+00  0.48122404327E-01 0.  0.
         14    1    1    2    0    0 -0.29215692435E-02 -0.11459173506E-01 -0.39813956073E-02  0.12477969998E-01  0.00000000000E+00 0.  1.
     999901    1    3    3    0    0 -0.15644277161E-01 -0.12030182851E+00  0.23386660467E-01  0.88863052459E+00  0.88000000000E+00 0. -1.
        -11    1    4    4    0    0  0.34599905353E-01  0.98401644953E-01 -0.11213179893E-01  0.10490964543E+00  0.51100000000E-03 0. -1.
         11    1    4    4    0    0 -0.16034058949E-01  0.33359357062E-01 -0.81920849662E-02  0.37911859979E-01  0.51100000000E-03 0.  1.
</event>
<event>
 8    1  0.2825007E+004  0.1043930E+01  0.7957747E-01            NaN
         13   -1    0    0    0    0  0.00000000000E+00  0.00000000000E+00  0.74505805969E-08  0.10566000000E+00  0.10566000000E+00 0. -1.
     999900   -1    0    0    0    0 -0.00000000000E+00 -0.00000000000E+00 -0.74505805969E-08  0.93827000000E+00  0.93827000000E+00 0.  1.
     999902    2    1    2    0    0  0.96929492846E-02  0.94468693571E-02  0.55851148234E-02  0.10292879334E+01  0.10291837833E+01 0.  0.
     999903    2    3    3    0    0 -0.87424953913E-01 -0.38794259245E-01 -0.87737008350E-01  0.13773417043E+00  0.46095574108E-01 0.  0.
         14    1    1    2    0    0 -0.96929492846E-02 -0.94468693571E-02 -0.55851148234E-02  0.14642066592E-01  0.00000000000E+00 0.  1.
     999901    1    3    3    0    0  0.97117903197E-01  0.48241128602E-01  0.93322123173E-01  0.89155376298E+00  0.88000000000E+00 0. -1.
        -11    1    4    4    0    0 -0.19964590450E-01  0.95455716598E-02 -0.26870719138E-01  0.34813782876E-01  0.51100000000E-03 0.  1.
         11    1    4    4    0    0 -0.67460363463E-01 -0.48339830905E-01 -0.60866289212E-01  0.10292038755E+00  0.51100000000E-03 0. -1.
</event>
<event>
 8    1  0.2825007E+004  0.1043930E+01  0.7957747E-01            NaN
         13   -1    0    0    0    0  0.00000000000E+00  0.00000000000E+00  0.74505805969E-08  0.10566000000E+00  0.10566000000E+00 0. -1.
     999900   -1    0    0    0    0 -0.00000000000E+00 -0.00000000000E+00 -0.74505805969E-08  0.93827000000E+00  0.93827000000E+00 0.  1.
     999902    2    1    2    0    0  0.39639613716E-02  0.25909478989E-02  0.14330235018E-01  0.10288375636E+01  0.10287268591E+01 0.  0.
     999903    2    3    3    0    0  0.10734796655E-01  0.78835599138E-01  0.10704059967E+00  0.14066286076E+00  0.44699696517E-01 0.  0.
         14    1    1    2    0    0 -0.39639613716E-02 -0.25909478989E-02 -0.14330235018E-01  0.15092436399E-01  0.00000000000E+00 0.  1.
     999901    1    3    3    0    0 -0.67708352832E-02 -0.76244651239E-01 -0.92710364652E-01  0.88817470284E+00  0.88000000000E+00 0.  1.
        -11    1    4    4    0    0 -0.34522974182E-02  0.75642432475E-01  0.96658745058E-01  0.12278790684E+00  0.51100000000E-03 0.  1.
         11    1    4    4    0    0  0.14187094073E-01  0.31931666636E-02  0.10381854613E-01  0.17874953924E-01  0.51100000000E-03 0. -1.
</event>
<event>
 8    1  0.2825007E+004  0.1043930E+01  0.7957747E-01            NaN
         13   -1    0    0    0    0  0.00000000000E+00  0.00000000000E+00  0.74505805969E-08  0.10566000000E+00  0.10566000000E+00 0.  1.
     999900   -1    0    0    0    0 -0.00000000000E+00 -0.00000000000E+00 -0.74505805969E-08  0.93827000000E+00  0.93827000000E+00 0.  1.
     999902    2    1    2    0    0  0.11480109757E-02  0.44880851390E-02 -0.12912408291E-01  0.10302117229E+01  0.10301203828E+01 0.  0.
     999903    2    3    3    0    0  0.23290274716E-01 -0.11451841834E+00  0.60104244535E-01  0.13892935506E+00  0.45077050164E-01 0.  0.
         14    1    1    2    0    0 -0.11480109757E-02 -0.44880851390E-02  0.12912408291E-01  0.13718277053E-01  0.00000000000E+00 0.  1.
     999901    1    3    3    0    0 -0.22142263740E-01  0.11900650348E+00 -0.73016652826E-01  0.89128236789E+00  0.88000000000E+00 0.  1.
        -11    1    4    4    0    0  0.21499695700E-01 -0.37455665264E-01  0.35753584701E-02  0.43338298129E-01  0.51100000000E-03 0. -1.
         11    1    4    4    0    0  0.17905790159E-02 -0.77062753076E-01  0.56528886065E-01  0.95591056933E-01  0.51100000000E-03 0.  1.
</event>
<event>
 8    1  0.2825007E+004  0.1043930E+01  0.7957747E-01            NaN
         13   -1    0    0    0    0  0.00000000000E+00  0.00000000000E+00  0.74505805969E-08  0.10566000000E+00  0.10566000000E+00 0.  1.
     999900   -1    0    0    0    0 -0.00000000000E+00 -0.00000000000E+00 -0.74505805969E-08  0.93827000000E+00  0.93827000000E+00 0. -1.
     999902    2    1    2    0    0 -0.96230901837E-02 -0.68732957623E-02  0.72666607931E-02  0.10300501434E+01  0.10299566241E+01 0.  0.
     999903    2    3    3    0    0  0.11186418210E+00  0.67230585965E-01  0.15771011564E-01  0.13857784067E+00  0.43835444469E-01 0.  0.
         14    1    1    2    0    0  0.96230901837E-02  0.68732957623E-02 -0.72666607931E-02  0.13879856570E-01  0.00000000000E+00 0. -1.
     999901    1    3    3    0    0 -0.12148727228E+00 -0.74103881728E-01 -0.85043507713E-02  0.89147230276E+00  0.88000000000E+00 0.  1.
        -11    1    4    4    0    0  0.66344466857E-01  0.19737817774E-01  0.21655735953E-01  0.72528627132E-01  0.51100000000E-03 0.  1.
         11    1    4    4    0    0  0.45519715242E-01  0.47492768192E-01 -0.58847243886E-02  0.66049213533E-01  0.51100000000E-03 0. -1.
</event>
<event>
 8    1  0.2825007E+004  0.1043930E+01  0.7957747E-01            NaN
         13   -1    0    0    0    0  0.00000000000E+00  0.00000000000E+00  0.74505805969E-08  0.10566000000E+00  0.10566000000E+00 0. -1.
     999900   -1    0    0    0    0 -0.00000000000E+00 -0.00000000000E+00 -0.74505805969E-08  0.93827000000E+00  0.93827000000E+00 0. -1.
     999902    2    1    2    0    0 -0.60814405031E-02  0.39417568180E-02 -0.12223246391E-01  0.10297198234E+01  0.10296217683E+01 0.  0.
     999903    2    3    3    0    0 -0.74943359921E-01 -0.10830483243E+00  0.11738421306E-01  0.13959880793E+00  0.44761509328E-01 0.  0.
         14    1    1    2    0    0  0.60814405031E-02 -0.39417568180E-02  0.12223246391E-01  0.14210176556E-01  0.00000000000E+00 0. -1.
     999901    1    3    3    0    0  0.68861919418E-01  0.11224658924E+00 -0.23961667697E-01  0.89012101552E+00  0.88000000000E+00 0.  1.
        -11    1    4    4    0    0 -0.63641169772E-01 -0.84440899617E-01  0.26952609554E-01  0.10911997205E+00  0.51100000000E-03 0.  1.
         11    1    4    4    0    0 -0.11302190148E-01 -0.23863932809E-01 -0.15214188248E-01  0.30478835876E-01  0.51100000000E-03 0. -1.
</event>
<event>
 8    1  0.2825007E+004  0.1043930E+01  0.7957747E-01            NaN
         13   -1    0    0    0    0  0.00000000000E+00  0.00000000000E+00  0.74505805969E-08  0.10566000000E+00  0.10566000000E+00 0. -1.
     999900   -1    0    0    0    0 -0.00000000000E+00 -0.00000000000E+00 -0.74505805969E-08  0.93827000000E+00  0.93827000000E+00 0.  1.
     999902    2    1    2    0    0  0.12511074144E-01 -0.14011447707E-03 -0.62398966455E-02  0.10299484794E+01  0.10298535757E+01 0.  0.
     999903    2    3    3    0    0  0.38848911419E-01 -0.28567529512E-01  0.12243517992E+00  0.13974677476E+00  0.47047275295E-01 0.  0.
         14    1    1    2    0    0 -0.12511074144E-01  0.14011447707E-03  0.62398966455E-02  0.13981520606E-01  0.00000000000E+00 0.  1.
     999901    1    3    3    0    0 -0.26337837274E-01  0.28427415034E-01 -0.12867507657E+00  0.89020170463E+00  0.88000000000E+00 0.  1.
        -11    1    4    4    0    0  0.42503772288E-01 -0.62860758955E-02  0.94600980092E-01  0.10390231934E+00  0.51100000000E-03 0.  1.
         11    1    4    4    0    0 -0.36548608698E-02 -0.22281453616E-01  0.27834199832E-01  0.35844455423E-01  0.51100000000E-03 0. -1.
</event>
<event>
 8    1  0.2825007E+004  0.1043930E+01  0.7957747E-01            NaN
         13   -1    0    0    0    0  0.00000000000E+00  0.00000000000E+00  0.74505805969E-08  0.10566000000E+00  0.10566000000E+00 0.  1.
     999900   -1    0    0    0    0 -0.00000000000E+00 -0.00000000000E+00 -0.74505805969E-08  0.93827000000E+00  0.93827000000E+00 0.  1.
     999902    2    1    2    0    0  0.13478873064E-01  0.23920981383E-02 -0.50302766707E-02  0.10293455619E+01  0.10292422358E+01 0.  0.
     999903    2    3    3    0    0 -0.12216420105E-01 -0.12881085087E+00  0.21932780470E-01  0.13883926296E+00  0.45319067277E-01 0.  0.
         14    1    1    2    0    0 -0.13478873064E-01 -0.23920981383E-02  0.50302766707E-02  0.14584438143E-01  0.00000000000E+00 0. -1.
     999901    1    3    3    0    0  0.25695293169E-01  0.13120294901E+00 -0.26963057141E-01  0.89050629889E+00  0.88000000000E+00 0. -1.
        -11    1    4    4    0    0 -0.80924822722E-02 -0.23620164597E-01 -0.12698815085E-01  0.28016449998E-01  0.51100000000E-03 0.  1.
         11    1    4    4    0    0 -0.41239378326E-02 -0.10519068627E+00  0.34631595555E-01  0.11082281297E+00  0.51100000000E-03 0. -1.
</event>
<event>
 8    1  0.2825007E+004  0.1043930E+01  0.7957747E-01            NaN
         13   -1    0    0    0    0  0.00000000000E+00  0.00000000000E+00  0.74505805969E-08  0.10566000000E+00  0.10566000000E+00 0. -1.
     999900   -1    0    0    0    0 -0.00000000000E+00 -0.00000000000E+00 -0.74505805969E-08  0.93827000000E+00  0.93827000000E+00 0. -1.
     999902    2    1    2    0    0  0.31786614271E-02 -0.98205561513E-02 -0.84551149255E-02  0.10305869801E+01  0.10305006004E+01 0.  0.
     999903    2    3    3    0    0  0.19251585467E-02  0.12749210434E+00  0.29985761892E-01  0.13910841109E+00  0.46840807147E-01 0.  0.
         14    1    1    2    0    0 -0.31786614271E-02  0.98205561513E-02  0.84551149255E-02  0.13343019898E-01  0.00000000000E+00 0.  1.
     999901    1    3    3    0    0  0.12535028804E-02 -0.13731266049E+00 -0.38440876818E-01  0.89147856901E+00  0.88000000000E+00 0.  1.
        -11    1    4    4    0    0  0.23554463826E-01  0.51543344563E-01  0.16212573362E-01  0.58946058315E-01  0.51100000000E-03 0. -1.
         11    1    4    4    0    0 -0.21629305279E-01  0.75948759779E-01  0.13773188530E-01  0.80162352773E-01  0.51100000000E-03 0.  1.
</event>
<event>
 8    1  0.2825007E+004  0.1043930E+01  0.7957747E-01            NaN
         13   -1    0    0    0    0  0.00000000000E+00  0.00000000000E+00  0.74505805969E-08  0.10566000000E+00  0.10566000000E+00 0. -1.
     999900   -1    0    0    0    0 -0.00000000000E+00 -0.00000000000E+00 -0.74505805969E-08  0.93827000000E+00  0.93827000000E+00 0.  1.
     999902    2    1    2    0    0 -0.10082399562E-01 -0.26425419061E-01 -0.43946115371E-03  0.10156430652E+01  0.10152490755E+01 0.  0.
     999903    2    3    3    0    0  0.97099971712E-01  0.59106622290E-01  0.24159122332E-01  0.12468353689E+00  0.45169944360E-01 0.  0.
         14    1    1    2    0    0  0.10082399562E-01  0.26425419061E-01  0.43946115371E-03  0.28286934786E-01  0.00000000000E+00 0.  1.
     999901    1    3    3    0    0 -0.10718237127E+00 -0.85532041351E-01 -0.24598583486E-01  0.89095952833E+00  0.88000000000E+00 0. -1.
        -11    1    4    4    0    0  0.62987561114E-01  0.16884613993E-01 -0.13220649584E-03  0.65213508143E-01  0.51100000000E-03 0.  1.
         11    1    4    4    0    0  0.34112410598E-01  0.42222008297E-01  0.24291328828E-01  0.59470028743E-01  0.51100000000E-03 0. -1.
</event>
<event>
 8    1  0.2825007E+004  0.1043930E+01  0.7957747E-01            NaN
         13   -1    0    0    0    0  0.00000000000E+00  0.00000000000E+00  0.74505805969E-08  0.10566000000E+00  0.10566000000E+00 0.  1.
     999900   -1    0    0    0    0 -0.00000000000E+00 -0.00000000000E+00 -0.74505805969E-08  0.93827000000E+00  0.93827000000E+00 0.  1.
     999902    2    1    2    0    0 -0.10087526822E-01 -0.37470625712E-02  0.86178208482E-02  0.10301435751E+01  0.10300513190E+01 0.  0.
     999903    2    3    3    0    0 -0.11866283135E+00 -0.44471093327E-02 -0.61087151469E-01  0.14073485579E+00  0.44429891242E-01 0.  0.
         14    1    1    2    0    0  0.10087526822E-01  0.37470625712E-02 -0.86178208482E-02  0.13786424898E-01  0.00000000000E+00 0.  1.
     999901    1    3    3    0    0  0.10857530452E+00  0.70004676151E-03  0.69704972317E-01  0.88940871931E+00  0.88000000000E+00 0. -1.
        -11    1    4    4    0    0 -0.78561577453E-01  0.79403522082E-02 -0.18837376139E-01  0.81179298506E-01  0.51100000000E-03 0.  1.
         11    1    4    4    0    0 -0.40101253893E-01 -0.12387461541E-01 -0.42249775331E-01  0.59555557287E-01  0.51100000000E-03 0. -1.
</event>
<event>
 8    1  0.2825007E+004  0.1043930E+01  0.7957747E-01            NaN
         13   -1    0    0    0    0  0.00000000000E+00  0.00000000000E+00  0.74505805969E-08  0.10566000000E+00  0.10566000000E+00 0.  1.
     999900   -1    0    0    0    0 -0.00000000000E+00 -0.00000000000E+00 -0.74505805969E-08  0.93827000000E+00  0.93827000000E+00 0. -1.
     999902    2    1    2    0    0 -0.26521735669E-02  0.13123288263E-01 -0.37703127583E-03  0.10305360882E+01  0.10304490440E+01 0.  0.
     999903    2    3    3    0    0  0.88344832815E-01  0.57792430269E-01  0.81814208743E-01  0.14091190504E+00  0.44920215347E-01 0.  0.
         14    1    1    2    0    0  0.26521735669E-02 -0.13123288263E-01  0.37703127583E-03  0.13393911753E-01  0.00000000000E+00 0.  1.
     999901    1    3    3    0    0 -0.90997006382E-01 -0.44669142006E-01 -0.82191240019E-01  0.88962418321E+00  0.88000000000E+00 0. -1.
        -11    1    4    4    0    0  0.29514969359E-01  0.12242263683E-01  0.51414034051E-01  0.60536521661E-01  0.51100000000E-03 0. -1.
         11    1    4    4    0    0  0.58829863456E-01  0.45550166587E-01  0.30400174692E-01  0.80375383375E-01  0.51100000000E-03 0.  1.
</event>
<event>
 8    1  0.2825007E+004  0.1043930E+01  0.7957747E-01            NaN
         13   -1    0    0    0    0  0.00000000000E+00  0.00000000000E+00  0.74505805969E-08  0.10566000000E+00  0.10566000000E+00 0.  1.
     999900   -1    0    0    0    0 -0.00000000000E+00 -0.00000000000E+00 -0.74505805969E-08  0.93827000000E+00  0.93827000000E+00 0. -1.
     999902    2    1    2    0    0  0.76241499935E-02  0.99183189940E-02  0.54951347235E-02  0.10302662809E+01  0.10301756706E+01 0.  0.
     999903    2    3    3    0    0  0.71491764031E-01  0.70850387940E-01 -0.87599133246E-01  0.14096412082E+00  0.45457952185E-01 0.  0.
         14    1    1    2    0    0 -0.76241499935E-02 -0.99183189940E-02 -0.54951347235E-02  0.13663719128E-01  0.00000000000E+00 0. -1.
     999901    1    3    3    0    0 -0.63867614037E-01 -0.60932068946E-01  0.93094267969E-01  0.88930216005E+00  0.88000000000E+00 0.  1.
        -11    1    4    4    0    0  0.65501077707E-01  0.38083939584E-01 -0.70602720838E-01  0.10356535592E+00  0.51100000000E-03 0.  1.
         11    1    4    4    0    0  0.59906863240E-02  0.32766448356E-01 -0.16996412407E-01  0.37398764902E-01  0.51100000000E-03 0. -1.
</event>
<event>
 8    1  0.2825007E+004  0.1043930E+01  0.7957747E-01            NaN
         13   -1    0    0    0    0  0.00000000000E+00  0.00000000000E+00  0.74505805969E-08  0.10566000000E+00  0.10566000000E+00 0.  1.
     999900   -1    0    0    0    0 -0.00000000000E+00 -0.00000000000E+00 -0.74505805969E-08  0.93827000000E+00  0.93827000000E+00 0. -1.
     999902    2    1    2    0    0 -0.92434040271E-02 -0.41843795522E-02  0.92180245771E-02  0.10302215527E+01  0.10301303442E+01 0.  0.
     999903    2    3    3    0    0 -0.42087616910E-01  0.35876356910E-01 -0.11966533125E+00  0.13932620288E+00  0.45094554245E-01 0.  0.
         14    1    1    2    0    0  0.92434040271E-02  0.41843795522E-02 -0.92180245771E-02  0.13708447299E-01  0.00000000000E+00 0.  1.
     999901    1    3    3    0    0  0.32844212883E-01 -0.40060736462E-01  0.12888335583E+00  0.89089534982E+00  0.88000000000E+00 0.  1.
        -11    1    4    4    0    0 -0.32864596720E-01  0.36257030031E-01 -0.12048550775E+00  0.13004488703E+00  0.51100000000E-03 0.  1.
         11    1    4    4    0    0 -0.92230201897E-02 -0.38067312124E-03  0.82017649346E-03  0.92813158509E-02  0.51100000000E-03 0. -1.
</event>
<event>
 8    1  0.2825007E+004  0.1043930E+01  0.7957747E-01            NaN
         13   -1    0    0    0    0  0.00000000000E+00  0.00000000000E+00  0.74505805969E-08  0.10566000000E+00  0.10566000000E+00 0. -1.
     999900   -1    0    0    0    0 -0.00000000000E+00 -0.00000000000E+00 -0.74505805969E-08  0.93827000000E+00  0.93827000000E+00 0.  1.
     999902    2    1    2    0    0 -0.90268791121E-02  0.10099995737E-01  0.43385708965E-02  0.10297061588E+01  0.10296079137E+01 0.  0.
     999903    2    3    3    0    0  0.61959957377E-01  0.72779173919E-01 -0.90085376319E-01  0.13960296697E+00  0.47305061962E-01 0.  0.
         14    1    1    2    0    0  0.90268791121E-02 -0.10099995737E-01 -0.43385708965E-02  0.14223841176E-01  0.00000000000E+00 0.  1.
     999901    1    3    3    0    0 -0.70986836489E-01 -0.62679178182E-01  0.94423947215E-01  0.89010319185E+00  0.88000000000E+00 0. -1.
        -11    1    4    4    0    0  0.22187515019E-01  0.38419785152E-01 -0.70921965125E-01  0.83657348584E-01  0.51100000000E-03 0. -1.
         11    1    4    4    0    0  0.39772442358E-01  0.34359388766E-01 -0.19163411193E-01  0.55945618390E-01  0.51100000000E-03 0.  1.
</event>
<event>
 8    1  0.2825007E+004  0.1043930E+01  0.7957747E-01            NaN
         13   -1    0    0    0    0  0.00000000000E+00  0.00000000000E+00  0.74505805969E-08  0.10566000000E+00  0.10566000000E+00 0. -1.
     999900   -1    0    0    0    0 -0.00000000000E+00 -0.00000000000E+00 -0.74505805969E-08  0.93827000000E+00  0.93827000000E+00 0. -1.
     999902    2    1    2    0    0  0.55199164694E-02 -0.23542220958E-02  0.12409516256E-01  0.10301456635E+01  0.10300534355E+01 0.  0.
     999903    2    3    3    0    0  0.99655469505E-01  0.86137216328E-01 -0.15606371069E-01  0.14027088186E+00  0.45623774961E-01 0.  0.
         14    1    1    2    0    0 -0.55199164694E-02  0.23542220958E-02 -0.12409516256E-01  0.13784336517E-01  0.00000000000E+00 0.  1.
     999901    1    3    3    0    0 -0.94135553036E-01 -0.88491438423E-01  0.28015887325E-01  0.88987478162E+00  0.88000000000E+00 0.  1.
        -11    1    4    4    0    0  0.80758195366E-01  0.64325231392E-01  0.71807464331E-02  0.10349611467E+00  0.51100000000E-03 0. -1.
         11    1    4    4    0    0  0.18897274139E-01  0.21811984935E-01 -0.22787117502E-01  0.36774767188E-01  0.51100000000E-03 0.  1.
</event>
<event>
 8    1  0.2825007E+004  0.1043930E+01  0.7957747E-01            NaN
         13   -1    0    0    0    0  0.00000000000E+00  0.00000000000E+00  0.74505805969E-08  0.10566000000E+00  0.10566000000E+00 0.  1.
     999900   -1    0    0    0    0 -0.00000000000E+00 -0.00000000000E+00 -0.74505805969E-08  0.93827000000E+00  0.93827000000E+00 0.  1.
     999902    2    1    2    0    0  0.13631102204E-01 -0.86391079620E-03  0.26296018116E-02  0.10300207191E+01  0.10299268002E+01 0.  0.
     999903    2    3    3    0    0  0.97070082583E-01  0.63225846501E-01  0.67282426646E-01  0.14139844379E+00  0.45238107526E-01 0.  0.
         14    1    1    2    0    0 -0.13631102204E-01  0.86391079620E-03 -0.26296018116E-02  0.13909280889E-01  0.00000000000E+00 0. -1.
     999901    1    3    3    0    0 -0.83438980379E-01 -0.64089757297E-01 -0.64652824834E-01  0.88862227532E+00  0.88000000000E+00 0.  1.
        -11    1    4    4    0    0  0.51333652608E-01  0.12100072673E-01  0.44820658561E-01  0.69214942054E-01  0.51100000000E-03 0. -1.
         11    1    4    4    0    0  0.45736429975E-01  0.51125773828E-01  0.22461768085E-01  0.72183501736E-01  0.51100000000E-03 0.  1.
</event>
<event>
 8    1  0.2825007E+004  0.1043930E+01  0.7957747E-01            NaN
         13   -1    0    0    0    0  0.00000000000E+00  0.00000000000E+00  0.74505805969E-08  0.10566000000E+00  0.10566000000E+00 0.  1.
     999900   -1    0    0    0    0 -0.00000000000E+00 -0.00000000000E+00 -0.74505805969E-08  0.93827000000E+00  0.93827000000E+00 0. -1.
     999902    2    1    2    0    0  0.48396512263E-04 -0.79325362466E-02 -0.10796868737E-01  0.10305322447E+01  0.10304451501E+01 0.  0.
     999903    2    3    3    0    0  0.12191241603E+00  0.21146786084E-01  0.47112262604E-01  0.13977418900E+00  0.44804406904E-01 0.  0.
         14    1    1    2    0    0 -0.48396512263E-04  0.79325362466E-02  0.10796868737E-01  0.13397755336E-01  0.00000000000E+00 0.  1.
     999901    1    3    3    0    0 -0.12186401952E+00 -0.29079322331E-01 -0.57909131341E-01  0.89075805567E+00  0.88000000000E+00 0. -1.
        -11    1    4    4    0    0  0.79397962406E-01  0.31166603829E-01  0.44009984423E-01  0.95981943501E-01  0.51100000000E-03 0. -1.
         11    1    4    4    0    0  0.42514453626E-01 -0.10019817745E-01  0.31022781814E-02  0.43792245497E-01  0.51100000000E-03 0.  1.
</event>
<event>
 7    1  0.2825007E+004  0.1043930E+01  0.7957747E-01            NaN
         13   -1    0    0    0    0  0.00000000000E+00  0.00000000000E+00  0.74505805969E-08  0.10566000000E+00  0.10566000000E+00 0.  1.
     999900   -1    0    0    0    0 -0.00000000000E+00 -0.00000000000E+00 -0.74505805969E-08  0.93827000000E+00  0.93827000000E+00 0.  1.
     999902    2    1    2    0    0 -0.42693662937E-02  0.11329415826E-01  0.74295051820E-02  0.10297250467E+01  0.10296270641E+01 0.  0.
         14    1    1    2    0    0  0.42693662937E-02 -0.11329415826E-01 -0.74295051820E-02  0.14204953318E-01  0.00000000000E+00 0.  1.
     999901    1    3    3    0    0  0.11939522195E+00  0.57502404590E-02  0.25100554229E-02  0.88808478462E+00  0.88000000000E+00 0. -1.
        -11    1    3    3    0    0 -0.77000661371E-01  0.34625051541E-01 -0.90856525592E-02  0.84916466302E-01  0.51100000000E-03 0.  1.
         11    1    3    3    0    0 -0.46663926873E-01 -0.29045876174E-01  0.14005102318E-01  0.56723795764E-01  0.51100000000E-03 0. -1.
</event>
<event>
 8    1  0.2825007E+004  0.1043930E+01  0.7957747E-01            NaN
         13   -1    0    0    0    0  0.00000000000E+00  0.00000000000E+00  0.74505805969E-08  0.10566000000E+00  0.10566000000E+00 0.  1.
     999900   -1    0    0    0    0 -0.00000000000E+00 -0.00000000000E+00 -0.74505805969E-08  0.93827000000E+00  0.93827000000E+00 0.  1.
     999902    2    1    2    0    0  0.13835536664E-01  0.12502296004E-02 -0.50735450054E-02  0.10291406117E+01  0.10290343398E+01 0.  0.
     999903    2    3    3    0    0  0.99835802072E-01  0.86040451261E-01  0.19167857578E-01  0.14056136761E+00  0.44943794588E-01 0.  0.
         14    1    1    2    0    0 -0.13835536664E-01 -0.12502296004E-02  0.50735450054E-02  0.14789388349E-01  0.00000000000E+00 0. -1.
     999901    1    3    3    0    0 -0.86000265408E-01 -0.84790221661E-01 -0.24241402583E-01  0.88857924404E+00  0.88000000000E+00 0. -1.
        -11    1    4    4    0    0  0.89005483345E-01  0.62845444647E-01  0.29610737635E-01  0.11290962263E+00  0.51100000000E-03 0. -1.
         11    1    4    4    0    0  0.10830318727E-01  0.23195006614E-01 -0.10442880057E-01  0.27651744980E-01  0.51100000000E-03 0.  1.
</event>
<event>
 8    1  0.2825007E+004  0.1043930E+01  0.7957747E-01            NaN
         13   -1    0    0    0    0  0.00000000000E+00  0.00000000000E+00  0.74505805969E-08  0.10566000000E+00  0.10566000000E+00 0. -1.
     999900   -1    0    0    0    0 -0.00000000000E+00 -0.00000000000E+00 -0.74505805969E-08  0.93827000000E+00  0.93827000000E+00 0.  1.
     999902    2    1    2    0    0 -0.12360825383E-01  0.84751306210E-02  0.12077014653E-02  0.10288941633E+01  0.10287842936E+01 0.  0.
     999903    2    3    3    0    0 -0.61990013441E-01 -0.37265335509E-01 -0.10878758231E+00  0.13948188036E+00  0.48877294179E-01 0.  0.
         14    1    1    2    0    0  0.12360825383E-01 -0.84751306210E-02 -0.12077014653E-02  0.15035836725E-01  0.00000000000E+00 0. -1.
     999901    1    3    3    0    0  0.49629188058E-01  0.45740466130E-01  0.10999528378E+00  0.88941228292E+00  0.88000000000E+00 0. -1.
        -11    1    4    4    0    0 -0.19949155514E-01 -0.15186450899E-01 -0.80253062936E-01  0.84079797384E-01  0.51100000000E-03 0. -1.
         11    1    4    4    0    0 -0.42040857927E-01 -0.22078884611E-01 -0.28534519376E-01  0.55402082975E-01  0.51100000000E-03 0.  1.
</event>
<event>
 8    1  0.2825007E+004  0.1043930E+01  0.7957747E-01            NaN
         13   -1    0    0    0    0  0.00000000000E+00  0.00000000000E+00  0.74505805969E-08  0.10566000000E+00  0.10566000000E+00 0.  1.
     999900   -1    0    0    0    0 -0.00000000000E+00 -0.00000000000E+00 -0.74505805969E-08  0.93827000000E+00  0.93827000000E+00 0.  1.
     999902    2    1    2    0    0 -0.76353863224E-02  0.82520817683E-02  0.43725488417E-02  0.10318670335E+01  0.10317965205E+01 0.  0.
     999903    2    3    3    0    0  0.10832615521E+00 -0.67319778359E-01 -0.35361237311E-01  0.14016250904E+00  0.46136789807E-01 0.  0.
         14    1    1    2    0    0  0.76353863224E-02 -0.82520817683E-02 -0.43725488417E-02  0.12062966516E-01  0.00000000000E+00 0. -1.
     999901    1    3    3    0    0 -0.11596154153E+00  0.75571860128E-01  0.39733786153E-01  0.89170452445E+00  0.88000000000E+00 0. -1.
        -11    1    4    4    0    0  0.55516242193E-01 -0.60921215496E-01 -0.20844642477E-01  0.85018867822E-01  0.51100000000E-03 0. -1.
         11    1    4    4    0    0  0.52809913019E-01 -0.63985628639E-02 -0.14516594835E-01  0.55143641214E-01  0.51100000000E-03 0.  1.
</event>
<event>
 8    1  0.2825007E+004  0.1043930E+01  0.7957747E-01            NaN
         13   -1    0    0    0    0  0.00000000000E+00  0.00000000000E+00  0.74505805969E-08  0.10566000000E+00  0.10566000000E+00 0.  1.
     999900   -1    0    0    0    0 -0.00000000000E+00 -0.00000000000E+00 -0.74505805969E-08  0.93827000000E+00  0.93827000000E+00 0. -1.
     999902    2    1    2    0    0  0.64269272683E-02  0.11127038593E-01 -0.84018600860E-02  0.10285772271E+01  0.10284626413E+01 0.  0.
     999903    2    3    3    0    0 -0.13105188763E-02  0.13050353547E+00  0.23513309289E-01  0.13991013867E+00  0.44599113861E-01 0.  0.
         14    1    1    2    0    0 -0.64269272683E-02 -0.11127038593E-01  0.84018600860E-02  0.15352772872E-01  0.00000000000E+00 0. -1.
     999901    1    3    3    0    0  0.77374461445E-02 -0.11937649688E+00 -0.31915169375E-01  0.88866708846E+00  0.88000000000E+00 0.  1.
        -11    1    4    4    0    0  0.60608796984E-03  0.40125347226E-01 -0.13332238940E-01  0.42289721550E-01  0.51100000000E-03 0.  1.
         11    1    4    4    0    0 -0.19166068461E-02  0.90378188246E-01  0.36845548229E-01  0.97620417115E-01  0.51100000000E-03 0. -1.
</event>
<event>
 8    1  0.2825007E+004  0.1043930E+01  0.7957747E-01            NaN
         13   -1    0    0    0    0  0.00000000000E+00  0.00000000000E+00  0.74505805969E-08  0.10566000000E+00  0.10566000000E+00 0. -1.
     999900   -1    0    0    0    0 -0.00000000000E+00 -0.00000000000E+00 -0.74505805969E-08  0.93827000000E+00  0.93827000000E+00 0. -1.
     999902    2    1    2    0    0 -0.19483174287E-02 -0.10912133496E-01 -0.46544983651E-02  0.10319077309E+01  0.10318376957E+01 0.  0.
     999903    2    3    3    0    0  0.36331325274E-01 -0.10025764049E+00 -0.84133907327E-01  0.14299551530E+00  0.44695003772E-01 0.  0.
         14    1    1    2    0    0  0.19483174287E-02  0.10912133496E-01  0.46544983651E-02  0.12022269056E-01  0.00000000000E+00 0.  1.
     999901    1    3    3    0    0 -0.38279642703E-01  0.89345506993E-01  0.79479408962E-01  0.88891221564E+00  0.88000000000E+00 0.  1.
        -11    1    4    4    0    0  0.32914708310E-01 -0.66467323231E-01 -0.79477086829E-01  0.10871132201E+00  0.51100000000E-03 0. -1.
         11    1    4    4    0    0  0.34166169642E-02 -0.33790317258E-01 -0.46568204986E-02  0.34284193297E-01  0.51100000000E-03 0.  1.
</event>
<event>
 8    1  0.2825007E+004  0.1043930E+01  0.7957747E-01            NaN
         13   -1    0    0    0    0  0.00000000000E+00  0.00000000000E+00  0.74505805969E-08  0.10566000000E+00  0.10566000000E+00 0.  1.
     999900   -1    0    0    0    0 -0.00000000000E+00 -0.00000000000E+00 -0.74505805969E-08  0.93827000000E+00  0.93827000000E+00 0.  1.
     999902    2    1    2    0    0  0.17006871250E-02 -0.37786981419E-02 -0.10907208812E-01  0.10322621767E+01  0.10321962330E+01 0.  0.
     999903    2    3    3    0    0  0.49884388637E-02  0.58969475559E-01 -0.12216742704E+00  0.14303387150E+00  0.45072437240E-01 0.  0.
         14    1    1    2    0    0 -0.17006871250E-02  0.37786981419E-02  0.10907208812E-01  0.11667823294E-01  0.00000000000E+00 0.  1.
     999901    1    3    3    0    0 -0.32877517388E-02 -0.62748173701E-01  0.11126021822E+00  0.88922830520E+00  0.88000000000E+00 0.  1.
        -11    1    4    4    0    0 -0.17386495622E-02  0.36589596500E-01 -0.28278799927E-01  0.46279294729E-01  0.51100000000E-03 0.  1.
         11    1    4    4    0    0  0.67270884259E-02  0.22379879059E-01 -0.93888627109E-01  0.96754576774E-01  0.51100000000E-03 0. -1.
</event>
<event>
 8    1  0.2825007E+004  0.1043930E+01  0.7957747E-01            NaN
         13   -1    0    0    0    0  0.00000000000E+00  0.00000000000E+00  0.74505805969E-08  0.10566000000E+00  0.10566000000E+00 0.  1.
     999900   -1    0    0    0    0 -0.00000000000E+00 -0.00000000000E+00 -0.74505805969E-08  0.93827000000E+00  0.93827000000E+00 0. -1.
     999902    2    1    2    0    0 -0.47856657316E-02 -0.10657662993E-01  0.51830890191E-02  0.10311490459E+01  0.10310698337E+01 0.  0.
     999903    2    3    3    0    0 -0.65858165338E-01 -0.43817468316E-01 -0.10788142459E+00  0.14119791960E+00  0.45179445054E-01 0.  0.
         14    1    1    2    0    0  0.47856657316E-02  0.10657662993E-01 -0.51830890191E-02  0.12780954141E-01  0.00000000000E+00 0. -1.
     999901    1    3    3    0    0  0.61072499606E-01  0.33159805322E-01  0.11306451361E+00  0.88995112626E+00  0.88000000000E+00 0.  1.
        -11    1    4    4    0    0 -0.74480019924E-02 -0.10179413988E-01 -0.52389217755E-01  0.53888630162E-01  0.51100000000E-03 0.  1.
         11    1    4    4    0    0 -0.58410163345E-01 -0.33638054328E-01 -0.55492206836E-01  0.87309289434E-01  0.51100000000E-03 0. -1.
</event>
<event>
 8    1  0.2825007E+004  0.1043930E+01  0.7957747E-01            NaN
         13   -1    0    0    0    0  0.00000000000E+00  0.00000000000E+00  0.74505805969E-08  0.10566000000E+00  0.10566000000E+00 0. -1.
     999900   -1    0    0    0    0 -0.00000000000E+00 -0.00000000000E+00 -0.74505805969E-08  0.93827000000E+00  0.93827000000E+00 0.  1.
     999902    2    1    2    0    0 -0.13813288319E-01  0.63108508521E-02 -0.77923882508E-02  0.10268608733E+01  0.10267189966E+01 0.  0.
     999903    2    3    3    0    0  0.90630258971E-01  0.32327558180E-01  0.84355821368E-01  0.13552669567E+00  0.44639285168E-01 0.  0.
         14    1    1    2    0    0  0.13813288319E-01 -0.63108508521E-02  0.77923882508E-02  0.17069126730E-01  0.00000000000E+00 0. -1.
     999901    1    3    3    0    0 -0.10444354729E+00 -0.26016707328E-01 -0.92148209619E-01  0.89133417760E+00  0.88000000000E+00 0.  1.
        -11    1    4    4    0    0  0.53349587898E-01  0.22233925532E-01  0.76879694002E-01  0.96183545600E-01  0.51100000000E-03 0.  1.
         11    1    4    4    0    0  0.37280671073E-01  0.10093632648E-01  0.74761273665E-02  0.39343150065E-01  0.51100000000E-03 0. -1.
</event>
<event>
 8    1  0.2825007E+004  0.1043930E+01  0.7957747E-01            NaN
         13   -1    0    0    0    0  0.00000000000E+00  0.00000000000E+00  0.74505805969E-08  0.10566000000E+00  0.10566000000E+00 0.  1.
     999900   -1    0    0    0    0 -0.00000000000E+00 -0.00000000000E+00 -0.74505805969E-08  0.93827000000E+00  0.93827000000E+00 0.  1.
     999902    2    1    2    0    0 -0.29958458841E-02 -0.12416766243E-01 -0.93915804426E-02  0.10280758851E+01  0.10279536335E+01 0.  0.
     999903    2    3    3    0    0 -0.44779949526E-01 -0.57967320384E-01  0.10801194144E+00  0.13812962196E+00  0.45252169647E-01 0.  0.
         14    1    1    2    0    0  0.29958458841E-02  0.12416766243E-01  0.93915804426E-02  0.15854114914E-01  0.00000000000E+00 0.  1.
     999901    1    3    3    0    0  0.41784103642E-01  0.45550554141E-01 -0.11740352188E+00  0.88994626312E+00  0.88000000000E+00 0. -1.
        -11    1    4    4    0    0 -0.17056194461E-01 -0.10051129527E-01  0.65213876170E-01  0.68154601755E-01  0.51100000000E-03 0. -1.
         11    1    4    4    0    0 -0.27723755065E-01 -0.47916190857E-01  0.42798065269E-01  0.69975020207E-01  0.51100000000E-03 0.  1.
</event>
<event>
 8    1  0.2825007E+004  0.1043930E+01  0.7957747E-01            NaN
         13   -1    0    0    0    0  0.00000000000E+00  0.00000000000E+00  0.74505805969E-08  0.10566000000E+00  0.10566000000E+00 0.  1.
     999900   -1    0    0    0    0 -0.00000000000E+00 -0.00000000000E+00 -0.74505805969E-08  0.93827000000E+00  0.93827000000E+00 0.  1.
     999902    2    1    2    0    0  0.10390306406E-01 -0.90930308828E-02  0.30366252127E-03  0.10301193560E+01  0.10300267733E+01 0.  0.
     999903    2    3    3    0    0  0.12758396279E+00 -0.40502625809E-01  0.23871675781E-01  0.14148199067E+00  0.39104558811E-01 0.  0.
         14    1    1    2    0    0 -0.10390306406E-01  0.90930308828E-02 -0.30366252127E-03  0.13810644039E-01  0.00000000000E+00 0.  1.
     999901    1    3    3    0    0 -0.11719365638E+00  0.31409594926E-01 -0.23568013260E-01  0.88863736530E+00  0.88000000000E+00 0.  1.
        -11    1    4    4    0    0  0.79761422563E-01 -0.44454112886E-01  0.18767954209E-01  0.93223118956E-01  0.51100000000E-03 0.  1.
         11    1    4    4    0    0  0.47822540226E-01  0.39514870769E-02  0.51037215715E-02  0.48258871710E-01  0.51100000000E-03 0. -1.
</event>
<event>
 8    1  0.2825007E+004  0.1043930E+01  0.7957747E-01            NaN
         13   -1    0    0    0    0  0.00000000000E+00  0.00000000000E+00  0.74505805969E-08  0.10566000000E+00  0.10566000000E+00 0. -1.
     999900   -1    0    0    0    0 -0.00000000000E+00 -0.00000000000E+00 -0.74505805969E-08  0.93827000000E+00  0.93827000000E+00 0. -1.
     999902    2    1    2    0    0  0.36406271986E-02  0.11641745862E-01 -0.54464966351E-02  0.10305715293E+01  0.10304849481E+01 0.  0.
     999903    2    3    3    0    0 -0.15649124714E-01 -0.81202754210E-01  0.10229315084E+00  0.13894378898E+00  0.44751596520E-01 0.  0.
         14    1    1    2    0    0 -0.36406271986E-02 -0.11641745862E-01  0.54464966351E-02  0.13358470672E-01  0.00000000000E+00 0. -1.
     999901    1    3    3    0    0  0.19289751913E-01  0.92844500072E-01 -0.10773964748E+00  0.89162774035E+00  0.88000000000E+00 0.  1.
        -11    1    4    4    0    0  0.19643663815E-02 -0.65433192173E-01  0.92562679753E-01  0.11337315457E+00  0.51100000000E-03 0.  1.
         11    1    4    4    0    0 -0.17613491096E-01 -0.15769562037E-01  0.97304710875E-02  0.25570634408E-01  0.51100000000E-03 0. -1.
</event>
<event>
 7    1  0.2825007E+004  0.1043930E+01  0.7957747E-01            NaN
         13   -1    0    0    0    0  0.00000000000E+00  0.00000000000E+00  0.74505805969E-08  0.10566000000E+00  0.10566000000E+00 0. -1.
     999900   -1    0    0    0    0 -0.00000000000E+00 -0.00000000000E+00 -0.74505805969E-08  0.93827000000E+00  0.93827000000E+00 0.  1.
     999903    2    1    2    0    0 -0.84558739028E-01  0.31882627865E-01 -0.74050693695E-01  0.12421954017E+00  0.42193679838E-01 0.  0.
         14    1    1    2    0    0 -0.74258762344E-02  0.25044201836E-01 -0.12335642467E-01  0.28888124870E-01  0.00000000000E+00 0. -1.
     999901    1    1    2    0    0  0.91984615262E-01 -0.56926829701E-01  0.86386336162E-01  0.89082233496E+00  0.88000000000E+00 0. -1.
        -11    1    3    3    0    0 -0.69352004320E-01  0.42259745278E-01 -0.58125723102E-01  0.99872155185E-01  0.51100000000E-03 0. -1.
         11    1    3    3    0    0 -0.15206734707E-01 -0.10377117414E-01 -0.15924970593E-01  0.24347384986E-01  0.51100000000E-03 0.  1.
</event>
<event>
 8    1  0.2825007E+004  0.1043930E+01  0.7957747E-01            NaN
         13   -1    0    0    0    0  0.00000000000E+00  0.00000000000E+00  0.74505805969E-08  0.10566000000E+00  0.10566000000E+00 0. -1.
     999900   -1    0    0    0    0 -0.00000000000E+00 -0.00000000000E+00 -0.74505805969E-08  0.93827000000E+00  0.93827000000E+00 0. -1.
     999902    2    1    2    0    0  0.40312937705E-02  0.26419401425E-02 -0.12305331656E-01  0.10307143894E+01  0.10306296619E+01 0.  0.
     999903    2    3    3    0    0  0.60137895031E-01  0.67915375158E-01 -0.99426001680E-01  0.14223333545E+00  0.45997035798E-01 0.  0.
         14    1    1    2    0    0 -0.40312937705E-02 -0.26419401425E-02  0.12305331656E-01  0.13215610631E-01  0.00000000000E+00 0. -1.
     999901    1    3    3    0    0 -0.56106601261E-01 -0.65273435016E-01  0.87120670024E-01  0.88848105392E+00  0.88000000000E+00 0.  1.
        -11    1    4    4    0    0  0.37326222125E-01  0.88326306659E-02 -0.36394049491E-01  0.52877690778E-01  0.51100000000E-03 0. -1.
         11    1    4    4    0    0  0.22811672906E-01  0.59082744492E-01 -0.63031952189E-01  0.89355644675E-01  0.51100000000E-03 0.  1.
</event>
<event>
 8    1  0.2825007E+004  0.1043930E+01  0.7957747E-01            NaN
         13   -1    0    0    0    0  0.00000000000E+00  0.00000000000E+00  0.74505805969E-08  0.10566000000E+00  0.10566000000E+00 0. -1.
     999900   -1    0    0    0    0 -0.00000000000E+00 -0.00000000000E+00 -0.74505805969E-08  0.93827000000E+00  0.93827000000E+00 0. -1.
     999902    2    1    2    0    0 -0.12384934780E-01 -0.14718428470E-02 -0.47149534985E-02  0.10305964439E+01  0.10305101875E+01 0.  0.
     999903    2    3    3    0    0 -0.13474390469E+00 -0.39166097420E-02  0.55539233948E-02  0.14206780386E+00  0.44510169014E-01 0.  0.
         14    1    1    2    0    0  0.12384934780E-01  0.14718428470E-02  0.47149534985E-02  0.13333556066E-01  0.00000000000E+00 0.  1.
     999901    1    3    3    0    0  0.12235896991E+00  0.24447668950E-02 -0.10268876893E-01  0.88852864008E+00  0.88000000000E+00 0. -1.
        -11    1    4    4    0    0 -0.58082223429E-01  0.19564272644E-01  0.82511215175E-02  0.61843735090E-01  0.51100000000E-03 0. -1.
         11    1    4    4    0    0 -0.76661681258E-01 -0.23480882386E-01 -0.26971981227E-02  0.80224068768E-01  0.51100000000E-03 0.  1.
</event>
<event>
 8    1  0.2825007E+004  0.1043930E+01  0.7957747E-01            NaN
         13   -1    0    0    0    0  0.00000000000E+00  0.00000000000E+00  0.74505805969E-08  0.10566000000E+00  0.10566000000E+00 0. -1.
     999900   -1    0    0    0    0 -0.00000000000E+00 -0.00000000000E+00 -0.74505805969E-08  0.93827000000E+00  0.93827000000E+00 0. -1.
     999902    2    1    2    0    0  0.35678296093E-02 -0.25999280217E-02  0.13263734406E-01  0.10299508840E+01  0.10298560131E+01 0.  0.
     999903    2    3    3    0    0 -0.66466883383E-03  0.57295736204E-01 -0.11704215075E+00  0.13833155472E+00  0.46405935032E-01 0.  0.
         14    1    1    2    0    0 -0.35678296093E-02  0.25999280217E-02 -0.13263734406E-01  0.13979116004E-01  0.00000000000E+00 0.  1.
     999901    1    3    3    0    0  0.42324984431E-02 -0.59895664226E-01  0.13030588516E+00  0.89161932928E+00  0.88000000000E+00 0.  1.
        -11    1    4    4    0    0  0.20546479265E-01  0.37740439063E-01 -0.84772592402E-01  0.95042896075E-01  0.51100000000E-03 0.  1.
         11    1    4    4    0    0 -0.21211148099E-01  0.19555297141E-01 -0.32269558350E-01  0.43288658643E-01  0.51100000000E-03 0. -1.
</event>
<event>
 8    1  0.2825007E+004  0.1043930E+01  0.7957747E-01            NaN
         13   -1    0    0    0    0  0.00000000000E+00  0.00000000000E+00  0.74505805969E-08  0.10566000000E+00  0.10566000000E+00 0.  1.
     999900   -1    0    0    0    0 -0.00000000000E+00 -0.00000000000E+00 -0.74505805969E-08  0.93827000000E+00  0.93827000000E+00 0.  1.
     999902    2    1    2    0    0  0.30552096301E-02  0.25810687905E-03  0.13633379354E-01  0.10299560973E+01  0.10298612976E+01 0.  0.
     999903    2    3    3    0    0 -0.12466435986E+00 -0.50263329133E-03 -0.43595817003E-01  0.13889602742E+00  0.43012276308E-01 0.  0.
         14    1    1    2    0    0 -0.30552096301E-02 -0.25810687905E-03 -0.13633379354E-01  0.13973902735E-01  0.00000000000E+00 0. -1.
     999901    1    3    3    0    0  0.12771956949E+00  0.76074017038E-03  0.57229196356E-01  0.89106006984E+00  0.88000000000E+00 0. -1.
        -11    1    4    4    0    0 -0.35415276216E-01 -0.84765258335E-02  0.53234738307E-02  0.36806164895E-01  0.51100000000E-03 0. -1.
         11    1    4    4    0    0 -0.89249083645E-01  0.79738925422E-02 -0.48919290834E-01  0.10208986253E+00  0.51100000000E-03 0.  1.
</event>
<event>
 8    1  0.2825007E+004  0.1043930E+01  0.7957747E-01            NaN
         13   -1    0    0    0    0  0.00000000000E+00  0.00000000000E+00  0.74505805969E-08  0.10566000000E+00  0.10566000000E+00 0. -1.
     999900   -1    0    0    0    0 -0.00000000000E+00 -0.00000000000E+00 -0.74505805969E-08  0.93827000000E+00  0.93827000000E+00 0. -1.
     999902    2    1    2    0    0 -0.74155001589E-02 -0.70710189183E-02  0.91079179727E-02  0.10302207651E+01  0.10301295461E+01 0.  0.
     999903    2    3    3    0    0  0.28229029702E-02 -0.73387410101E-01  0.11198538396E+00  0.14169025825E+00  0.46278745859E-01 0.  0.
         14    1    1    2    0    0  0.74155001589E-02  0.70710189183E-02 -0.91079179727E-02  0.13709234878E-01  0.00000000000E+00 0.  1.
     999901    1    3    3    0    0 -0.10238403129E-01  0.66316391183E-01 -0.10287746599E+00  0.88853050687E+00  0.88000000000E+00 0. -1.
        -11    1    4    4    0    0  0.68925536355E-02 -0.13300600150E-01  0.60894779346E-01  0.62712427258E-01  0.51100000000E-03 0. -1.
         11    1    4    4    0    0 -0.40696506653E-02 -0.60086809951E-01  0.51090604617E-01  0.78977830990E-01  0.51100000000E-03 0.  1.
</event>
<event>
 8    1  0.2825007E+004  0.1043930E+01  0.7957747E-01            NaN
         13   -1    0    0    0    0  0.00000000000E+00  0.00000000000E+00  0.74505805969E-08  0.10566000000E+00  0.10566000000E+00 0.  1.
     999900   -1    0    0    0    0 -0.00000000000E+00 -0.00000000000E+00 -0.74505805969E-08  0.93827000000E+00  0.93827000000E+00 0. -1.
     999902    2    1    2    0    0  0.11674436468E-01  0.65590545552E-03  0.62703420938E-02  0.10306619983E+01  0.10305765934E+01 0.  0.
     999903    2    3    3    0    0  0.39443595874E-01  0.12643776374E+00  0.18840277149E-01  0.14119575086E+00  0.45155051361E-01 0.  0.
         14    1    1    2    0    0 -0.11674436468E-01 -0.65590545552E-03 -0.62703420938E-02  0.13268001688E-01  0.00000000000E+00 0.  1.
     999901    1    3    3    0    0 -0.27769159406E-01 -0.12578185828E+00 -0.12569935055E-01  0.88946624745E+00  0.88000000000E+00 0. -1.
        -11    1    4    4    0    0 -0.66634025534E-02  0.48756065629E-01  0.16547908181E-02  0.49239763636E-01  0.51100000000E-03 0.  1.
         11    1    4    4    0    0  0.46106998427E-01  0.77681698110E-01  0.17185486331E-01  0.91955987226E-01  0.51100000000E-03 0. -1.
</event>
<event>
 8    1  0.2825007E+004  0.1043930E+01  0.7957747E-01            NaN
         13   -1    0    0    0    0  0.00000000000E+00  0.00000000000E+00  0.74505805969E-08  0.10566000000E+00  0.10566000000E+00 0. -1.
     999900   -1    0    0    0    0 -0.00000000000E+00 -0.00000000000E+00 -0.74505805969E-08  0.93827000000E+00  0.93827000000E+00 0.  1.
     999902    2    1    2    0    0  0.11798997585E-01  0.53661615850E-02 -0.24216017571E-02  0.10307437879E+01  0.10306594395E+01 0.  0.
     999903    2    3    3    0    0  0.49924165524E-01 -0.11532631632E+00 -0.44367741416E-01  0.14069902427E+00  0.45112497302E-01 0.  0.
         14    1    1    2    0    0 -0.11798997585E-01 -0.53661615850E-02  0.24216017571E-02  0.13186212089E-01  0.00000000000E+00 0.  1.
     999901    1    3    3    0    0 -0.38125167939E-01  0.12069247791E+00  0.41946139659E-01  0.89004476364E+00  0.88000000000E+00 0. -1.
        -11    1    4    4    0    0  0.95553269356E-02 -0.77848072976E-01 -0.26083002080E-01  0.82657188782E-01  0.51100000000E-03 0. -1.
         11    1    4    4    0    0  0.40368838589E-01 -0.37478243345E-01 -0.18284739337E-01  0.58041835488E-01  0.51100000000E-03 0.  1.
</event>
<event>
 8    1  0.2825007E+004  0.1043930E+01  0.7957747E-01            NaN
         13   -1    0    0    0    0  0.00000000000E+00  0.00000000000E+00  0.74505805969E-08  0.10566000000E+00  0.10566000000E+00 0. -1.
     999900   -1    0    0    0    0 -0.00000000000E+00 -0.00000000000E+00 -0.74505805969E-08  0.93827000000E+00  0.93827000000E+00 0.  1.
     999902    2    1    2    0    0  0.13973393435E-01  0.28835858162E-02 -0.97520217070E-04  0.10296618431E+01  0.10295629805E+01 0.  0.
     999903    2    3    3    0    0 -0.62162315321E-01  0.79976352585E-01 -0.83835158925E-01  0.13907106559E+00  0.45299635702E-01 0.  0.
         14    1    1    2    0    0 -0.13973393435E-01 -0.28835858162E-02  0.97520217070E-04  0.14268156904E-01  0.00000000000E+00 0. -1.
     999901    1    3    3    0    0  0.76135708755E-01 -0.77092766769E-01  0.83737638708E-01  0.89059077750E+00  0.88000000000E+00 0. -1.
        -11    1    4    4    0    0 -0.31339913466E-01  0.37461042619E-01 -0.68930378156E-01  0.84481820790E-01  0.51100000000E-03 0.  1.
         11    1    4    4    0    0 -0.30822401854E-01  0.42515309966E-01 -0.14904780768E-01  0.54589244804E-01  0.51100000000E-03 0. -1.
</event>
<event>
 8    1  0.2825007E+004  0.1043930E+01  0.7957747E-01            NaN
         13   -1    0    0    0    0  0.00000000000E+00  0.00000000000E+00  0.74505805969E-08  0.10566000000E+00  0.10566000000E+00 0. -1.
     999900   -1    0    0    0    0 -0.00000000000E+00 -0.00000000000E+00 -0.74505805969E-08  0.93827000000E+00  0.93827000000E+00 0.  1.
     999902    2    1    2    0    0  0.29711452249E-02  0.12137371992E-01  0.48921155875E-02  0.10305107490E+01  0.10304233729E+01 0.  0.
     999903    2    3    3    0    0  0.53755764262E-01 -0.88240593631E-01  0.83603139861E-01  0.13986478181E+00  0.43549829384E-01 0.  0.
         14    1    1    2    0    0 -0.29711452249E-02 -0.12137371992E-01 -0.48921155875E-02  0.13419251012E-01  0.00000000000E+00 0. -1.
     999901    1    3    3    0    0 -0.50784619037E-01  0.10037796562E+00 -0.78711024274E-01  0.89064596718E+00  0.88000000000E+00 0.  1.
        -11    1    4    4    0    0  0.35567937013E-01 -0.69763572602E-01  0.37173588694E-01  0.86684318207E-01  0.51100000000E-03 0. -1.
         11    1    4    4    0    0  0.18187827249E-01 -0.18477021030E-01  0.46429551167E-01  0.53180463600E-01  0.51100000000E-03 0.  1.
</event>
<event>
 8    1  0.2825007E+004  0.1043930E+01  0.7957747E-01            NaN
         13   -1    0    0    0    0  0.00000000000E+00  0.00000000000E+00  0.74505805969E-08  0.10566000000E+00  0.10566000000E+00 0.  1.
     999900   -1    0    0    0    0 -0.00000000000E+00 -0.00000000000E+00 -0.74505805969E-08  0.93827000000E+00  0.93827000000E+00 0.  1.
     999902    2    1    2    0    0 -0.53416982679E-02  0.80389394641E-02  0.10316599928E-01  0.10298023490E+01  0.10297054373E+01 0.  0.
     999903    2    3    3    0    0  0.21288277749E-01  0.78942840934E-01  0.10625494199E+00  0.14135387874E+00  0.44784410605E-01 0.  0.
         14    1    1    2    0    0  0.53416982679E-02 -0.80389394641E-02 -0.10316599928E-01  0.14127650979E-01  0.00000000000E+00 0. -1.
     999901    1    3    3    0    0 -0.26629976017E-01 -0.70903901470E-01 -0.95938342063E-01  0.88844847028E+00  0.88000000000E+00 0.  1.
        -11    1    4    4    0    0  0.78002751029E-02  0.44197241548E-01  0.23660572588E-01  0.50737799206E-01  0.51100000000E-03 0.  1.
         11    1    4    4    0    0  0.13488002646E-01  0.34745599386E-01  0.82594369403E-01  0.90616079534E-01  0.51100000000E-03 0. -1.
</event>
<event>
 7    1  0.2825007E+004  0.1043930E+01  0.7957747E-01            NaN
         13   -1    0    0    0    0  0.00000000000E+00  0.00000000000E+00  0.74505805969E-08  0.10566000000E+00  0.10566000000E+00 0. -1.
     999900   -1    0    0    0    0 -0.00000000000E+00 -0.00000000000E+00 -0.74505805969E-08  0.93827000000E+00  0.93827000000E+00 0.  1.
     999903    2    1    2    0    0 -0.19776131964E-01  0.47551796420E-01 -0.74929886860E-01  0.10138311939E+00  0.44852872968E-01 0.  0.
         14    1    1    2    0    0  0.54589893555E-02  0.14454813524E-01 -0.49191378056E-01  0.51560972390E-01  0.00000000000E+00 0.  1.
     999901    1    1    2    0    0  0.14317142609E-01 -0.62006609943E-01  0.12412126492E+00  0.89098590822E+00  0.88000000000E+00 0. -1.
        -11    1    3    3    0    0 -0.13872257027E-01  0.49748499238E-02 -0.49022698616E-01  0.51192526285E-01  0.51100000000E-03 0.  1.
         11    1    3    3    0    0 -0.59038749378E-02  0.42576946496E-01 -0.25907188243E-01  0.50190593101E-01  0.51100000000E-03 0. -1.
</event>
<event>
 8    1  0.2825007E+004  0.1043930E+01  0.7957747E-01            NaN
         13   -1    0    0    0    0  0.00000000000E+00  0.00000000000E+00  0.74505805969E-08  0.10566000000E+00  0.10566000000E+00 0. -1.
     999900   -1    0    0    0    0 -0.00000000000E+00 -0.00000000000E+00 -0.74505805969E-08  0.93827000000E+00  0.93827000000E+00 0. -1.
     999902    2    1    2    0    0  0.11082626718E-01  0.10720238500E-01 -0.14263093250E-01  0.10229256205E+01  0.10227099497E+01 0.  0.
     999903    2    3    3    0    0  0.12609376901E+00  0.15097090312E-01 -0.11836014941E-01  0.13542767100E+00  0.45530232851E-01 0.  0.
         14    1    1    2    0    0 -0.11082626718E-01 -0.10720238500E-01  0.14263093250E-01  0.21004379485E-01  0.00000000000E+00 0. -1.
     999901    1    3    3    0    0 -0.11501114229E+00 -0.43768518119E-02 -0.24270783095E-02  0.88749794951E+00  0.88000000000E+00 0.  1.
        -11    1    4    4    0    0  0.57338430430E-01  0.27902099197E-01 -0.14655583823E-01  0.65431414489E-01  0.51100000000E-03 0.  1.
         11    1    4    4    0    0  0.68755338582E-01 -0.12805008885E-01  0.28195688825E-02  0.69996256512E-01  0.51100000000E-03 0. -1.
</event>
<event>
 8    1  0.2825007E+004  0.1043930E+01  0.7957747E-01            NaN
         13   -1    0    0    0    0  0.00000000000E+00  0.00000000000E+00  0.74505805969E-08  0.10566000000E+00  0.10566000000E+00 0.  1.
     999900   -1    0    0    0    0 -0.00000000000E+00 -0.00000000000E+00 -0.74505805969E-08  0.93827000000E+00  0.93827000000E+00 0. -1.
     999902    2    1    2    0    0  0.17027574169E-02  0.14012506299E-01  0.49330940890E-02  0.10289772366E+01  0.10288685865E+01 0.  0.
     999903    2    3    3    0    0 -0.71839532351E-01 -0.88185081942E-01 -0.62803895558E-01  0.13743861423E+00  0.44805315533E-01 0.  0.
         14    1    1    2    0    0 -0.17027574169E-02 -0.14012506299E-01 -0.49330940890E-02  0.14952763387E-01  0.00000000000E+00 0.  1.
     999901    1    3    3    0    0  0.73542289768E-01  0.10219758824E+00  0.67736989647E-01  0.89153862238E+00  0.88000000000E+00 0.  1.
        -11    1    4    4    0    0 -0.26128815646E-01 -0.39882730508E-02 -0.14202928184E-01  0.30010091952E-01  0.51100000000E-03 0. -1.
         11    1    4    4    0    0 -0.45710716705E-01 -0.84196808891E-01 -0.48600967374E-01  0.10742852228E+00  0.51100000000E-03 0.  1.
</event>
<event>
 8    1  0.2825007E+004  0.1043930E+01  0.7957747E-01            NaN
         13   -1    0    0    0    0  0.00000000000E+00  0.00000000000E+00  0.74505805969E-08  0.10566000000E+00  0.10566000000E+00 0. -1.
     999900   -1    0    0    0    0 -0.00000000000E+00 -0.00000000000E+00 -0.74505805969E-08  0.93827000000E+00  0.93827000000E+00 0. -1.
     999902    2    1    2    0    0  0.20549055834E-01 -0.91267645126E-02 -0.10917647085E-01  0.10189348696E+01  0.10186282501E+01 0.  0.
     999903    2    3    3    0    0 -0.91983681135E-01  0.11642529975E-01  0.74781062354E-01  0.12739729367E+00  0.45180936783E-01 0.  0.
         14    1    1    2    0    0 -0.20549055834E-01  0.91267645126E-02  0.10917647085E-01  0.24995130406E-01  0.00000000000E+00 0. -1.
     999901    1    3    3    0    0  0.11253273697E+00 -0.20769294488E-01 -0.85698709438E-01  0.89153757592E+00  0.88000000000E+00 0. -1.
        -11    1    4    4    0    0 -0.29913796370E-01  0.14243205051E-01  0.51115621187E-01  0.60916105865E-01  0.51100000000E-03 0. -1.
         11    1    4    4    0    0 -0.62069884765E-01 -0.26006750754E-02  0.23665441167E-01  0.66481187807E-01  0.51100000000E-03 0.  1.
</event>
<event>
 8    1  0.2825007E+004  0.1043930E+01  0.7957747E-01            NaN
         13   -1    0    0    0    0  0.00000000000E+00  0.00000000000E+00  0.74505805969E-08  0.10566000000E+00  0.10566000000E+00 0. -1.
     999900   -1    0    0    0    0 -0.00000000000E+00 -0.00000000000E+00 -0.74505805969E-08  0.93827000000E+00  0.93827000000E+00 0. -1.
     999902    2    1    2    0    0 -0.35822820137E-02  0.15779530429E-02  0.13540580275E-01  0.10298349656E+01  0.10297385039E+01 0.  0.
     999903    2    3    3    0    0  0.87091784368E-01  0.99033662303E-01 -0.22504729766E-01  0.13909445011E+00  0.38054671405E-01 0.  0.
         14    1    1    2    0    0  0.35822820137E-02 -0.15779530429E-02 -0.13540580275E-01  0.14095034388E-01  0.00000000000E+00 0.  1.
     999901    1    3    3    0    0 -0.90674066382E-01 -0.97455709260E-01  0.36045310040E-01  0.89074051550E+00  0.88000000000E+00 0. -1.
        -11    1    4    4    0    0  0.35088318756E-01  0.28270866518E-01 -0.24422100647E-01  0.51255557043E-01  0.51100000000E-03 0.  1.
         11    1    4    4    0    0  0.52003465612E-01  0.70762795785E-01  0.19173708809E-02  0.87838893066E-01  0.51100000000E-03 0. -1.
</event>
<event>
 8    1  0.2825007E+004  0.1043930E+01  0.7957747E-01            NaN
         13   -1    0    0    0    0  0.00000000000E+00  0.00000000000E+00  0.74505805969E-08  0.10566000000E+00  0.10566000000E+00 0. -1.
     999900   -1    0    0    0    0 -0.00000000000E+00 -0.00000000000E+00 -0.74505805969E-08  0.93827000000E+00  0.93827000000E+00 0.  1.
     999902    2    1    2    0    0  0.90952753393E-02 -0.10192242619E-01  0.17542589755E-02  0.10301574451E+01  0.10300653758E+01 0.  0.
     999903    2    3    3    0    0  0.50763469732E-01  0.65210769041E-01  0.10411280390E+00  0.14004558457E+00  0.44089857841E-01 0.  0.
         14    1    1    2    0    0 -0.90952753393E-02  0.10192242619E-01 -0.17542589755E-02  0.13772554870E-01  0.00000000000E+00 0. -1.
     999901    1    3    3    0    0 -0.41668194393E-01 -0.75403011660E-01 -0.10235854492E+00  0.89011186056E+00  0.88000000000E+00 0.  1.
        -11    1    4    4    0    0 -0.71331211313E-03  0.32601410620E-01  0.39628389122E-01  0.51322812998E-01  0.51100000000E-03 0.  1.
         11    1    4    4    0    0  0.51476781845E-01  0.32609358420E-01  0.64484414773E-01  0.88722771572E-01  0.51100000000E-03 0. -1.
</event>
<event>
 8    1  0.2825007E+004  0.1043930E+01  0.7957747E-01            NaN
         13   -1    0    0    0    0  0.00000000000E+00  0.00000000000E+00  0.74505805969E-08  0.10566000000E+00  0.10566000000E+00 0. -1.
     999900   -1    0    0    0    0 -0.00000000000E+00 -0.00000000000E+00 -0.74505805969E-08  0.93827000000E+00  0.93827000000E+00 0. -1.
     999902    2    1    2    0    0  0.89617528843E-02 -0.78800834488E-02 -0.78187495327E-02  0.10296632003E+01  0.10295643566E+01 0.  0.
     999903    2    3    3    0    0  0.67880346706E-01 -0.74770423518E-01 -0.84436637319E-01  0.14184789346E+00  0.52848097946E-01 0.  0.
         14    1    1    2    0    0 -0.89617528843E-02  0.78800834488E-02  0.78187495327E-02  0.14266799717E-01  0.00000000000E+00 0. -1.
     999901    1    3    3    0    0 -0.58918593822E-01  0.66890340069E-01  0.76617887787E-01  0.88781530682E+00  0.88000000000E+00 0.  1.
        -11    1    4    4    0    0  0.86226424990E-02 -0.33437697069E-01 -0.52530415626E-01  0.62866010179E-01  0.51100000000E-03 0. -1.
         11    1    4    4    0    0  0.59257704207E-01 -0.41332726448E-01 -0.31906221693E-01  0.78981883285E-01  0.51100000000E-03 0.  1.
</event>
<event>
 8    1  0.2825007E+004  0.1043930E+01  0.7957747E-01            NaN
         13   -1    0    0    0    0  0.00000000000E+00  0.00000000000E+00  0.74505805969E-08  0.10566000000E+00  0.10566000000E+00 0.  1.
     999900   -1    0    0    0    0 -0.00000000000E+00 -0.00000000000E+00 -0.74505805969E-08  0.93827000000E+00  0.93827000000E+00 0.  1.
     999902    2    1    2    0    0 -0.52662241395E-02 -0.58360770966E-02 -0.12256650101E-01  0.10293691489E+01  0.10292661591E+01 0.  0.
     999903    2    3    3    0    0  0.92607126436E-01 -0.49525476528E-01 -0.81666745399E-01  0.14015279858E+00  0.44096450583E-01 0.  0.
         14    1    1    2    0    0  0.52662241395E-02  0.58360770966E-02  0.12256650101E-01  0.14560851083E-01  0.00000000000E+00 0.  1.
     999901    1    3    3    0    0 -0.97873350575E-01  0.43689399432E-01  0.69410095298E-01  0.88921635034E+00  0.88000000000E+00 0. -1.
        -11    1    4    4    0    0  0.48954223050E-01 -0.44103457054E-01 -0.66508811808E-01  0.93623255912E-01  0.51100000000E-03 0. -1.
         11    1    4    4    0    0  0.43652903386E-01 -0.54220194743E-02 -0.15157933591E-01  0.46529542669E-01  0.51100000000E-03 0.  1.
</event>
<event>
 7    1  0.2825007E+004  0.1043930E+01  0.7957747E-01            NaN
         13   -1    0    0    0    0  0.00000000000E+00  0.00000000000E+00  0.74505805969E-08  0.10566000000E+00  0.10566000000E+00 0.  1.
     999900   -1    0    0    0    0 -0.00000000000E+00 -0.00000000000E+00 -0.74505805969E-08  0.93827000000E+00  0.93827000000E+00 0.  1.
     999903    2    1    2    0    0  0.70997359850E-01 -0.28316537829E-01  0.29744903651E-01  0.93362400399E-01  0.44601873220E-01 0.  0.
         14    1    1    2    0    0  0.57225873260E-01 -0.99783567677E-02  0.12615976712E-01  0.59443511358E-01  0.00000000000E+00 0.  1.
     999901    1    1    2    0    0 -0.12822323311E+00  0.38294894596E-01 -0.42360880363E-01  0.89112408824E+00  0.88000000000E+00 0.  1.
        -11    1    3    3    0    0  0.15451554546E-01  0.11945984447E-01  0.31853469268E-02  0.19795571180E-01  0.51100000000E-03 0. -1.
         11    1    3    3    0    0  0.55545805304E-01 -0.40262522276E-01  0.26559556724E-01  0.73566829219E-01  0.51100000000E-03 0.  1.
</event>
<event>
 8    1  0.2825007E+004  0.1043930E+01  0.7957747E-01            NaN
         13   -1    0    0    0    0  0.00000000000E+00  0.00000000000E+00  0.74505805969E-08  0.10566000000E+00  0.10566000000E+00 0. -1.
     999900   -1    0    0    0    0 -0.00000000000E+00 -0.00000000000E+00 -0.74505805969E-08  0.93827000000E+00  0.93827000000E+00 0.  1.
     999902    2    1    2    0    0 -0.19481821655E-02  0.76835796331E-02 -0.11982576724E-01  0.10295628515E+01  0.10294626027E+01 0.  0.
     999903    2    3    3    0    0  0.12713706616E+00 -0.15480541933E-01  0.29030481292E-01  0.13889925131E+00  0.45241047714E-01 0.  0.
         14    1    1    2    0    0  0.19481821655E-02 -0.76835796331E-02  0.11982576724E-01  0.14367148453E-01  0.00000000000E+00 0. -1.
     999901    1    3    3    0    0 -0.12908524833E+00  0.23164121566E-01 -0.41013058016E-01  0.89066360024E+00  0.88000000000E+00 0.  1.
        -11    1    4    4    0    0  0.66331748328E-01  0.92495341771E-03  0.36092774362E-01  0.75522883004E-01  0.51100000000E-03 0.  1.
         11    1    4    4    0    0  0.60805317836E-01 -0.16405495351E-01 -0.70622930706E-02  0.63376368303E-01  0.51100000000E-03 0. -1.
</event>
<event>
 8    1  0.2825007E+004  0.1043930E+01  0.7957747E-01            NaN
         13   -1    0    0    0    0  0.00000000000E+00  0.00000000000E+00  0.74505805969E-08  0.10566000000E+00  0.10566000000E+00 0. -1.
     999900   -1    0    0    0    0 -0.00000000000E+00 -0.00000000000E+00 -0.74505805969E-08  0.93827000000E+00  0.93827000000E+00 0. -1.
     999902    2    1    2    0    0 -0.53621670698E-02  0.99647442144E-02 -0.12071365431E-01  0.10273840994E+01  0.10272508559E+01 0.  0.
     999903    2    3    3    0    0 -0.27308620125E-01 -0.61327578804E-01 -0.11197415646E+00  0.13859570515E+00  0.46515858736E-01 0.  0.
         14    1    1    2    0    0  0.53621670698E-02 -0.99647442144E-02  0.12071365431E-01  0.16545900589E-01  0.00000000000E+00 0.  1.
     999901    1    3    3    0    0  0.21946453055E-01  0.71292323019E-01  0.99902791033E-01  0.88878839426E+00  0.88000000000E+00 0.  1.
        -11    1    4    4    0    0  0.12441336380E-01 -0.10949876092E-01 -0.15307610452E-01  0.22567026744E-01  0.51100000000E-03 0.  1.
         11    1    4    4    0    0 -0.39749956505E-01 -0.50377702712E-01 -0.96666546013E-01  0.11602867840E+00  0.51100000000E-03 0. -1.
</event>
<event>
 8    1  0.2825007E+004  0.1043930E+01  0.7957747E-01            NaN
         13   -1    0    0    0    0  0.00000000000E+00  0.00000000000E+00  0.74505805969E-08  0.10566000000E+00  0.10566000000E+00 0. -1.
     999900   -1    0    0    0    0 -0.00000000000E+00 -0.00000000000E+00 -0.74505805969E-08  0.93827000000E+00  0.93827000000E+00 0.  1.
     999902    2    1    2    0    0  0.13804130097E-01 -0.90847069738E-02 -0.12204901632E-01  0.10233862532E+01  0.10231800319E+01 0.  0.
     999903    2    3    3    0    0  0.95863523516E-03 -0.98642581255E-01 -0.80077254436E-01  0.13614768559E+00  0.48913676983E-01 0.  0.
         14    1    1    2    0    0 -0.13804130097E-01  0.90847069738E-02  0.12204901632E-01  0.20543746795E-01  0.00000000000E+00 0. -1.
     999901    1    3    3    0    0  0.12845494862E-01  0.89557874281E-01  0.67872352804E-01  0.88723856761E+00  0.88000000000E+00 0. -1.
        -11    1    4    4    0    0  0.63573224822E-02 -0.81697803766E-01 -0.84609789031E-01  0.11778804782E+00  0.51100000000E-03 0.  1.
         11    1    4    4    0    0 -0.53986872470E-02 -0.16944777489E-01  0.45325345946E-02  0.18359637768E-01  0.51100000000E-03 0. -1.
</event>
<event>
 8    1  0.2825007E+004  0.1043930E+01  0.7957747E-01            NaN
         13   -1    0    0    0    0  0.00000000000E+00  0.00000000000E+00  0.74505805969E-08  0.10566000000E+00  0.10566000000E+00 0. -1.
     999900   -1    0    0    0    0 -0.00000000000E+00 -0.00000000000E+00 -0.74505805969E-08  0.93827000000E+00  0.93827000000E+00 0. -1.
     999902    2    1    2    0    0 -0.38312654748E-02 -0.12944078257E-01  0.57379473002E-02  0.10292619464E+01  0.10291574236E+01 0.  0.
     999903    2    3    3    0    0 -0.72684461040E-02 -0.84758670009E-01 -0.10111340868E+00  0.13988780575E+00  0.45910939121E-01 0.  0.
         14    1    1    2    0    0  0.38312654748E-02  0.12944078257E-01 -0.57379473002E-02  0.14668053595E-01  0.00000000000E+00 0. -1.
     999901    1    3    3    0    0  0.34371806293E-02  0.71814591752E-01  0.10685135598E+00  0.88937414066E+00  0.88000000000E+00 0.  1.
        -11    1    4    4    0    0 -0.25263893843E-01 -0.36910081456E-01 -0.56276689112E-01  0.71888422598E-01  0.51100000000E-03 0.  1.
         11    1    4    4    0    0  0.17995447739E-01 -0.47848588553E-01 -0.44836719567E-01  0.67999383147E-01  0.51100000000E-03 0. -1.
</event>
<event>
 8    1  0.2825007E+004  0.1043930E+01  0.7957747E-01            NaN
         13   -1    0    0    0    0  0.00000000000E+00  0.00000000000E+00  0.74505805969E-08  0.10566000000E+00  0.10566000000E+00 0.  1.
     999900   -1    0    0    0    0 -0.00000000000E+00 -0.00000000000E+00 -0.74505805969E-08  0.93827000000E+00  0.93827000000E+00 0. -1.
     999902    2    1    2    0    0 -0.11382435157E-01  0.42637747058E-02  0.61318594509E-02  0.10303160621E+01  0.10302261152E+01 0.  0.
     999903    2    3    3    0    0  0.34579993740E-01 -0.12599344348E+00 -0.16391562435E-01  0.13925669691E+00  0.45316890323E-01 0.  0.
         14    1    1    2    0    0  0.11382435157E-01 -0.42637747058E-02 -0.61318594509E-02  0.13613937901E-01  0.00000000000E+00 0. -1.
     999901    1    3    3    0    0 -0.45962428897E-01  0.13025721818E+00  0.22523421886E-01  0.89105936519E+00  0.88000000000E+00 0.  1.
        -11    1    4    4    0    0 -0.35353142902E-02 -0.26573169837E-01  0.11519309059E-01  0.29181970538E-01  0.51100000000E-03 0.  1.
         11    1    4    4    0    0  0.38115308030E-01 -0.99420273641E-01 -0.27910871494E-01  0.11007472637E+00  0.51100000000E-03 0. -1.
</event>
<event>
 8    1  0.2825007E+004  0.1043930E+01  0.7957747E-01            NaN
         13   -1    0    0    0    0  0.00000000000E+00  0.00000000000E+00  0.74505805969E-08  0.10566000000E+00  0.10566000000E+00 0.  1.
     999900   -1    0    0    0    0 -0.00000000000E+00 -0.00000000000E+00 -0.74505805969E-08  0.93827000000E+00  0.93827000000E+00 0.  1.
     999902    2    1    2    0    0  0.62238902120E-02 -0.10636596883E-01  0.73628456063E-02  0.10295743217E+01  0.10294742340E+01 0.  0.
     999903    2    3    3    0    0 -0.47937166667E-01  0.30655520645E-01 -0.11709503837E+00  0.13821119488E+00  0.46404239953E-01 0.  0.
         14    1    1    2    0    0 -0.62238902120E-02  0.10636596883E-01 -0.73628456063E-02  0.14355678251E-01  0.00000000000E+00 0.  1.
     999901    1    3    3    0    0  0.54161056879E-01 -0.41292117528E-01  0.12445788398E+00  0.89136312687E+00  0.88000000000E+00 0. -1.
        -11    1    4    4    0    0 -0.13338150461E-01 -0.10986210735E-01 -0.43793013488E-01  0.47081761176E-01  0.51100000000E-03 0.  1.
         11    1    4    4    0    0 -0.34599016206E-01  0.41641731380E-01 -0.73302024884E-01  0.91129433707E-01  0.51100000000E-03 0. -1.
</event>
<event>
 8    1  0.2825007E+004  0.1043930E+01  0.7957747E-01            NaN
         13   -1    0    0    0    0  0.00000000000E+00  0.00000000000E+00  0.74505805969E-08  0.10566000000E+00  0.10566000000E+00 0. -1.
     999900   -1    0    0    0    0 -0.00000000000E+00 -0.00000000000E+00 -0.74505805969E-08  0.93827000000E+00  0.93827000000E+00 0. -1.
     999902    2    1    2    0    0  0.46380330159E-02  0.12113577993E-01 -0.42216719296E-02  0.10302891556E+01  0.10301988505E+01 0.  0.
     999903    2    3    3    0    0 -0.97532277058E-02 -0.58865980425E-01 -0.11780897147E+00  0.14003790976E+00  0.46597567641E-01 0.  0.
         14    1    1    2    0    0 -0.46380330159E-02 -0.12113577993E-01  0.42216719296E-02  0.13640844399E-01  0.00000000000E+00 0. -1.
     999901    1    3    3    0    0  0.14391260722E-01  0.70979558418E-01  0.11358729954E+00  0.89025124584E+00  0.88000000000E+00 0.  1.
        -11    1    4    4    0    0  0.59184357509E-02 -0.27625666304E-01 -0.16170811479E-01  0.32557051239E-01  0.51100000000E-03 0.  1.
         11    1    4    4    0    0 -0.15671663457E-01 -0.31240314121E-01 -0.10163815999E+00  0.10748085852E+00  0.51100000000E-03 0. -1.
</event>
<event>
 8    1  0.2825007E+004  0.1043930E+01  0.7957747E-01            NaN
         13   -1    0    0    0    0  0.00000000000E+00  0.00000000000E+00  0.74505805969E-08  0.10566000000E+00  0.10566000000E+00 0.  1.
     999900   -1    0    0    0    0 -0.00000000000E+00 -0.00000000000E+00 -0.74505805969E-08  0.93827000000E+00  0.93827000000E+00 0. -1.
     999902    2    1    2    0    0  0.43026422015E-02  0.63490768269E-02  0.11242679264E-01  0.10303203952E+01  0.10302305059E+01 0.  0.
     999903    2    3    3    0    0 -0.98885166416E-01 -0.70624113690E-01 -0.49051268485E-01  0.13891254461E+00  0.46093671362E-01 0.  0.
         14    1    1    2    0    0 -0.43026422015E-02 -0.63490768269E-02 -0.11242679264E-01  0.13609604825E-01  0.00000000000E+00 0. -1.
     999901    1    3    3    0    0  0.10318780862E+00  0.76973190517E-01  0.60293947749E-01  0.89140785056E+00  0.88000000000E+00 0. -1.
        -11    1    4    4    0    0 -0.87242425129E-01 -0.38102439203E-01 -0.32412208473E-01  0.10056763393E+00  0.51100000000E-03 0.  1.
         11    1    4    4    0    0 -0.11642741286E-01 -0.32521674487E-01 -0.16639060012E-01  0.38344910682E-01  0.51100000000E-03 0. -1.
</event>
<event>
 8    1  0.2825007E+004  0.1043930E+01  0.7957747E-01            NaN
         13   -1    0    0    0    0  0.00000000000E+00  0.00000000000E+00  0.74505805969E-08  0.10566000000E+00  0.10566000000E+00 0.  1.
     999900   -1    0    0    0    0 -0.00000000000E+00 -0.00000000000E+00 -0.74505805969E-08  0.93827000000E+00  0.93827000000E+00 0.  1.
     999902    2    1    2    0    0 -0.70492102410E-02 -0.56283677446E-02 -0.10389101315E-01  0.10301712459E+01  0.10300793623E+01 0.  0.
     999903    2    3    3    0    0  0.15301588971E-01  0.12653358364E+00 -0.35626616503E-01  0.13966393441E+00  0.44630397248E-01 0.  0.
         14    1    1    2    0    0  0.70492102410E-02  0.56283677446E-02  0.10389101315E-01  0.13758754109E-01  0.00000000000E+00 0.  1.
     999901    1    3    3    0    0 -0.22350799212E-01 -0.13216195139E+00  0.25237515188E-01  0.89050731148E+00  0.88000000000E+00 0. -1.
        -11    1    4    4    0    0  0.30061080362E-01  0.75244786721E-01 -0.28100019425E-01  0.85763154640E-01  0.51100000000E-03 0.  1.
         11    1    4    4    0    0 -0.14759491391E-01  0.51288796921E-01 -0.75265970786E-02  0.53900779775E-01  0.51100000000E-03 0. -1.
</event>
<event>
 8    1  0.2825007E+004  0.1043930E+01  0.7957747E-01            NaN
         13   -1    0    0    0    0  0.00000000000E+00  0.00000000000E+00  0.74505805969E-08  0.10566000000E+00  0.10566000000E+00 0.  1.
     999900   -1    0    0    0    0 -0.00000000000E+00 -0.00000000000E+00 -0.74505805969E-08  0.93827000000E+00  0.93827000000E+00 0. -1.
     999902    2    1    2    0    0  0.79833947475E-02  0.58637559807E-02  0.10145243169E-01  0.10297509949E+01  0.10296533724E+01 0.  0.
     999903    2    3    3    0    0  0.12534503221E+00  0.14355013254E-01 -0.41724854281E-01  0.14040496418E+00  0.45333729116E-01 0.  0.
         14    1    1    2    0    0 -0.79833947475E-02 -0.58637559807E-02 -0.10145243169E-01  0.14179005073E-01  0.00000000000E+00 0. -1.
     999901    1    3    3    0    0 -0.11736163746E+00 -0.84912572729E-02  0.51870097450E-01  0.88934603075E+00  0.88000000000E+00 0.  1.
        -11    1    4    4    0    0  0.13021135846E-01 -0.28090710238E-02 -0.21041797089E-01  0.24909018537E-01  0.51100000000E-03 0. -1.
         11    1    4    4    0    0  0.11232389637E+00  0.17164084277E-01 -0.20683057192E-01  0.11549594564E+00  0.51100000000E-03 0.  1.
</event>
<event>
 8    1  0.2825007E+004  0.1043930E+01  0.7957747E-01            NaN
         13   -1    0    0    0    0  0.00000000000E+00  0.00000000000E+00  0.74505805969E-08  0.10566000000E+00  0.10566000000E+00 0. -1.
     999900   -1    0    0    0    0 -0.00000000000E+00 -0.00000000000E+00 -0.74505805969E-08  0.93827000000E+00  0.93827000000E+00 0.  1.
     999902    2    1    2    0    0  0.35484953445E-02  0.11865229291E-01  0.53680573936E-02  0.10304321659E+01  0.10303437567E+01 0.  0.
     999903    2    3    3    0    0 -0.29911272748E-02 -0.12231305546E+00 -0.47348505790E-01  0.13867793137E+00  0.44947272113E-01 0.  0.
         14    1    1    2    0    0 -0.35484953445E-02 -0.11865229291E-01 -0.53680573936E-02  0.13497834105E-01  0.00000000000E+00 0.  1.
     999901    1    3    3    0    0  0.65396226193E-02  0.13417828475E+00  0.52716563184E-01  0.89175423453E+00  0.88000000000E+00 0. -1.
        -11    1    4    4    0    0 -0.23793057916E-01 -0.59976494463E-01 -0.20727225480E-01  0.67772918560E-01  0.51100000000E-03 0.  1.
         11    1    4    4    0    0  0.20801930641E-01 -0.62336560995E-01 -0.26621280310E-01  0.70905012809E-01  0.51100000000E-03 0. -1.
</event>
<event>
 8    1  0.2825007E+004  0.1043930E+01  0.7957747E-01            NaN
         13   -1    0    0    0    0  0.00000000000E+00  0.00000000000E+00  0.74505805969E-08  0.10566000000E+00  0.10566000000E+00 0.  1.
     999900   -1    0    0    0    0 -0.00000000000E+00 -0.00000000000E+00 -0.74505805969E-08  0.93827000000E+00  0.93827000000E+00 0. -1.
     999902    2    1    2    0    0 -0.27211090999E-02 -0.12513606889E-02  0.12031690177E-01  0.10315311328E+01  0.10314566138E+01 0.  0.
     999903    2    3    3    0    0 -0.24037271640E-01  0.13156969867E+00 -0.27454232822E-02  0.14118615718E+00  0.45139977794E-01 0.  0.
         14    1    1    2    0    0  0.27211090999E-02  0.12513606889E-02 -0.12031690177E-01  0.12398867159E-01  0.00000000000E+00 0. -1.
     999901    1    3    3    0    0  0.21316162541E-01 -0.13282105936E+00  0.14777113460E-01  0.89034497566E+00  0.88000000000E+00 0. -1.
        -11    1    4    4    0    0 -0.35038823336E-01  0.66601617388E-01 -0.78440300005E-03  0.75262015576E-01  0.51100000000E-03 0.  1.
         11    1    4    4    0    0  0.11001551695E-01  0.64968081282E-01 -0.19610202822E-02  0.65924141608E-01  0.51100000000E-03 0. -1.
</event>
<event>
 8    1  0.2825007E+004  0.1043930E+01  0.7957747E-01            NaN
         13   -1    0    0    0    0  0.00000000000E+00  0.00000000000E+00  0.74505805969E-08  0.10566000000E+00  0.10566000000E+00 0.  1.
     999900   -1    0    0    0    0 -0.00000000000E+00 -0.00000000000E+00 -0.74505805969E-08  0.93827000000E+00  0.93827000000E+00 0. -1.
     999902    2    1    2    0    0 -0.12663568183E-01 -0.29581149511E-02  0.60361342366E-02  0.10295929389E+01  0.10294931125E+01 0.  0.
     999903    2    3    3    0    0  0.69801827677E-01 -0.71096230492E-01  0.87488561939E-01  0.13938069331E+00  0.42962309755E-01 0.  0.
         14    1    1    2    0    0  0.12663568183E-01  0.29581149511E-02 -0.60361342366E-02  0.14337061056E-01  0.00000000000E+00 0.  1.
     999901    1    3    3    0    0 -0.82465395860E-01  0.68138115541E-01 -0.81452427702E-01  0.89021224564E+00  0.88000000000E+00 0.  1.
        -11    1    4    4    0    0  0.36101618679E-01 -0.61948359326E-01  0.46174158761E-01  0.85283293514E-01  0.51100000000E-03 0. -1.
         11    1    4    4    0    0  0.33700208998E-01 -0.91478711661E-02  0.41314403178E-01  0.54097399793E-01  0.51100000000E-03 0.  1.
</event>
<event>
 8    1  0.2825007E+004  0.1043930E+01  0.7957747E-01            NaN
         13   -1    0    0    0    0  0.00000000000E+00  0.00000000000E+00  0.74505805969E-08  0.10566000000E+00  0.10566000000E+00 0. -1.
     999900   -1    0    0    0    0 -0.00000000000E+00 -0.00000000000E+00 -0.74505805969E-08  0.93827000000E+00  0.93827000000E+00 0.  1.
     999902    2    1    2    0    0 -0.12922795786E-02  0.75615242513E-03 -0.15674495492E-01  0.10281841573E+01  0.10280635826E+01 0.  0.
     999903    2    3    3    0    0 -0.11476942496E-01 -0.12894521932E+00 -0.20495061411E-01  0.13860593644E+00  0.45088449531E-01 0.  0.
         14    1    1    2    0    0  0.12922795786E-02 -0.75615242513E-03  0.15674495492E-01  0.15745842687E-01  0.00000000000E+00 0. -1.
     999901    1    3    3    0    0  0.10184662917E-01  0.12970137174E+00  0.48205659196E-02  0.88957822087E+00  0.88000000000E+00 0. -1.
        -11    1    4    4    0    0 -0.14392099493E-01 -0.30355901709E-01  0.10526121147E-01  0.35208999471E-01  0.51100000000E-03 0.  1.
         11    1    4    4    0    0  0.29151569974E-02 -0.98589317608E-01 -0.31021182558E-01  0.10339693697E+00  0.51100000000E-03 0. -1.
</event>
<event>
 8    1  0.2825007E+004  0.1043930E+01  0.7957747E-01            NaN
         13   -1    0    0    0    0  0.00000000000E+00  0.00000000000E+00  0.74505805969E-08  0.10566000000E+00  0.10566000000E+00 0.  1.
     999900   -1    0    0    0    0 -0.00000000000E+00 -0.00000000000E+00 -0.74505805969E-08  0.93827000000E+00  0.93827000000E+00 0. -1.
     999902    2    1    2    0    0  0.11968672626E-01 -0.97029619009E-02 -0.18132811105E-02  0.10284159875E+01  0.10282989638E+01 0.  0.
     999903    2    3    3    0    0 -0.83569490762E-01  0.82821034807E-01 -0.53627781625E-01  0.13691558200E+00  0.45019485099E-01 0.  0.
         14    1    1    2    0    0 -0.11968672626E-01  0.97029619009E-02  0.18132811105E-02  0.15514012455E-01  0.00000000000E+00 0.  1.
     999901    1    3    3    0    0  0.95538163388E-01 -0.92523996708E-01  0.51814500515E-01  0.89150040555E+00  0.88000000000E+00 0.  1.
        -11    1    4    4    0    0 -0.15407772888E-01  0.26593567714E-01  0.46178658024E-02  0.31083807918E-01  0.51100000000E-03 0. -1.
         11    1    4    4    0    0 -0.68161717874E-01  0.56227467093E-01 -0.58245647428E-01  0.10583177408E+00  0.51100000000E-03 0.  1.
</event>
<event>
 8    1  0.2825007E+004  0.1043930E+01  0.7957747E-01            NaN
         13   -1    0    0    0    0  0.00000000000E+00  0.00000000000E+00  0.74505805969E-08  0.10566000000E+00  0.10566000000E+00 0. -1.
     999900   -1    0    0    0    0 -0.00000000000E+00 -0.00000000000E+00 -0.74505805969E-08  0.93827000000E+00  0.93827000000E+00 0. -1.
     999902    2    1    2    0    0 -0.11929700628E-01 -0.34575498559E-02  0.85279104245E-02  0.10288635583E+01  0.10287532377E+01 0.  0.
     999903    2    3    3    0    0 -0.25127711915E-01  0.98099430913E-01  0.84395764303E-01  0.13968194635E+00  0.46189834952E-01 0.  0.
         14    1    1    2    0    0  0.11929700628E-01  0.34575498559E-02 -0.85279104245E-02  0.15066441660E-01  0.00000000000E+00 0.  1.
     999901    1    3    3    0    0  0.13198011287E-01 -0.10155698077E+00 -0.75867853879E-01  0.88918161199E+00  0.88000000000E+00 0. -1.
        -11    1    4    4    0    0 -0.13903732061E-01  0.22453809619E-01  0.86297983098E-03  0.26429021678E-01  0.51100000000E-03 0. -1.
         11    1    4    4    0    0 -0.11223979854E-01  0.75645621294E-01  0.83532784473E-01  0.11325292467E+00  0.51100000000E-03 0.  1.
</event>
<event>
 8    1  0.2825007E+004  0.1043930E+01  0.7957747E-01            NaN
         13   -1    0    0    0    0  0.00000000000E+00  0.00000000000E+00  0.74505805969E-08  0.10566000000E+00  0.10566000000E+00 0. -1.
     999900   -1    0    0    0    0 -0.00000000000E+00 -0.00000000000E+00 -0.74505805969E-08  0.93827000000E+00  0.93827000000E+00 0. -1.
     999902    2    1    2    0    0  0.10344670827E-01 -0.54232021032E-02  0.76381999955E-02  0.10299741613E+01  0.10298796082E+01 0.  0.
     999903    2    3    3    0    0 -0.94888403677E-01  0.11454994766E-01  0.91220522623E-01  0.13961194388E+00  0.45114133793E-01 0.  0.
         14    1    1    2    0    0 -0.10344670827E-01  0.54232021032E-02 -0.76381999955E-02  0.13955838733E-01  0.00000000000E+00 0.  1.
     999901    1    3    3    0    0  0.10523307450E+00 -0.16878196869E-01 -0.83582322628E-01  0.89036221739E+00  0.88000000000E+00 0.  1.
        -11    1    4    4    0    0 -0.84202429390E-01  0.12067727930E-01  0.95661906129E-01  0.12801226729E+00  0.51100000000E-03 0. -1.
         11    1    4    4    0    0 -0.10685974287E-01 -0.61273316447E-03 -0.44413835050E-02  0.11599676583E-01  0.51100000000E-03 0.  1.
</event>
<event>
 7    1  0.2825007E+004  0.1043930E+01  0.7957747E-01            NaN
         13   -1    0    0    0    0  0.00000000000E+00  0.00000000000E+00  0.74505805969E-08  0.10566000000E+00  0.10566000000E+00 0.  1.
     999900   -1    0    0    0    0 -0.00000000000E+00 -0.00000000000E+00 -0.74505805969E-08  0.93827000000E+00  0.93827000000E+00 0.  1.
     999903    2    1    2    0    0  0.48342103301E-01 -0.72893480458E-01 -0.62601067107E-01  0.11661323565E+00  0.45048137375E-01 0.  0.
         14    1    1    2    0    0  0.24357981587E-01 -0.27146654676E-01  0.72454028055E-04  0.36472693576E-01  0.00000000000E+00 0.  1.
     999901    1    1    2    0    0 -0.72700084888E-01  0.10004013513E+00  0.62528613079E-01  0.89084407077E+00  0.88000000000E+00 0.  1.
        -11    1    3    3    0    0  0.40657866094E-01 -0.26409632381E-01 -0.17954012585E-01  0.51702402717E-01  0.51100000000E-03 0. -1.
         11    1    3    3    0    0  0.76842372070E-02 -0.46483848077E-01 -0.44647054522E-01  0.64910832933E-01  0.51100000000E-03 0.  1.
</event>
<event>
 8    1  0.2825007E+004  0.1043930E+01  0.7957747E-01            NaN
         13   -1    0    0    0    0  0.00000000000E+00  0.00000000000E+00  0.74505805969E-08  0.10566000000E+00  0.10566000000E+00 0.  1.
     999900   -1    0    0    0    0 -0.00000000000E+00 -0.00000000000E+00 -0.74505805969E-08  0.93827000000E+00  0.93827000000E+00 0.  1.
     999902    2    1    2    0    0 -0.11447129675E-01  0.37478286890E-02 -0.81230515395E-02  0.10294018561E+01  0.10292993318E+01 0.  0.
     999903    2    3    3    0    0  0.93217299910E-01  0.60779822668E-01 -0.70338608573E-01  0.13918948446E+00  0.45194478450E-01 0.  0.
         14    1    1    2    0    0  0.11447129675E-01 -0.37478286890E-02  0.81230515395E-02  0.14528143859E-01  0.00000000000E+00 0.  1.
     999901    1    3    3    0    0 -0.10466442958E+00 -0.57031993979E-01  0.62215557033E-01  0.89021237168E+00  0.88000000000E+00 0. -1.
        -11    1    4    4    0    0  0.78430581424E-01  0.29284765021E-01 -0.38994641965E-01  0.92356898972E-01  0.51100000000E-03 0. -1.
         11    1    4    4    0    0  0.14786718485E-01  0.31495057647E-01 -0.31343966608E-01  0.46832585488E-01  0.51100000000E-03 0.  1.
</event>
<event>
 8    1  0.2825007E+004  0.1043930E+01  0.7957747E-01            NaN
         13   -1    0    0    0    0  0.00000000000E+00  0.00000000000E+00  0.74505805969E-08  0.10566000000E+00  0.10566000000E+00 0.  1.
     999900   -1    0    0    0    0 -0.00000000000E+00 -0.00000000000E+00 -0.74505805969E-08  0.93827000000E+00  0.93827000000E+00 0. -1.
     999902    2    1    2    0    0 -0.12000634700E-01  0.55407599046E-02  0.25484009163E-02  0.10304685885E+01  0.10303806589E+01 0.  0.
     999903    2    3    3    0    0  0.35241675736E-01 -0.40351859341E-01 -0.12053946431E+00  0.13946432867E+00  0.45280108811E-01 0.  0.
         14    1    1    2    0    0  0.12000634700E-01 -0.55407599046E-02 -0.25484009163E-02  0.13461411544E-01  0.00000000000E+00 0. -1.
     999901    1    3    3    0    0 -0.47242310436E-01  0.45892619245E-01  0.12308786522E+00  0.89100425979E+00  0.88000000000E+00 0.  1.
        -11    1    4    4    0    0  0.19862934024E-01  0.46760007088E-03 -0.69680851281E-01  0.72459898938E-01  0.51100000000E-03 0. -1.
         11    1    4    4    0    0  0.15378741712E-01 -0.40819459411E-01 -0.50858613027E-01  0.67004429729E-01  0.51100000000E-03 0.  1.
</event>
<event>
 8    1  0.2825007E+004  0.1043930E+01  0.7957747E-01            NaN
         13   -1    0    0    0    0  0.00000000000E+00  0.00000000000E+00  0.74505805969E-08  0.10566000000E+00  0.10566000000E+00 0. -1.
     999900   -1    0    0    0    0 -0.00000000000E+00 -0.00000000000E+00 -0.74505805969E-08  0.93827000000E+00  0.93827000000E+00 0.  1.
     999902    2    1    2    0    0 -0.55440530272E-02 -0.75268796033E-02 -0.97049837373E-02  0.10304549434E+01  0.10303668343E+01 0.  0.
     999903    2    3    3    0    0  0.17252070049E-01 -0.10441332887E+00 -0.83043054622E-01  0.14181265323E+00  0.44887665650E-01 0.  0.
         14    1    1    2    0    0  0.55440530272E-02  0.75268796033E-02  0.97049837373E-02  0.13475056581E-01  0.00000000000E+00 0. -1.
     999901    1    3    3    0    0 -0.22796123076E-01  0.96886449265E-01  0.73338070885E-01  0.88864229019E+00  0.88000000000E+00 0. -1.
        -11    1    4    4    0    0  0.28910914141E-01 -0.39571377875E-01 -0.37718596922E-01  0.61844066637E-01  0.51100000000E-03 0.  1.
         11    1    4    4    0    0 -0.11658844092E-01 -0.64841950993E-01 -0.45324457700E-01  0.79968586589E-01  0.51100000000E-03 0. -1.
</event>
<event>
 8    1  0.2825007E+004  0.1043930E+01  0.7957747E-01            NaN
         13   -1    0    0    0    0  0.00000000000E+00  0.00000000000E+00  0.74505805969E-08  0.10566000000E+00  0.10566000000E+00 0. -1.
     999900   -1    0    0    0    0 -0.00000000000E+00 -0.00000000000E+00 -0.74505805969E-08  0.93827000000E+00  0.93827000000E+00 0.  1.
     999902    2    1    2    0    0 -0.43457043990E-02  0.18926329114E-02 -0.12844967670E-01  0.10302383821E+01  0.10301473990E+01 0.  0.
     999903    2    3    3    0    0 -0.92887736853E-01  0.77248133166E-01  0.59035474252E-01  0.13968521645E+00  0.37833407717E-01 0.  0.
         14    1    1    2    0    0  0.43457043990E-02 -0.18926329114E-02  0.12844967670E-01  0.13691617892E-01  0.00000000000E+00 0. -1.
     999901    1    3    3    0    0  0.88542032454E-01 -0.75355500255E-01 -0.71880441922E-01  0.89055316566E+00  0.88000000000E+00 0.  1.
        -11    1    4    4    0    0 -0.53465068466E-01  0.57079442204E-01  0.54160329648E-01  0.95132427158E-01  0.51100000000E-03 0.  1.
         11    1    4    4    0    0 -0.39422668387E-01  0.20168690962E-01  0.48751446040E-02  0.44552789293E-01  0.51100000000E-03 0. -1.
</event>
<event>
 8    1  0.2825007E+004  0.1043930E+01  0.7957747E-01            NaN
         13   -1    0    0    0    0  0.00000000000E+00  0.00000000000E+00  0.74505805969E-08  0.10566000000E+00  0.10566000000E+00 0. -1.
     999900   -1    0    0    0    0 -0.00000000000E+00 -0.00000000000E+00 -0.74505805969E-08  0.93827000000E+00  0.93827000000E+00 0.  1.
     999902    2    1    2    0    0 -0.67813310873E-02  0.16197182240E-03  0.11275596313E-01  0.10307712858E+01  0.10306872911E+01 0.  0.
     999903    2    3    3    0    0 -0.15861893135E-01  0.52530225675E-01 -0.12024467807E+00  0.13941138479E+00  0.44336523794E-01 0.  0.
         14    1    1    2    0    0  0.67813310873E-02 -0.16197182240E-03 -0.11275596313E-01  0.13158714162E-01  0.00000000000E+00 0.  1.
     999901    1    3    3    0    0  0.90805620475E-02 -0.52368253853E-01  0.13152027438E+00  0.89135990105E+00  0.88000000000E+00 0. -1.
        -11    1    4    4    0    0 -0.19052500722E-01  0.69534918714E-02 -0.62891448358E-01  0.66082858826E-01  0.51100000000E-03 0.  1.
         11    1    4    4    0    0  0.31906075874E-02  0.45576733804E-01 -0.57353229711E-01  0.73328525966E-01  0.51100000000E-03 0. -1.
</event>
<event>
 8    1  0.2825007E+004  0.1043930E+01  0.7957747E-01            NaN
         13   -1    0    0    0    0  0.00000000000E+00  0.00000000000E+00  0.74505805969E-08  0.10566000000E+00  0.10566000000E+00 0. -1.
     999900   -1    0    0    0    0 -0.00000000000E+00 -0.00000000000E+00 -0.74505805969E-08  0.93827000000E+00  0.93827000000E+00 0.  1.
     999902    2    1    2    0    0  0.28447597415E-02 -0.15836250724E-01 -0.62631210929E-02  0.10266642483E+01  0.10265190561E+01 0.  0.
     999903    2    3    3    0    0 -0.18226703314E-01 -0.10729849285E+00  0.71637709561E-01  0.13825111937E+00  0.46219382246E-01 0.  0.
         14    1    1    2    0    0 -0.28447597415E-02  0.15836250724E-01  0.62631210929E-02  0.17265751672E-01  0.00000000000E+00 0. -1.
     999901    1    3    3    0    0  0.21071463055E-01  0.91462242122E-01 -0.77900830654E-01  0.88841312896E+00  0.88000000000E+00 0.  1.
        -11    1    4    4    0    0  0.21524100543E-02 -0.44011353414E-01  0.53539958485E-01  0.69342774490E-01  0.51100000000E-03 0.  1.
         11    1    4    4    0    0 -0.20379113368E-01 -0.63287139431E-01  0.18097751076E-01  0.68908344879E-01  0.51100000000E-03 0. -1.
</event>
<event>
 8    1  0.2825007E+004  0.1043930E+01  0.7957747E-01            NaN
         13   -1    0    0    0    0  0.00000000000E+00  0.00000000000E+00  0.74505805969E-08  0.10566000000E+00  0.10566000000E+00 0.  1.
     999900   -1    0    0    0    0 -0.00000000000E+00 -0.00000000000E+00 -0.74505805969E-08  0.93827000000E+00  0.93827000000E+00 0. -1.
     999902    2    1    2    0    0 -0.11816726663E-01 -0.45160800676E-02  0.93877798136E-03  0.10312449177E+01  0.10311668968E+01 0.  0.
     999903    2    3    3    0    0 -0.74638399277E-01  0.10987610287E+00  0.10989754105E-01  0.14156342630E+00  0.47705139572E-01 0.  0.
         14    1    1    2    0    0  0.11816726663E-01  0.45160800676E-02 -0.93877798136E-03  0.12685082274E-01  0.00000000000E+00 0.  1.
     999901    1    3    3    0    0  0.62821672614E-01 -0.11439218294E+00 -0.10050976123E-01  0.88968149143E+00  0.88000000000E+00 0. -1.
        -11    1    4    4    0    0 -0.64766293885E-01  0.11028460341E+00  0.18384543886E-01  0.12921152869E+00  0.51100000000E-03 0.  1.
         11    1    4    4    0    0 -0.98721053918E-02 -0.40850053693E-03 -0.73947897811E-02  0.12351897606E-01  0.51100000000E-03 0. -1.
</event>
<event>
 8    1  0.2825007E+004  0.1043930E+01  0.7957747E-01            NaN
         13   -1    0    0    0    0  0.00000000000E+00  0.00000000000E+00  0.74505805969E-08  0.10566000000E+00  0.10566000000E+00 0. -1.
     999900   -1    0    0    0    0 -0.00000000000E+00 -0.00000000000E+00 -0.74505805969E-08  0.93827000000E+00  0.93827000000E+00 0.  1.
     999902    2    1    2    0    0 -0.18138459443E-01  0.64450169832E-02 -0.11580191525E-01  0.10214657442E+01  0.10212186953E+01 0.  0.
     999903    2    3    3    0    0  0.52634589611E-01 -0.35171555370E-02 -0.11343791207E+00  0.13271208617E+00  0.44289586965E-01 0.  0.
         14    1    1    2    0    0  0.18138459443E-01 -0.64450169832E-02  0.11580191525E-01  0.22464255844E-01  0.00000000000E+00 0.  1.
     999901    1    3    3    0    0 -0.70773049054E-01  0.99621725202E-02  0.10185772054E+00  0.88875365799E+00  0.88000000000E+00 0. -1.
        -11    1    4    4    0    0  0.68101140202E-03  0.13357261887E-01 -0.31590821136E-01  0.34309201721E-01  0.51100000000E-03 0.  1.
         11    1    4    4    0    0  0.51953578209E-01 -0.16874417424E-01 -0.81847090933E-01  0.98402884447E-01  0.51100000000E-03 0. -1.
</event>
<event>
 8    1  0.2825007E+004  0.1043930E+01  0.7957747E-01            NaN
         13   -1    0    0    0    0  0.00000000000E+00  0.00000000000E+00  0.74505805969E-08  0.10566000000E+00  0.10566000000E+00 0.  1.
     999900   -1    0    0    0    0 -0.00000000000E+00 -0.00000000000E+00 -0.74505805969E-08  0.93827000000E+00  0.93827000000E+00 0. -1.
     999902    2    1    2    0    0  0.63826254475E-02  0.66903269547E-02 -0.89492938863E-02  0.10310618904E+01  0.10309815875E+01 0.  0.
     999903    2    3    3    0    0 -0.17673139347E-01 -0.11112763391E+00 -0.71643517513E-01  0.14067415615E+00  0.44662442084E-01 0.  0.
         14    1    1    2    0    0 -0.63826254475E-02 -0.66903269547E-02  0.89492938863E-02  0.12868109551E-01  0.00000000000E+00 0.  1.
     999901    1    3    3    0    0  0.24055764794E-01  0.11781796086E+00  0.62694223626E-01  0.89038773430E+00  0.88000000000E+00 0.  1.
        -11    1    4    4    0    0  0.14102575262E-01 -0.19595143269E-01 -0.15408948555E-01  0.28645227968E-01  0.51100000000E-03 0. -1.
         11    1    4    4    0    0 -0.31775714609E-01 -0.91532490641E-01 -0.56234568957E-01  0.11202892818E+00  0.51100000000E-03 0.  1.
</event>
<event>
 8    1  0.2825007E+004  0.1043930E+01  0.7957747E-01            NaN
         13   -1    0    0    0    0  0.00000000000E+00  0.00000000000E+00  0.74505805969E-08  0.10566000000E+00  0.10566000000E+00 0.  1.
     999900   -1    0    0    0    0 -0.00000000000E+00 -0.00000000000E+00 -0.74505805969E-08  0.93827000000E+00  0.93827000000E+00 0.  1.
     999902    2    1    2    0    0 -0.12783866201E-01 -0.20606024038E-02  0.87943275300E-02  0.10282770925E+01  0.10281579477E+01 0.  0.
     999903    2    3    3    0    0 -0.53659370229E-01 -0.91344835787E-02  0.12091570820E+00  0.14019373455E+00  0.45507229228E-01 0.  0.
         14    1    1    2    0    0  0.12783866201E-01  0.20606024038E-02 -0.87943275300E-02  0.15652907526E-01  0.00000000000E+00 0.  1.
     999901    1    3    3    0    0  0.40875504029E-01  0.70738811749E-02 -0.11212138067E+00  0.88808335793E+00  0.88000000000E+00 0.  1.
        -11    1    4    4    0    0 -0.35077463530E-01  0.15334404052E-01  0.50563038219E-01  0.63422821998E-01  0.51100000000E-03 0. -1.
         11    1    4    4    0    0 -0.18581906700E-01 -0.24468887631E-01  0.70352669985E-01  0.76770912548E-01  0.51100000000E-03 0.  1.
</event>
<event>
 8    1  0.2825007E+004  0.1043930E+01  0.7957747E-01            NaN
         13   -1    0    0    0    0  0.00000000000E+00  0.00000000000E+00  0.74505805969E-08  0.10566000000E+00  0.10566000000E+00 0.  1.
     999900   -1    0    0    0    0 -0.00000000000E+00 -0.00000000000E+00 -0.74505805969E-08  0.93827000000E+00  0.93827000000E+00 0. -1.
     999902    2    1    2    0    0 -0.10524422920E-01  0.58333629969E-02 -0.68686791812E-02  0.10300746633E+01  0.10299814763E+01 0.  0.
     999903    2    3    3    0    0  0.29860024141E-01 -0.74837652953E-01  0.10372748409E+00  0.13857579750E+00  0.44176524925E-01 0.  0.
         14    1    1    2    0    0  0.10524422920E-01 -0.58333629969E-02  0.68686791812E-02  0.13855336710E-01  0.00000000000E+00 0. -1.
     999901    1    3    3    0    0 -0.40384447061E-01  0.80671015950E-01 -0.11059616327E+00  0.89149886579E+00  0.88000000000E+00 0.  1.
        -11    1    4    4    0    0  0.15710398847E-01 -0.56916225533E-01  0.98970142541E-01  0.11524592659E+00  0.51100000000E-03 0. -1.
         11    1    4    4    0    0  0.14149625294E-01 -0.17921427420E-01  0.47573415526E-02  0.23329870904E-01  0.51100000000E-03 0.  1.
</event>
<event>
 8    1  0.2825007E+004  0.1043930E+01  0.7957747E-01            NaN
         13   -1    0    0    0    0  0.00000000000E+00  0.00000000000E+00  0.74505805969E-08  0.10566000000E+00  0.10566000000E+00 0. -1.
     999900   -1    0    0    0    0 -0.00000000000E+00 -0.00000000000E+00 -0.74505805969E-08  0.93827000000E+00  0.93827000000E+00 0.  1.
     999902    2    1    2    0    0  0.12564062556E-01 -0.50809795434E-02  0.27050854528E-02  0.10301101046E+01  0.10300173970E+01 0.  0.
     999903    2    3    3    0    0  0.76139662718E-01 -0.98308054579E-01  0.51144410504E-01  0.14158350813E+00  0.44366848153E-01 0.  0.
         14    1    1    2    0    0 -0.12564062556E-01  0.50809795434E-02 -0.27050854528E-02  0.13819895381E-01  0.00000000000E+00 0.  1.
     999901    1    3    3    0    0 -0.63575600162E-01  0.93227075036E-01 -0.48439325051E-01  0.88852659649E+00  0.88000000000E+00 0. -1.
        -11    1    4    4    0    0  0.58359924462E-01 -0.39273237010E-01  0.28522283590E-01  0.75908166297E-01  0.51100000000E-03 0. -1.
         11    1    4    4    0    0  0.17779738256E-01 -0.59034817569E-01  0.22622126914E-01  0.65675341834E-01  0.51100000000E-03 0.  1.
</event>
<event>
 8    1  0.2825007E+004  0.1043930E+01  0.7957747E-01            NaN
         13   -1    0    0    0    0  0.00000000000E+00  0.00000000000E+00  0.74505805969E-08  0.10566000000E+00  0.10566000000E+00 0. -1.
     999900   -1    0    0    0    0 -0.00000000000E+00 -0.00000000000E+00 -0.74505805969E-08  0.93827000000E+00  0.93827000000E+00 0. -1.
     999902    2    1    2    0    0  0.26723519200E-02 -0.32818411823E-02  0.12999529149E-01  0.10302588733E+01  0.10301681641E+01 0.  0.
     999903    2    3    3    0    0  0.10478143477E+00  0.58768760824E-01 -0.55081550153E-01  0.13957847309E+00  0.44891610161E-01 0.  0.
         14    1    1    2    0    0 -0.26723519200E-02  0.32818411823E-02 -0.12999529149E-01  0.13671126670E-01  0.00000000000E+00 0.  1.
     999901    1    3    3    0    0 -0.10210908285E+00 -0.62050602006E-01  0.68081079302E-01  0.89068040024E+00  0.88000000000E+00 0.  1.
        -11    1    4    4    0    0  0.82714056978E-01  0.29618526718E-01 -0.22717330481E-01  0.90748060981E-01  0.51100000000E-03 0.  1.
         11    1    4    4    0    0  0.22067377789E-01  0.29150234106E-01 -0.32364219673E-01  0.48830412111E-01  0.51100000000E-03 0. -1.
</event>
<event>
 8    1  0.2825007E+004  0.1043930E+01  0.7957747E-01            NaN
         13   -1    0    0    0    0  0.00000000000E+00  0.00000000000E+00  0.74505805969E-08  0.10566000000E+00  0.10566000000E+00 0.  1.
     999900   -1    0    0    0    0 -0.00000000000E+00 -0.00000000000E+00 -0.74505805969E-08  0.93827000000E+00  0.93827000000E+00 0. -1.
     999902    2    1    2    0    0 -0.62570498342E-02  0.88814238932E-02 -0.80959869962E-02  0.10303810012E+01  0.10302919160E+01 0.  0.
     999903    2    3    3    0    0  0.27622258954E-01 -0.45350482814E-01 -0.12233743780E+00  0.14069565438E+00  0.44823687850E-01 0.  0.
         14    1    1    2    0    0  0.62570498342E-02 -0.88814238932E-02  0.80959869962E-02  0.13548998798E-01  0.00000000000E+00 0.  1.
     999901    1    3    3    0    0 -0.33879308789E-01  0.54231906707E-01  0.11424145080E+00  0.88968534682E+00  0.88000000000E+00 0.  1.
        -11    1    4    4    0    0  0.37213846806E-01 -0.19992513211E-01 -0.78600907426E-01  0.89235277485E-01  0.51100000000E-03 0. -1.
         11    1    4    4    0    0 -0.95915878521E-02 -0.25357969604E-01 -0.43736530374E-01  0.51460376894E-01  0.51100000000E-03 0.  1.
</event>
<event>
 8    1  0.2825007E+004  0.1043930E+01  0.7957747E-01            NaN
         13   -1    0    0    0    0  0.00000000000E+00  0.00000000000E+00  0.74505805969E-08  0.10566000000E+00  0.10566000000E+00 0.  1.
     999900   -1    0    0    0    0 -0.00000000000E+00 -0.00000000000E+00 -0.74505805969E-08  0.93827000000E+00  0.93827000000E+00 0.  1.
     999902    2    1    2    0    0  0.95862859358E-02 -0.82962294424E-02 -0.61330040711E-02  0.10298467461E+01  0.10297504467E+01 0.  0.
     999903    2    3    3    0    0 -0.36187262987E-02 -0.43551359148E-01 -0.12634778810E+00  0.14087605435E+00  0.44412645361E-01 0.  0.
         14    1    1    2    0    0 -0.95862859358E-02  0.82962294424E-02  0.61330040711E-02  0.14083253883E-01  0.00000000000E+00 0. -1.
     999901    1    3    3    0    0  0.13205012234E-01  0.35255129705E-01  0.12021478403E+00  0.88897069177E+00  0.88000000000E+00 0. -1.
        -11    1    4    4    0    0 -0.20524350339E-01 -0.37179869588E-01 -0.71903998207E-01  0.83510704335E-01  0.51100000000E-03 0.  1.
         11    1    4    4    0    0  0.16905624041E-01 -0.63714895593E-02 -0.54443789894E-01  0.57365350016E-01  0.51100000000E-03 0. -1.
</event>
<event>
 8    1  0.2825007E+004  0.1043930E+01  0.7957747E-01            NaN
         13   -1    0    0    0    0  0.00000000000E+00  0.00000000000E+00  0.74505805969E-08  0.10566000000E+00  0.10566000000E+00 0.  1.
     999900   -1    0    0    0    0 -0.00000000000E+00 -0.00000000000E+00 -0.74505805969E-08  0.93827000000E+00  0.93827000000E+00 0.  1.
     999902    2    1    2    0    0  0.12712704876E-01 -0.59512098002E-02 -0.98367070037E-03  0.10298588461E+01  0.10297627132E+01 0.  0.
     999903    2    3    3    0    0 -0.12010502091E+00  0.51762286340E-01 -0.43306365289E-03  0.13802270698E+00  0.44108159817E-01 0.  0.
         14    1    1    2    0    0 -0.12712704876E-01  0.59512098002E-02  0.98367070037E-03  0.14071153876E-01  0.00000000000E+00 0. -1.
     999901    1    3    3    0    0  0.13281772579E+00 -0.57713496140E-01 -0.55060704748E-03  0.89183613915E+00  0.88000000000E+00 0. -1.
        -11    1    4    4    0    0 -0.65670951898E-01  0.12699241501E-01  0.16540656767E-01  0.68904274941E-01  0.51100000000E-03 0.  1.
         11    1    4    4    0    0 -0.54434069012E-01  0.39063044839E-01 -0.16973720420E-01  0.69118432037E-01  0.51100000000E-03 0. -1.
</event>
<event>
 8    1  0.2825007E+004  0.1043930E+01  0.7957747E-01            NaN
         13   -1    0    0    0    0  0.00000000000E+00  0.00000000000E+00  0.74505805969E-08  0.10566000000E+00  0.10566000000E+00 0. -1.
     999900   -1    0    0    0    0 -0.00000000000E+00 -0.00000000000E+00 -0.74505805969E-08  0.93827000000E+00  0.93827000000E+00 0.  1.
     999902    2    1    2    0    0 -0.40325888665E-02  0.36908112552E-02  0.12910500871E-01  0.10299098398E+01  0.10298144071E+01 0.  0.
     999903    2    3    3    0    0 -0.87907108224E-01  0.22869357862E-01 -0.95463981560E-01  0.13909685147E+00  0.44540937441E-01 0.  0.
         14    1    1    2    0    0  0.40325888665E-02 -0.36908112552E-02 -0.12910500871E-01  0.14020160250E-01  0.00000000000E+00 0.  1.
     999901    1    3    3    0    0  0.83874519358E-01 -0.19178546607E-01  0.10837448243E+00  0.89081298828E+00  0.88000000000E+00 0. -1.
        -11    1    4    4    0    0 -0.13035489477E-01  0.85894806449E-02  0.15779155809E-02  0.15698856718E-01  0.51100000000E-03 0.  1.
         11    1    4    4    0    0 -0.74871618747E-01  0.14279877217E-01 -0.97041897141E-01  0.12339799475E+00  0.51100000000E-03 0. -1.
</event>
<event>
 8    1  0.2825007E+004  0.1043930E+01  0.7957747E-01            NaN
         13   -1    0    0    0    0  0.00000000000E+00  0.00000000000E+00  0.74505805969E-08  0.10566000000E+00  0.10566000000E+00 0.  1.
     999900   -1    0    0    0    0 -0.00000000000E+00 -0.00000000000E+00 -0.74505805969E-08  0.93827000000E+00  0.93827000000E+00 0.  1.
     999902    2    1    2    0    0  0.54417606596E-02 -0.11608403052E-01 -0.34101400513E-03  0.10311048657E+01  0.10310251015E+01 0.  0.
     999903    2    3    3    0    0 -0.45661163348E-01 -0.63925259709E-01  0.10753518023E+00  0.14150617207E+00  0.47841415969E-01 0.  0.
         14    1    1    2    0    0 -0.54417606596E-02  0.11608403052E-01  0.34101400513E-03  0.12825134348E-01  0.00000000000E+00 0.  1.
     999901    1    3    3    0    0  0.51102924007E-01  0.52316856657E-01 -0.10787619423E+00  0.88959869358E+00  0.88000000000E+00 0.  1.
        -11    1    4    4    0    0 -0.52959278518E-01 -0.38469870953E-01  0.74788187774E-01  0.99388884206E-01  0.51100000000E-03 0. -1.
         11    1    4    4    0    0  0.72981151701E-02 -0.25455388756E-01  0.32746992452E-01  0.42117287869E-01  0.51100000000E-03 0.  1.
</event>
<event>
 8    1  0.2825007E+004  0.1043930E+01  0.7957747E-01            NaN
         13   -1    0    0    0    0  0.00000000000E+00  0.00000000000E+00  0.74505805969E-08  0.10566000000E+00  0.10566000000E+00 0. -1.
     999900   -1    0    0    0    0 -0.00000000000E+00 -0.00000000000E+00 -0.74505805969E-08  0.93827000000E+00  0.93827000000E+00 0. -1.
     999902    2    1    2    0    0  0.13032011507E-01 -0.11674199756E-01 -0.42805365104E-02  0.10259176915E+01  0.10257595559E+01 0.  0.
     999903    2    3    3    0    0 -0.11012146940E+00  0.62171476696E-01 -0.10904756447E-03  0.13426901345E+00  0.45123447820E-01 0.  0.
         14    1    1    2    0    0 -0.13032011507E-01  0.11674199756E-01  0.42805365104E-02  0.18012308477E-01  0.00000000000E+00 0.  1.
     999901    1    3    3    0    0  0.12315348091E+00 -0.73845676452E-01 -0.41714889460E-02  0.89164867807E+00  0.88000000000E+00 0. -1.
        -11    1    4    4    0    0 -0.41675763304E-01  0.47255892663E-01 -0.90139294257E-02  0.63651399694E-01  0.51100000000E-03 0.  1.
         11    1    4    4    0    0 -0.68445706099E-01  0.14915584033E-01  0.89048818612E-02  0.70617613755E-01  0.51100000000E-03 0. -1.
</event>
<event>
 8    1  0.2825007E+004  0.1043930E+01  0.7957747E-01            NaN
         13   -1    0    0    0    0  0.00000000000E+00  0.00000000000E+00  0.74505805969E-08  0.10566000000E+00  0.10566000000E+00 0. -1.
     999900   -1    0    0    0    0 -0.00000000000E+00 -0.00000000000E+00 -0.74505805969E-08  0.93827000000E+00  0.93827000000E+00 0.  1.
     999902    2    1    2    0    0 -0.54555086609E-02  0.80706019816E-02  0.92917668414E-02  0.10304676777E+01  0.10303797361E+01 0.  0.
     999903    2    3    3    0    0 -0.71180191118E-01 -0.21831205533E-01  0.11247398492E+00  0.14150174914E+00  0.42768289468E-01 0.  0.
         14    1    1    2    0    0  0.54555086609E-02 -0.80706019816E-02 -0.92917668414E-02  0.13462322316E-01  0.00000000000E+00 0.  1.
     999901    1    3    3    0    0  0.65724682458E-01  0.29901807515E-01 -0.10318221808E+00  0.88896592854E+00  0.88000000000E+00 0. -1.
        -11    1    4    4    0    0 -0.48900712849E-01 -0.11120133606E-01  0.37687721982E-01  0.62734062500E-01  0.51100000000E-03 0.  1.
         11    1    4    4    0    0 -0.22279478269E-01 -0.10711071927E-01  0.74786262940E-01  0.78767686645E-01  0.51100000000E-03 0. -1.
</event>
<event>
 8    1  0.2825007E+004  0.1043930E+01  0.7957747E-01            NaN
         13   -1    0    0    0    0  0.00000000000E+00  0.00000000000E+00  0.74505805969E-08  0.10566000000E+00  0.10566000000E+00 0. -1.
     999900   -1    0    0    0    0 -0.00000000000E+00 -0.00000000000E+00 -0.74505805969E-08  0.93827000000E+00  0.93827000000E+00 0.  1.
     999902    2    1    2    0    0  0.10921503664E-01 -0.65087084593E-02 -0.21320697022E-02  0.10310385979E+01  0.10309580021E+01 0.  0.
     999903    2    3    3    0    0 -0.12186954888E+00  0.39199532412E-01 -0.31423444795E-01  0.13942170054E+00  0.45411313727E-01 0.  0.
         14    1    1    2    0    0 -0.10921503664E-01  0.65087084593E-02  0.21320697022E-02  0.12891402147E-01  0.00000000000E+00 0. -1.
     999901    1    3    3    0    0  0.13279105254E+00 -0.45708240871E-01  0.29291375092E-01  0.89161689731E+00  0.88000000000E+00 0. -1.
        -11    1    4    4    0    0 -0.36748834922E-01  0.26675848207E-01  0.55970039822E-02  0.45756587725E-01  0.51100000000E-03 0. -1.
         11    1    4    4    0    0 -0.85120713954E-01  0.12523684205E-01 -0.37020448777E-01  0.93665112816E-01  0.51100000000E-03 0.  1.
</event>
<event>
 8    1  0.2825007E+004  0.1043930E+01  0.7957747E-01            NaN
         13   -1    0    0    0    0  0.00000000000E+00  0.00000000000E+00  0.74505805969E-08  0.10566000000E+00  0.10566000000E+00 0.  1.
     999900   -1    0    0    0    0 -0.00000000000E+00 -0.00000000000E+00 -0.74505805969E-08  0.93827000000E+00  0.93827000000E+00 0.  1.
     999902    2    1    2    0    0 -0.11719966437E-01 -0.46126545467E-02  0.61632280935E-02  0.10299078898E+01  0.10298124304E+01 0.  0.
     999903    2    3    3    0    0  0.53598415952E-02 -0.13150986805E+00  0.15761914468E-01  0.14058974791E+00  0.46834452848E-01 0.  0.
         14    1    1    2    0    0  0.11719966437E-01  0.46126545467E-02 -0.61632280935E-02  0.14022110248E-01  0.00000000000E+00 0. -1.
     999901    1    3    3    0    0 -0.17079808033E-01  0.12689721350E+00 -0.95986863749E-02  0.88931814185E+00  0.88000000000E+00 0. -1.
        -11    1    4    4    0    0 -0.19160144208E-01 -0.43280885717E-01 -0.16996288989E-02  0.47365557675E-01  0.51100000000E-03 0.  1.
         11    1    4    4    0    0  0.24519985803E-01 -0.88228982329E-01  0.17461543367E-01  0.93224190231E-01  0.51100000000E-03 0. -1.
</event>
<event>
 8    1  0.2825007E+004  0.1043930E+01  0.7957747E-01            NaN
         13   -1    0    0    0    0  0.00000000000E+00  0.00000000000E+00  0.74505805969E-08  0.10566000000E+00  0.10566000000E+00 0. -1.
     999900   -1    0    0    0    0 -0.00000000000E+00 -0.00000000000E+00 -0.74505805969E-08  0.93827000000E+00  0.93827000000E+00 0. -1.
     999902    2    1    2    0    0  0.11736419620E-01  0.63444420148E-02  0.49172484718E-02  0.10297111807E+01  0.10296130054E+01 0.  0.
     999903    2    3    3    0    0  0.34107611705E-01 -0.85884616922E-01 -0.94342456234E-01  0.13906020611E+00  0.43563118283E-01 0.  0.
         14    1    1    2    0    0 -0.11736419620E-01 -0.63444420148E-02 -0.49172484718E-02  0.14218819308E-01  0.00000000000E+00 0.  1.
     999901    1    3    3    0    0 -0.22371192085E-01  0.92229058937E-01  0.99259704706E-01  0.89065097458E+00  0.88000000000E+00 0.  1.
        -11    1    4    4    0    0  0.22753167032E-01 -0.90810969030E-02 -0.21493387284E-01  0.32594474208E-01  0.51100000000E-03 0.  1.
         11    1    4    4    0    0  0.11354444672E-01 -0.76803520019E-01 -0.72849068951E-01  0.10646573190E+00  0.51100000000E-03 0. -1.
</event>
<event>
 8    1  0.2825007E+004  0.1043930E+01  0.7957747E-01            NaN
         13   -1    0    0    0    0  0.00000000000E+00  0.00000000000E+00  0.74505805969E-08  0.10566000000E+00  0.10566000000E+00 0. -1.
     999900   -1    0    0    0    0 -0.00000000000E+00 -0.00000000000E+00 -0.74505805969E-08  0.93827000000E+00  0.93827000000E+00 0.  1.
     999902    2    1    2    0    0 -0.74636775105E-02 -0.36701192971E-03  0.21441957517E-01  0.10212232010E+01  0.10209707280E+01 0.  0.
     999903    2    3    3    0    0 -0.11128332431E+00  0.41575508385E-01  0.42776154677E-01  0.13387161224E+00  0.44489414326E-01 0.  0.
         14    1    1    2    0    0  0.74636775105E-02  0.36701192971E-03 -0.21441957517E-01  0.22706799023E-01  0.00000000000E+00 0.  1.
     999901    1    3    3    0    0  0.10381964680E+00 -0.41942520315E-01 -0.21334197161E-01  0.88735158874E+00  0.88000000000E+00 0.  1.
        -11    1    4    4    0    0 -0.61465219137E-01  0.11389620563E-01  0.15965983844E-02  0.62534045667E-01  0.51100000000E-03 0. -1.
         11    1    4    4    0    0 -0.49818105172E-01  0.30185887822E-01  0.41179556293E-01  0.71337566569E-01  0.51100000000E-03 0.  1.
</event>
<event>
 8    1  0.2825007E+004  0.1043930E+01  0.7957747E-01            NaN
         13   -1    0    0    0    0  0.00000000000E+00  0.00000000000E+00  0.74505805969E-08  0.10566000000E+00  0.10566000000E+00 0. -1.
     999900   -1    0    0    0    0 -0.00000000000E+00 -0.00000000000E+00 -0.74505805969E-08  0.93827000000E+00  0.93827000000E+00 0.  1.
     999902    2    1    2    0    0 -0.85163808455E-03  0.10394953007E-01 -0.14101311354E-01  0.10263906922E+01  0.10262408225E+01 0.  0.
     999903    2    3    3    0    0 -0.31811123096E-01  0.78781063185E-01  0.96946583749E-01  0.13624082575E+00  0.44096700901E-01 0.  0.
         14    1    1    2    0    0  0.85163808455E-03 -0.10394953007E-01  0.14101311354E-01  0.17539307779E-01  0.00000000000E+00 0. -1.
     999901    1    3    3    0    0  0.30959485011E-01 -0.68386110178E-01 -0.11104789510E+00  0.89014986647E+00  0.88000000000E+00 0.  1.
        -11    1    4    4    0    0  0.13537959866E-02  0.20411432339E-01  0.50823534048E-01  0.54788247533E-01  0.51100000000E-03 0. -1.
         11    1    4    4    0    0 -0.33164919082E-01  0.58369630846E-01  0.46123049702E-01  0.81452578213E-01  0.51100000000E-03 0.  1.
</event>
<event>
 8    1  0.2825007E+004  0.1043930E+01  0.7957747E-01            NaN
         13   -1    0    0    0    0  0.00000000000E+00  0.00000000000E+00  0.74505805969E-08  0.10566000000E+00  0.10566000000E+00 0.  1.
     999900   -1    0    0    0    0 -0.00000000000E+00 -0.00000000000E+00 -0.74505805969E-08  0.93827000000E+00  0.93827000000E+00 0. -1.
     999902    2    1    2    0    0 -0.63252681091E-02  0.39956851629E-02 -0.12178974838E-01  0.10296365769E+01  0.10295373614E+01 0.  0.
     999903    2    3    3    0    0  0.97207908388E-01 -0.14037464248E-01 -0.89597898684E-01  0.14000856310E+00  0.43911119759E-01 0.  0.
         14    1    1    2    0    0  0.63252681091E-02 -0.39956851629E-02  0.12178974838E-01  0.14293423126E-01  0.00000000000E+00 0.  1.
     999901    1    3    3    0    0 -0.10353317650E+00  0.18033149411E-01  0.77418923846E-01  0.88962801377E+00  0.88000000000E+00 0.  1.
        -11    1    4    4    0    0  0.40226677244E-01 -0.34303751312E-02 -0.10093152696E-01  0.41618335959E-01  0.51100000000E-03 0.  1.
         11    1    4    4    0    0  0.56981231144E-01 -0.10607089117E-01 -0.79504745988E-01  0.98390227146E-01  0.51100000000E-03 0. -1.
</event>
<event>
 8    1  0.2825007E+004  0.1043930E+01  0.7957747E-01            NaN
         13   -1    0    0    0    0  0.00000000000E+00  0.00000000000E+00  0.74505805969E-08  0.10566000000E+00  0.10566000000E+00 0. -1.
     999900   -1    0    0    0    0 -0.00000000000E+00 -0.00000000000E+00 -0.74505805969E-08  0.93827000000E+00  0.93827000000E+00 0.  1.
     999902    2    1    2    0    0  0.29161519583E-02  0.15005197203E-01  0.16282129208E-02  0.10285575909E+01  0.10284427095E+01 0.  0.
     999903    2    3    3    0    0  0.56480573227E-01  0.11956702586E+00 -0.14613007448E-01  0.14060145429E+00  0.45485163919E-01 0.  0.
         14    1    1    2    0    0 -0.29161519583E-02 -0.15005197203E-01 -0.16282129208E-02  0.15372409136E-01  0.00000000000E+00 0.  1.
     999901    1    3    3    0    0 -0.53564421268E-01 -0.10456182866E+00  0.16241220369E-01  0.88795613657E+00  0.88000000000E+00 0.  1.
        -11    1    4    4    0    0  0.20474860577E-01  0.56009699152E-01 -0.28736434508E-01  0.66199321024E-01  0.51100000000E-03 0.  1.
         11    1    4    4    0    0  0.36005712649E-01  0.63557326709E-01  0.14123427060E-01  0.74402133267E-01  0.51100000000E-03 0. -1.
</event>
<event>
 8    1  0.2825007E+004  0.1043930E+01  0.7957747E-01            NaN
         13   -1    0    0    0    0  0.00000000000E+00  0.00000000000E+00  0.74505805969E-08  0.10566000000E+00  0.10566000000E+00 0.  1.
     999900   -1    0    0    0    0 -0.00000000000E+00 -0.00000000000E+00 -0.74505805969E-08  0.93827000000E+00  0.93827000000E+00 0. -1.
     999902    2    1    2    0    0 -0.77454603002E-02 -0.90389012744E-02 -0.62066566917E-02  0.10305055269E+01  0.10304180823E+01 0.  0.
     999903    2    3    3    0    0 -0.11123497754E-01 -0.11789262356E+00 -0.64936194524E-01  0.14184940519E+00  0.43383654755E-01 0.  0.
         14    1    1    2    0    0  0.77454603002E-02  0.90389012744E-02  0.62066566917E-02  0.13424473129E-01  0.00000000000E+00 0.  1.
     999901    1    3    3    0    0  0.33780374533E-02  0.10885372229E+00  0.58729537832E-01  0.88865612168E+00  0.88000000000E+00 0. -1.
        -11    1    4    4    0    0 -0.15163531351E-01 -0.53749006744E-01 -0.88501159392E-02  0.56546211917E-01  0.51100000000E-03 0.  1.
         11    1    4    4    0    0  0.40400335979E-02 -0.64143616818E-01 -0.56086078585E-01  0.85303193270E-01  0.51100000000E-03 0. -1.
</event>
<event>
 8    1  0.2825007E+004  0.1043930E+01  0.7957747E-01            NaN
         13   -1    0    0    0    0  0.00000000000E+00  0.00000000000E+00  0.74505805969E-08  0.10566000000E+00  0.10566000000E+00 0.  1.
     999900   -1    0    0    0    0 -0.00000000000E+00 -0.00000000000E+00 -0.74505805969E-08  0.93827000000E+00  0.93827000000E+00 0. -1.
     999902    2    1    2    0    0  0.11257080118E-01  0.13311012005E-02  0.82202952663E-02  0.10299276096E+01  0.10298324204E+01 0.  0.
     999903    2    3    3    0    0  0.10871428387E+00  0.25179222633E-01 -0.71583503698E-01  0.14063840702E+00  0.46927334867E-01 0.  0.
         14    1    1    2    0    0 -0.11257080118E-01 -0.13311012005E-02 -0.82202952663E-02  0.14002390420E-01  0.00000000000E+00 0.  1.
     999901    1    3    3    0    0 -0.97457203752E-01 -0.23848121433E-01  0.79803798965E-01  0.88928920256E+00  0.88000000000E+00 0.  1.
        -11    1    4    4    0    0  0.77263577988E-01  0.38390217467E-01 -0.57766514002E-01  0.10383015237E+00  0.51100000000E-03 0.  1.
         11    1    4    4    0    0  0.31450705882E-01 -0.13210994834E-01 -0.13816989697E-01  0.36808254649E-01  0.51100000000E-03 0. -1.
</event>
<event>
 8    1  0.2825007E+004  0.1043930E+01  0.7957747E-01            NaN
         13   -1    0    0    0    0  0.00000000000E+00  0.00000000000E+00  0.74505805969E-08  0.10566000000E+00  0.10566000000E+00 0.  1.
     999900   -1    0    0    0    0 -0.00000000000E+00 -0.00000000000E+00 -0.74505805969E-08  0.93827000000E+00  0.93827000000E+00 0. -1.
     999902    2    1    2    0    0  0.86029512759E-02 -0.18400996573E-02  0.10589194861E-01  0.10301630909E+01  0.10300710976E+01 0.  0.
     999903    2    3    3    0    0 -0.81365494450E-01 -0.26222748580E-01 -0.99450621222E-01  0.13842456652E+00  0.44305285526E-01 0.  0.
         14    1    1    2    0    0 -0.86029512759E-02  0.18400996573E-02 -0.10589194861E-01  0.13766909065E-01  0.00000000000E+00 0. -1.
     999901    1    3    3    0    0  0.89968445726E-01  0.24382648922E-01  0.11003981608E+00  0.89173852441E+00  0.88000000000E+00 0.  1.
        -11    1    4    4    0    0 -0.51845273413E-01  0.61166419149E-02 -0.59393820201E-01  0.79077384141E-01  0.51100000000E-03 0. -1.
         11    1    4    4    0    0 -0.29520221037E-01 -0.32339390495E-01 -0.40056801022E-01  0.59347182383E-01  0.51100000000E-03 0.  1.
</event>
<event>
 8    1  0.2825007E+004  0.1043930E+01  0.7957747E-01            NaN
         13   -1    0    0    0    0  0.00000000000E+00  0.00000000000E+00  0.74505805969E-08  0.10566000000E+00  0.10566000000E+00 0. -1.
     999900   -1    0    0    0    0 -0.00000000000E+00 -0.00000000000E+00 -0.74505805969E-08  0.93827000000E+00  0.93827000000E+00 0.  1.
     999902    2    1    2    0    0  0.86111941834E-02 -0.78798972121E-02 -0.78842440679E-02  0.10298443069E+01  0.10297479739E+01 0.  0.
     999903    2    3    3    0    0 -0.46553770039E-01  0.12137880141E+00  0.14676900350E-01  0.13840727061E+00  0.45178470720E-01 0.  0.
         14    1    1    2    0    0 -0.86111941834E-02  0.78798972121E-02  0.78842440679E-02  0.14085693091E-01  0.00000000000E+00 0. -1.
     999901    1    3    3    0    0  0.55164964222E-01 -0.12925869862E+00 -0.22561144418E-01  0.89143703630E+00  0.88000000000E+00 0. -1.
        -11    1    4    4    0    0 -0.26646376007E-01  0.18630791109E-01  0.82621362895E-02  0.33550853174E-01  0.51100000000E-03 0.  1.
         11    1    4    4    0    0 -0.19907394032E-01  0.10274801030E+00  0.64147640602E-02  0.10485641744E+00  0.51100000000E-03 0. -1.
</event>
<event>
 8    1  0.2825007E+004  0.1043930E+01  0.7957747E-01            NaN
         13   -1    0    0    0    0  0.00000000000E+00  0.00000000000E+00  0.74505805969E-08  0.10566000000E+00  0.10566000000E+00 0. -1.
     999900   -1    0    0    0    0 -0.00000000000E+00 -0.00000000000E+00 -0.74505805969E-08  0.93827000000E+00  0.93827000000E+00 0. -1.
     999902    2    1    2    0    0 -0.66455580941E-02  0.11409956891E-01 -0.50178915441E-02  0.10298044984E+01  0.10297076164E+01 0.  0.
     999903    2    3    3    0    0  0.75079666518E-01  0.91419349867E-01  0.59937369607E-01  0.14002941380E+00  0.44958810033E-01 0.  0.
         14    1    1    2    0    0  0.66455580941E-02 -0.11409956891E-01  0.50178915441E-02  0.14125501555E-01  0.00000000000E+00 0. -1.
     999901    1    3    3    0    0 -0.81725224612E-01 -0.80009392976E-01 -0.64955261151E-01  0.88977508464E+00  0.88000000000E+00 0. -1.
        -11    1    4    4    0    0  0.30457217320E-01  0.60334973266E-01  0.51546555567E-01  0.85001527031E-01  0.51100000000E-03 0. -1.
         11    1    4    4    0    0  0.44622449198E-01  0.31084376601E-01  0.83908140400E-02  0.55027886770E-01  0.51100000000E-03 0.  1.
</event>
<event>
 8    1  0.2825007E+004  0.1043930E+01  0.7957747E-01            NaN
         13   -1    0    0    0    0  0.00000000000E+00  0.00000000000E+00  0.74505805969E-08  0.10566000000E+00  0.10566000000E+00 0. -1.
     999900   -1    0    0    0    0 -0.00000000000E+00 -0.00000000000E+00 -0.74505805969E-08  0.93827000000E+00  0.93827000000E+00 0.  1.
     999902    2    1    2    0    0  0.11588349655E-01  0.49830795410E-02  0.36043981486E-02  0.10308108302E+01  0.10307273428E+01 0.  0.
     999903    2    3    3    0    0  0.65519829804E-01  0.32359171921E-01 -0.11205753947E+00  0.14118408895E+00  0.45123061903E-01 0.  0.
         14    1    1    2    0    0 -0.11588349655E-01 -0.49830795410E-02 -0.36043981486E-02  0.13119169770E-01  0.00000000000E+00 0. -1.
     999901    1    3    3    0    0 -0.53931480149E-01 -0.27376092380E-01  0.11566193762E+00  0.88962674128E+00  0.88000000000E+00 0. -1.
        -11    1    4    4    0    0 -0.26372140793E-02 -0.43094051562E-02 -0.21344672893E-01  0.21940420525E-01  0.51100000000E-03 0.  1.
         11    1    4    4    0    0  0.68157043883E-01  0.36668577077E-01 -0.90712866579E-01  0.11924366843E+00  0.51100000000E-03 0. -1.
</event>
<event>
 8    1  0.2825007E+004  0.1043930E+01  0.7957747E-01            NaN
         13   -1    0    0    0    0  0.00000000000E+00  0.00000000000E+00  0.74505805969E-08  0.10566000000E+00  0.10566000000E+00 0. -1.
     999900   -1    0    0    0    0 -0.00000000000E+00 -0.00000000000E+00 -0.74505805969E-08  0.93827000000E+00  0.93827000000E+00 0.  1.
     999902    2    1    2    0    0  0.13574069475E-01  0.50821063705E-02 -0.26396283286E-03  0.10294333506E+01  0.10293312734E+01 0.  0.
     999903    2    3    3    0    0 -0.62455929791E-01  0.10897985972E+00 -0.45205714217E-01  0.13893064710E+00  0.38481360618E-01 0.  0.
         14    1    1    2    0    0 -0.13574069475E-01 -0.50821063705E-02  0.26396283286E-03  0.14496649394E-01  0.00000000000E+00 0. -1.
     999901    1    3    3    0    0  0.76029999266E-01 -0.10389775335E+00  0.44941751384E-01  0.89050270351E+00  0.88000000000E+00 0. -1.
        -11    1    4    4    0    0 -0.56189986904E-01  0.76114420975E-01 -0.46551986662E-01  0.10544225098E+00  0.51100000000E-03 0. -1.
         11    1    4    4    0    0 -0.62659428870E-02  0.32865438742E-01  0.13462724453E-02  0.33488396117E-01  0.51100000000E-03 0.  1.
</event>
<event>
 8    1  0.2825007E+004  0.1043930E+01  0.7957747E-01            NaN
         13   -1    0    0    0    0  0.00000000000E+00  0.00000000000E+00  0.74505805969E-08  0.10566000000E+00  0.10566000000E+00 0. -1.
     999900   -1    0    0    0    0 -0.00000000000E+00 -0.00000000000E+00 -0.74505805969E-08  0.93827000000E+00  0.93827000000E+00 0. -1.
     999902    2    1    2    0    0 -0.20394887901E-02  0.12402159908E-01  0.59927788086E-02  0.10300056874E+01  0.10299115639E+01 0.  0.
     999903    2    3    3    0    0  0.96937774300E-01  0.87838820297E-01  0.25251824617E-01  0.14104106534E+00  0.46285386770E-01 0.  0.
         14    1    1    2    0    0  0.20394887901E-02 -0.12402159908E-01 -0.59927788086E-02  0.13924312650E-01  0.00000000000E+00 0.  1.
     999901    1    3    3    0    0 -0.98977263091E-01 -0.75436660388E-01 -0.19259045809E-01  0.88896462201E+00  0.88000000000E+00 0. -1.
        -11    1    4    4    0    0  0.56525615940E-01  0.67446300545E-01  0.35047637661E-01  0.94724583616E-01  0.51100000000E-03 0. -1.
         11    1    4    4    0    0  0.40412158360E-01  0.20392519752E-01 -0.97958130436E-02  0.46316481724E-01  0.51100000000E-03 0.  1.
</event>
<event>
 8    1  0.2825007E+004  0.1043930E+01  0.7957747E-01            NaN
         13   -1    0    0    0    0  0.00000000000E+00  0.00000000000E+00  0.74505805969E-08  0.10566000000E+00  0.10566000000E+00 0.  1.
     999900   -1    0    0    0    0 -0.00000000000E+00 -0.00000000000E+00 -0.74505805969E-08  0.93827000000E+00  0.93827000000E+00 0.  1.
     999902    2    1    2    0    0 -0.40356841420E-02  0.48884352468E-02 -0.49047244512E-02  0.10359150223E+01  0.10358840155E+01 0.  0.
     999903    2    3    3    0    0 -0.11306884690E+00  0.62246152019E-01 -0.50685924763E-01  0.14615434854E+00  0.46183146814E-01 0.  0.
         14    1    1    2    0    0  0.40356841420E-02 -0.48884352468E-02  0.49047244512E-02  0.80149777042E-02  0.00000000000E+00 0.  1.
     999901    1    3    3    0    0  0.10903316275E+00 -0.57357716772E-01  0.45781200311E-01  0.88976067375E+00  0.88000000000E+00 0. -1.
        -11    1    4    4    0    0 -0.52420642749E-01  0.40785735094E-01 -0.47655511932E-01  0.81747837353E-01  0.51100000000E-03 0. -1.
         11    1    4    4    0    0 -0.60648204148E-01  0.21460416924E-01 -0.30304128309E-02  0.64406511191E-01  0.51100000000E-03 0.  1.
</event>
<event>
 8    1  0.2825007E+004  0.1043930E+01  0.7957747E-01            NaN
         13   -1    0    0    0    0  0.00000000000E+00  0.00000000000E+00  0.74505805969E-08  0.10566000000E+00  0.10566000000E+00 0.  1.
     999900   -1    0    0    0    0 -0.00000000000E+00 -0.00000000000E+00 -0.74505805969E-08  0.93827000000E+00  0.93827000000E+00 0.  1.
     999902    2    1    2    0    0 -0.10445943980E-01 -0.48057830773E-02 -0.83339323369E-02  0.10297290238E+01  0.10296310964E+01 0.  0.
     999903    2    3    3    0    0 -0.11413462488E+00 -0.55045365436E-01 -0.45199633299E-01  0.14145291916E+00  0.43694583593E-01 0.  0.
         14    1    1    2    0    0  0.10445943980E-01  0.48057830773E-02  0.83339323369E-02  0.14200976193E-01  0.00000000000E+00 0.  1.
     999901    1    3    3    0    0  0.10368868090E+00  0.50239582358E-01  0.36865700962E-01  0.88827610465E+00  0.88000000000E+00 0. -1.
        -11    1    4    4    0    0 -0.10529479813E+00 -0.36795895962E-01 -0.28358309086E-01  0.11508860625E+00  0.51100000000E-03 0. -1.
         11    1    4    4    0    0 -0.88398267540E-02 -0.18249469474E-01 -0.16841324214E-01  0.26364312913E-01  0.51100000000E-03 0.  1.
</event>
<event>
 8    1  0.2825007E+004  0.1043930E+01  0.7957747E-01            NaN
         13   -1    0    0    0    0  0.00000000000E+00  0.00000000000E+00  0.74505805969E-08  0.10566000000E+00  0.10566000000E+00 0.  1.
     999900   -1    0    0    0    0 -0.00000000000E+00 -0.00000000000E+00 -0.74505805969E-08  0.93827000000E+00  0.93827000000E+00 0. -1.
     999902    2    1    2    0    0 -0.14254640406E-01 -0.35924443749E-02 -0.42438323749E-02  0.10286293287E+01  0.10285155251E+01 0.  0.
     999903    2    3    3    0    0 -0.65732808090E-01 -0.13569297521E-01 -0.11470369663E+00  0.14017509747E+00  0.44577932138E-01 0.  0.
         14    1    1    2    0    0  0.14254640406E-01  0.35924443749E-02  0.42438323749E-02  0.15300671323E-01  0.00000000000E+00 0.  1.
     999901    1    3    3    0    0  0.51478167683E-01  0.99768531459E-02  0.11045986426E+00  0.88845423121E+00  0.88000000000E+00 0.  1.
        -11    1    4    4    0    0 -0.19736155109E-02 -0.14971225721E-01 -0.12063775501E-01  0.19334646573E-01  0.51100000000E-03 0.  1.
         11    1    4    4    0    0 -0.63759192579E-01  0.14019281999E-02 -0.10263992113E+00  0.12084045089E+00  0.51100000000E-03 0. -1.
</event>
<event>
 8    1  0.2825007E+004  0.1043930E+01  0.7957747E-01            NaN
         13   -1    0    0    0    0  0.00000000000E+00  0.00000000000E+00  0.74505805969E-08  0.10566000000E+00  0.10566000000E+00 0.  1.
     999900   -1    0    0    0    0 -0.00000000000E+00 -0.00000000000E+00 -0.74505805969E-08  0.93827000000E+00  0.93827000000E+00 0.  1.
     999902    2    1    2    0    0  0.53613634637E-02 -0.27437780493E-03  0.13565943885E-01  0.10293404717E+01  0.10292370730E+01 0.  0.
     999903    2    3    3    0    0  0.73110343453E-01  0.30952340555E-01  0.10752204315E+00  0.14120040350E+00  0.45534541614E-01 0.  0.
         14    1    1    2    0    0 -0.53613634637E-02  0.27437780493E-03 -0.13565943885E-01  0.14589528260E-01  0.00000000000E+00 0. -1.
     999901    1    3    3    0    0 -0.67748979989E-01 -0.31226718360E-01 -0.93956099261E-01  0.88814006824E+00  0.88000000000E+00 0.  1.
        -11    1    4    4    0    0  0.83366342692E-02  0.20590882733E-01  0.11804863297E-01  0.25161475336E-01  0.51100000000E-03 0.  1.
         11    1    4    4    0    0  0.64773709184E-01  0.10361457823E-01  0.95717179848E-01  0.11603892816E+00  0.51100000000E-03 0. -1.
</event>
<event>
 8    1  0.2825007E+004  0.1043930E+01  0.7957747E-01            NaN
         13   -1    0    0    0    0  0.00000000000E+00  0.00000000000E+00  0.74505805969E-08  0.10566000000E+00  0.10566000000E+00 0. -1.
     999900   -1    0    0    0    0 -0.00000000000E+00 -0.00000000000E+00 -0.74505805969E-08  0.93827000000E+00  0.93827000000E+00 0.  1.
     999902    2    1    2    0    0  0.14565289043E-02 -0.91691140675E-02 -0.74272738045E-02  0.10320405709E+01  0.10319720836E+01 0.  0.
     999903    2    3    3    0    0  0.41739413609E-01 -0.50434949727E-01 -0.11876923231E+00  0.14315215732E+00  0.45831722621E-01 0.  0.
         14    1    1    2    0    0 -0.14565289043E-02  0.91691140675E-02  0.74272738045E-02  0.11889429145E-01  0.00000000000E+00 0. -1.
     999901    1    3    3    0    0 -0.40282884705E-01  0.41265835660E-01  0.11134195851E+00  0.88888841354E+00  0.88000000000E+00 0. -1.
        -11    1    4    4    0    0  0.15251481073E-01 -0.46263518780E-01 -0.97241112765E-01  0.10876127977E+00  0.51100000000E-03 0.  1.
         11    1    4    4    0    0  0.26487932536E-01 -0.41714309475E-02 -0.21528119549E-01  0.34390877548E-01  0.51100000000E-03 0. -1.
</event>
<event>
 8    1  0.2825007E+004  0.1043930E+01  0.7957747E-01            NaN
         13   -1    0    0    0    0  0.00000000000E+00  0.00000000000E+00  0.74505805969E-08  0.10566000000E+00  0.10566000000E+00 0.  1.
     999900   -1    0    0    0    0 -0.00000000000E+00 -0.00000000000E+00 -0.74505805969E-08  0.93827000000E+00  0.93827000000E+00 0. -1.
     999902    2    1    2    0    0  0.23855541938E-02  0.78080532532E-02 -0.10477129632E-01  0.10306474246E+01  0.10305618307E+01 0.  0.
     999903    2    3    3    0    0  0.62940871391E-01 -0.10124781174E+00 -0.59669503704E-01  0.14049012511E+00  0.44321021079E-01 0.  0.
         14    1    1    2    0    0 -0.23855541938E-02 -0.78080532532E-02  0.10477129632E-01  0.13282575418E-01  0.00000000000E+00 0.  1.
     999901    1    3    3    0    0 -0.60555317197E-01  0.10905586499E+00  0.49192374072E-01  0.89015729947E+00  0.88000000000E+00 0.  1.
        -11    1    4    4    0    0  0.17312925211E-01 -0.21934628219E-02 -0.13459966802E-01  0.22044965090E-01  0.51100000000E-03 0. -1.
         11    1    4    4    0    0  0.45627946180E-01 -0.99054348914E-01 -0.46209536901E-01  0.11844516002E+00  0.51100000000E-03 0.  1.
</event>
<event>
 7    1  0.2825007E+004  0.1043930E+01  0.7957747E-01            NaN
         13   -1    0    0    0    0  0.00000000000E+00  0.00000000000E+00  0.74505805969E-08  0.10566000000E+00  0.10566000000E+00 0.  1.
     999900   -1    0    0    0    0 -0.00000000000E+00 -0.00000000000E+00 -0.74505805969E-08  0.93827000000E+00  0.93827000000E+00 0. -1.
     999903    2    1    2    0    0 -0.19780351379E-01  0.16869242396E-01  0.96646454131E-01  0.11039010190E+00  0.46579006666E-01 0.  0.
         14    1    1    2    0    0  0.25463651608E-01  0.25278835721E-02 -0.45033658445E-01  0.51795927846E-01  0.00000000000E+00 0. -1.
     999901    1    1    2    0    0 -0.56833002287E-02 -0.19397125968E-01 -0.51612795686E-01  0.88174397025E+00  0.88000000000E+00 0. -1.
        -11    1    3    3    0    0 -0.12575970153E-01 -0.14899864646E-01  0.25202743459E-01  0.31868485854E-01  0.51100000000E-03 0. -1.
         11    1    3    3    0    0 -0.72043812262E-02  0.31769107042E-01  0.71443710672E-01  0.78521616047E-01  0.51100000000E-03 0.  1.
</event>
<event>
 8    1  0.2825007E+004  0.1043930E+01  0.7957747E-01            NaN
         13   -1    0    0    0    0  0.00000000000E+00  0.00000000000E+00  0.74505805969E-08  0.10566000000E+00  0.10566000000E+00 0. -1.
     999900   -1    0    0    0    0 -0.00000000000E+00 -0.00000000000E+00 -0.74505805969E-08  0.93827000000E+00  0.93827000000E+00 0. -1.
     999902    2    1    2    0    0  0.15260007147E-01 -0.68000066358E-03 -0.92190110426E-02  0.10260884647E+01  0.10259333394E+01 0.  0.
     999903    2    3    3    0    0 -0.14457271274E-02 -0.12875015956E+00 -0.11213036385E-01  0.13665885906E+00  0.44398399308E-01 0.  0.
         14    1    1    2    0    0 -0.15260007147E-01  0.68000066358E-03  0.92190110426E-02  0.17841535350E-01  0.00000000000E+00 0.  1.
     999901    1    3    3    0    0  0.16705734275E-01  0.12807015890E+00  0.19940253427E-02  0.88942960559E+00  0.88000000000E+00 0.  1.
        -11    1    4    4    0    0 -0.53809152607E-02 -0.10989439042E+00 -0.25166118512E-01  0.11286862247E+00  0.51100000000E-03 0. -1.
         11    1    4    4    0    0  0.39351881334E-02 -0.18855769140E-01  0.13953082127E-01  0.23790236597E-01  0.51100000000E-03 0.  1.
</event>
<event>
 8    1  0.2825007E+004  0.1043930E+01  0.7957747E-01            NaN
         13   -1    0    0    0    0  0.00000000000E+00  0.00000000000E+00  0.74505805969E-08  0.10566000000E+00  0.10566000000E+00 0. -1.
     999900   -1    0    0    0    0 -0.00000000000E+00 -0.00000000000E+00 -0.74505805969E-08  0.93827000000E+00  0.93827000000E+00 0. -1.
     999902    2    1    2    0    0  0.31132880737E-02 -0.11296234658E-01  0.66595202996E-02  0.10304523633E+01  0.10303642202E+01 0.  0.
     999903    2    3    3    0    0 -0.26206719893E-02  0.98662031919E-01  0.88249845722E-01  0.13984544672E+00  0.45029426300E-01 0.  0.
         14    1    1    2    0    0 -0.31132880737E-02  0.11296234658E-01 -0.66595202996E-02  0.13477636689E-01  0.00000000000E+00 0.  1.
     999901    1    3    3    0    0  0.57339600630E-02 -0.10995826658E+00 -0.81590325423E-01  0.89060691660E+00  0.88000000000E+00 0. -1.
        -11    1    4    4    0    0 -0.72664867367E-02  0.67578136379E-01  0.84110351909E-01  0.10814073592E+00  0.51100000000E-03 0. -1.
         11    1    4    4    0    0  0.46458147475E-02  0.31083895540E-01  0.41394938132E-02  0.31704710796E-01  0.51100000000E-03 0.  1.
</event>
<event>
 8    1  0.2825007E+004  0.1043930E+01  0.7957747E-01            NaN
         13   -1    0    0    0    0  0.00000000000E+00  0.00000000000E+00  0.74505805969E-08  0.10566000000E+00  0.10566000000E+00 0. -1.
     999900   -1    0    0    0    0 -0.00000000000E+00 -0.00000000000E+00 -0.74505805969E-08  0.93827000000E+00  0.93827000000E+00 0. -1.
     999902    2    1    2    0    0  0.73144183402E-02 -0.12386500407E-01 -0.28923455563E-02  0.10292571758E+01  0.10291525845E+01 0.  0.
     999903    2    3    3    0    0  0.12947363107E+00 -0.30509232818E-02 -0.32920351592E-01  0.14026240222E+00  0.42627017884E-01 0.  0.
         14    1    1    2    0    0 -0.73144183402E-02  0.12386500407E-01  0.28923455563E-02  0.14672824227E-01  0.00000000000E+00 0. -1.
     999901    1    3    3    0    0 -0.12215921273E+00 -0.93355771250E-02  0.30028006036E-01  0.88899477355E+00  0.88000000000E+00 0. -1.
        -11    1    4    4    0    0  0.53044466312E-01  0.11179338794E-01  0.36732907150E-02  0.54336426160E-01  0.51100000000E-03 0.  1.
         11    1    4    4    0    0  0.76429164754E-01 -0.14230262076E-01 -0.36593642307E-01  0.85925976062E-01  0.51100000000E-03 0. -1.
</event>
<event>
 8    1  0.2825007E+004  0.1043930E+01  0.7957747E-01            NaN
         13   -1    0    0    0    0  0.00000000000E+00  0.00000000000E+00  0.74505805969E-08  0.10566000000E+00  0.10566000000E+00 0.  1.
     999900   -1    0    0    0    0 -0.00000000000E+00 -0.00000000000E+00 -0.74505805969E-08  0.93827000000E+00  0.93827000000E+00 0. -1.
     999902    2    1    2    0    0 -0.69421159973E-03 -0.40575014439E-03 -0.12466483635E-01  0.10314376112E+01  0.10313619569E+01 0.  0.
     999903    2    3    3    0    0  0.85398708934E-01 -0.13199387134E-01  0.10111652460E+00  0.13987899405E+00  0.43294550704E-01 0.  0.
         14    1    1    2    0    0  0.69421159973E-03  0.40575014439E-03  0.12466483635E-01  0.12492388768E-01  0.00000000000E+00 0.  1.
     999901    1    3    3    0    0 -0.86092920534E-01  0.12793636990E-01 -0.11358300823E+00  0.89155861718E+00  0.88000000000E+00 0. -1.
        -11    1    4    4    0    0  0.15342111967E-01 -0.21079737494E-01  0.29782352185E-01  0.39585165846E-01  0.51100000000E-03 0. -1.
         11    1    4    4    0    0  0.70056596967E-01  0.78803503598E-02  0.71334172415E-01  0.10029382820E+00  0.51100000000E-03 0.  1.
</event>
<event>
 8    1  0.2825007E+004  0.1043930E+01  0.7957747E-01            NaN
         13   -1    0    0    0    0  0.00000000000E+00  0.00000000000E+00  0.74505805969E-08  0.10566000000E+00  0.10566000000E+00 0.  1.
     999900   -1    0    0    0    0 -0.00000000000E+00 -0.00000000000E+00 -0.74505805969E-08  0.93827000000E+00  0.93827000000E+00 0. -1.
     999902    2    1    2    0    0  0.22301268870E-02 -0.14174078873E-03  0.13998558024E-01  0.10297542043E+01  0.10296566263E+01 0.  0.
     999903    2    3    3    0    0 -0.21086038648E-01 -0.10614016268E+00  0.79081954057E-01  0.14070124895E+00  0.42808069779E-01 0.  0.
         14    1    1    2    0    0 -0.22301268870E-02  0.14174078873E-03 -0.13998558024E-01  0.14175795679E-01  0.00000000000E+00 0. -1.
     999901    1    3    3    0    0  0.23316165534E-01  0.10599842189E+00 -0.65083396034E-01  0.88905295537E+00  0.88000000000E+00 0.  1.
        -11    1    4    4    0    0 -0.26713405914E-01 -0.71187888544E-01  0.71748027743E-01  0.10454358965E+00  0.51100000000E-03 0.  1.
         11    1    4    4    0    0  0.56273672666E-02 -0.34952274137E-01  0.73339263139E-02  0.36157659298E-01  0.51100000000E-03 0. -1.
</event>
<event>
 8    1  0.2825007E+004  0.1043930E+01  0.7957747E-01            NaN
         13   -1    0    0    0    0  0.00000000000E+00  0.00000000000E+00  0.74505805969E-08  0.10566000000E+00  0.10566000000E+00 0. -1.
     999900   -1    0    0    0    0 -0.00000000000E+00 -0.00000000000E+00 -0.74505805969E-08  0.93827000000E+00  0.93827000000E+00 0.  1.
     999902    2    1    2    0    0 -0.13327126087E-01 -0.36931333741E-02  0.18666582478E-02  0.10299752181E+01  0.10298806795E+01 0.  0.
     999903    2    3    3    0    0  0.51714978076E-01  0.59551014329E-01  0.10548952418E+00  0.13926314576E+00  0.45226339549E-01 0.  0.
         14    1    1    2    0    0  0.13327126087E-01  0.36931333741E-02 -0.18666582478E-02  0.13954781864E-01  0.00000000000E+00 0. -1.
     999901    1    3    3    0    0 -0.65042104163E-01 -0.63244147703E-01 -0.10362286594E+00  0.89071207238E+00  0.88000000000E+00 0.  1.
        -11    1    4    4    0    0  0.56711773163E-02  0.28212527192E-01  0.62817019721E-01  0.69096657158E-01  0.51100000000E-03 0.  1.
         11    1    4    4    0    0  0.46043800760E-01  0.31338487137E-01  0.42672504464E-01  0.70166488602E-01  0.51100000000E-03 0. -1.
</event>
<event>
 8    1  0.2825007E+004  0.1043930E+01  0.7957747E-01            NaN
         13   -1    0    0    0    0  0.00000000000E+00  0.00000000000E+00  0.74505805969E-08  0.10566000000E+00  0.10566000000E+00 0. -1.
     999900   -1    0    0    0    0 -0.00000000000E+00 -0.00000000000E+00 -0.74505805969E-08  0.93827000000E+00  0.93827000000E+00 0.  1.
     999902    2    1    2    0    0 -0.15581386478E-02 -0.11394332309E-01 -0.75756691156E-02  0.10301586759E+01  0.10300666232E+01 0.  0.
     999903    2    3    3    0    0 -0.29662498787E-01 -0.90574549532E-01 -0.94951298414E-01  0.14184912262E+00  0.44964560052E-01 0.  0.
         14    1    1    2    0    0  0.15581386478E-02  0.11394332309E-01  0.75756691156E-02  0.13771324097E-01  0.00000000000E+00 0.  1.
     999901    1    3    3    0    0  0.28104360139E-01  0.79180217222E-01  0.87375629298E-01  0.88830955328E+00  0.88000000000E+00 0. -1.
        -11    1    4    4    0    0 -0.21484470014E-01 -0.48652756615E-01 -0.81022359031E-01  0.96920364022E-01  0.51100000000E-03 0. -1.
         11    1    4    4    0    0 -0.81780287725E-02 -0.41921792917E-01 -0.13928939382E-01  0.44928758599E-01  0.51100000000E-03 0.  1.
</event>
<event>
 8    1  0.2825007E+004  0.1043930E+01  0.7957747E-01            NaN
         13   -1    0    0    0    0  0.00000000000E+00  0.00000000000E+00  0.74505805969E-08  0.10566000000E+00  0.10566000000E+00 0. -1.
     999900   -1    0    0    0    0 -0.00000000000E+00 -0.00000000000E+00 -0.74505805969E-08  0.93827000000E+00  0.93827000000E+00 0. -1.
     999902    2    1    2    0    0  0.96894972568E-02  0.95244162459E-02  0.14027090047E-02  0.10302709937E+01  0.10301804463E+01 0.  0.
     999903    2    3    3    0    0  0.94954598394E-01 -0.41921824084E-01  0.83657495226E-01  0.14084269245E+00  0.45434264812E-01 0.  0.
         14    1    1    2    0    0 -0.96894972568E-02 -0.95244162459E-02 -0.14027090047E-02  0.13659006350E-01  0.00000000000E+00 0. -1.
     999901    1    3    3    0    0 -0.85265101137E-01  0.51446240330E-01 -0.82254786221E-01  0.88942830120E+00  0.88000000000E+00 0.  1.
        -11    1    4    4    0    0  0.51987215720E-01 -0.20351112216E-01  0.72461785507E-01  0.91475733649E-01  0.51100000000E-03 0.  1.
         11    1    4    4    0    0  0.42967382674E-01 -0.21570711868E-01  0.11195709719E-01  0.49366958803E-01  0.51100000000E-03 0. -1.
</event>
<event>
 8    1  0.2825007E+004  0.1043930E+01  0.7957747E-01            NaN
         13   -1    0    0    0    0  0.00000000000E+00  0.00000000000E+00  0.74505805969E-08  0.10566000000E+00  0.10566000000E+00 0.  1.
     999900   -1    0    0    0    0 -0.00000000000E+00 -0.00000000000E+00 -0.74505805969E-08  0.93827000000E+00  0.93827000000E+00 0.  1.
     999902    2    1    2    0    0  0.56913602646E-03  0.12598744688E-01 -0.97360705358E-02  0.10279975378E+01  0.10278740654E+01 0.  0.
     999903    2    3    3    0    0  0.10195434346E+00 -0.26445047061E-02  0.81103908277E-01  0.13740042420E+00  0.43581545136E-01 0.  0.
         14    1    1    2    0    0 -0.56913602646E-03 -0.12598744688E-01  0.97360705358E-02  0.15932462239E-01  0.00000000000E+00 0.  1.
     999901    1    3    3    0    0 -0.10138520743E+00  0.15243249394E-01 -0.90839978812E-01  0.89059711356E+00  0.88000000000E+00 0.  1.
        -11    1    4    4    0    0  0.34977463397E-01 -0.61148771766E-02  0.48388735585E-02  0.35839789158E-01  0.51100000000E-03 0.  1.
         11    1    4    4    0    0  0.66976880062E-01  0.34703724705E-02  0.76265034718E-01  0.10156063504E+00  0.51100000000E-03 0. -1.
</event>
<event>
 8    1  0.2825007E+004  0.1043930E+01  0.7957747E-01            NaN
         13   -1    0    0    0    0  0.00000000000E+00  0.00000000000E+00  0.74505805969E-08  0.10566000000E+00  0.10566000000E+00 0.  1.
     999900   -1    0    0    0    0 -0.00000000000E+00 -0.00000000000E+00 -0.74505805969E-08  0.93827000000E+00  0.93827000000E+00 0.  1.
     999902    2    1    2    0    0 -0.13062696621E-01 -0.35873773700E-02  0.26309502272E-02  0.10301305356E+01  0.10300381037E+01 0.  0.
     999903    2    3    3    0    0  0.10208131037E+00 -0.78563848779E-01  0.35183330396E-02  0.13946763578E+00  0.53347638207E-01 0.  0.
         14    1    1    2    0    0  0.13062696621E-01  0.35873773700E-02 -0.26309502272E-02  0.13799464428E-01  0.00000000000E+00 0.  1.
     999901    1    3    3    0    0 -0.11514400699E+00  0.74976471409E-01 -0.88738281236E-03  0.89066289979E+00  0.88000000000E+00 0.  1.
        -11    1    4    4    0    0  0.36246087981E-01 -0.51956494144E-02 -0.14263049247E-01  0.39299737424E-01  0.51100000000E-03 0. -1.
         11    1    4    4    0    0  0.65835222387E-01 -0.73368199365E-01  0.17781382287E-01  0.10016789836E+00  0.51100000000E-03 0.  1.
</event>
<event>
 8    1  0.2825007E+004  0.1043930E+01  0.7957747E-01            NaN
         13   -1    0    0    0    0  0.00000000000E+00  0.00000000000E+00  0.74505805969E-08  0.10566000000E+00  0.10566000000E+00 0. -1.
     999900   -1    0    0    0    0 -0.00000000000E+00 -0.00000000000E+00 -0.74505805969E-08  0.93827000000E+00  0.93827000000E+00 0.  1.
     999902    2    1    2    0    0  0.85396210185E-02  0.60048231433E-02  0.19864677802E-01  0.10214892234E+01  0.10212426965E+01 0.  0.
     999903    2    3    3    0    0 -0.11849421915E+00 -0.20879291743E-02 -0.33718449547E-01  0.13071751267E+00  0.43645101176E-01 0.  0.
         14    1    1    2    0    0 -0.85396210185E-02 -0.60048231433E-02 -0.19864677802E-01  0.22440776553E-01  0.00000000000E+00 0.  1.
     999901    1    3    3    0    0  0.12703384017E+00  0.80927523176E-02  0.53583127350E-01  0.89077171078E+00  0.88000000000E+00 0. -1.
        -11    1    4    4    0    0 -0.10251967671E+00 -0.16012227397E-01 -0.20599542948E-01  0.10578883603E+00  0.51100000000E-03 0.  1.
         11    1    4    4    0    0 -0.15974542449E-01  0.13924298223E-01 -0.13118906600E-01  0.24928676636E-01  0.51100000000E-03 0. -1.
</event>
<event>
 8    1  0.2825007E+004  0.1043930E+01  0.7957747E-01            NaN
         13   -1    0    0    0    0  0.00000000000E+00  0.00000000000E+00  0.74505805969E-08  0.10566000000E+00  0.10566000000E+00 0.  1.
     999900   -1    0    0    0    0 -0.00000000000E+00 -0.00000000000E+00 -0.74505805969E-08  0.93827000000E+00  0.93827000000E+00 0.  1.
     999902    2    1    2    0    0 -0.83849166090E-02  0.37106660920E-02 -0.19044781583E-01  0.10227928390E+01  0.10225744041E+01 0.  0.
     999903    2    3    3    0    0 -0.69476393108E-01 -0.10239343564E+00 -0.26857865185E-01  0.13428212259E+00  0.44709715547E-01 0.  0.
         14    1    1    2    0    0  0.83849166090E-02 -0.37106660920E-02  0.19044781583E-01  0.21137160995E-01  0.00000000000E+00 0.  1.
     999901    1    3    3    0    0  0.61091476499E-01  0.10610410173E+00  0.78130836014E-02  0.88851071641E+00  0.88000000000E+00 0. -1.
        -11    1    4    4    0    0 -0.69575741814E-02 -0.19932189019E-01 -0.22280131026E-01  0.30697969918E-01  0.51100000000E-03 0.  1.
         11    1    4    4    0    0 -0.62518818927E-01 -0.82461246620E-01 -0.45777341588E-02  0.10358415267E+00  0.51100000000E-03 0. -1.
</event>
<event>
 8    1  0.2825007E+004  0.1043930E+01  0.7957747E-01            NaN
         13   -1    0    0    0    0  0.00000000000E+00  0.00000000000E+00  0.74505805969E-08  0.10566000000E+00  0.10566000000E+00 0. -1.
     999900   -1    0    0    0    0 -0.00000000000E+00 -0.00000000000E+00 -0.74505805969E-08  0.93827000000E+00  0.93827000000E+00 0. -1.
     999902    2    1    2    0    0 -0.14592860453E-01 -0.58141497924E-02  0.11953425430E-02  0.10281761193E+01  0.10280554204E+01 0.  0.
     999903    2    3    3    0    0 -0.48994653878E-03  0.36999986890E-01 -0.12554947487E+00  0.13795356777E+00  0.43580696894E-01 0.  0.
         14    1    1    2    0    0  0.14592860453E-01  0.58141497924E-02 -0.11953425430E-02  0.15753880722E-01  0.00000000000E+00 0. -1.
     999901    1    3    3    0    0 -0.14102913915E-01 -0.42814136683E-01  0.12674481741E+00  0.89022255151E+00  0.88000000000E+00 0.  1.
        -11    1    4    4    0    0  0.93877953814E-02  0.37948047156E-01 -0.59722062450E-01  0.71380465460E-01  0.51100000000E-03 0. -1.
         11    1    4    4    0    0 -0.98777419202E-02 -0.94806026532E-03 -0.65827412419E-01  0.66573102305E-01  0.51100000000E-03 0.  1.
</event>
<event>
 8    1  0.2825007E+004  0.1043930E+01  0.7957747E-01            NaN
         13   -1    0    0    0    0  0.00000000000E+00  0.00000000000E+00  0.74505805969E-08  0.10566000000E+00  0.10566000000E+00 0. -1.
     999900   -1    0    0    0    0 -0.00000000000E+00 -0.00000000000E+00 -0.74505805969E-08  0.93827000000E+00  0.93827000000E+00 0.  1.
     999902    2    1    2    0    0 -0.36331187591E-02  0.66852690720E-02  0.10954976736E-01  0.10305919383E+01  0.10305056232E+01 0.  0.
     999903    2    3    3    0    0  0.37109870109E-02 -0.12681876036E+00 -0.35131602615E-01  0.13930004753E+00  0.45535747904E-01 0.  0.
         14    1    1    2    0    0  0.36331187591E-02 -0.66852690720E-02 -0.10954976736E-01  0.13338061695E-01  0.00000000000E+00 0.  1.
     999901    1    3    3    0    0 -0.73441057699E-02  0.13350402943E+00  0.46086579352E-01  0.89129189077E+00  0.88000000000E+00 0. -1.
        -11    1    4    4    0    0  0.24577437413E-01 -0.69111875472E-01 -0.16771456926E-01  0.75246559054E-01  0.51100000000E-03 0. -1.
         11    1    4    4    0    0 -0.20866450402E-01 -0.57706884884E-01 -0.18360145689E-01  0.64053488477E-01  0.51100000000E-03 0.  1.
</event>
<event>
 8    1  0.2825007E+004  0.1043930E+01  0.7957747E-01            NaN
         13   -1    0    0    0    0  0.00000000000E+00  0.00000000000E+00  0.74505805969E-08  0.10566000000E+00  0.10566000000E+00 0. -1.
     999900   -1    0    0    0    0 -0.00000000000E+00 -0.00000000000E+00 -0.74505805969E-08  0.93827000000E+00  0.93827000000E+00 0.  1.
     999902    2    1    2    0    0  0.30877176011E-02 -0.11267053701E-02  0.15812743152E-01  0.10277792628E+01  0.10276523570E+01 0.  0.
     999903    2    3    3    0    0 -0.53919953180E-01  0.11821368715E+00  0.83738703447E-02  0.13786503065E+00  0.45329987768E-01 0.  0.
         14    1    1    2    0    0 -0.30877176011E-02  0.11267053701E-02 -0.15812743152E-01  0.16150737165E-01  0.00000000000E+00 0.  1.
     999901    1    3    3    0    0  0.57007670781E-01 -0.11934039252E+00  0.74388728076E-02  0.88991423218E+00  0.88000000000E+00 0. -1.
        -11    1    4    4    0    0 -0.47510931218E-01  0.51167384848E-01  0.97109280323E-02  0.70497894306E-01  0.51100000000E-03 0. -1.
         11    1    4    4    0    0 -0.64090219622E-02  0.67046302303E-01 -0.13370576875E-02  0.67367136344E-01  0.51100000000E-03 0.  1.
</event>
<event>
 8    1  0.2825007E+004  0.1043930E+01  0.7957747E-01            NaN
         13   -1    0    0    0    0  0.00000000000E+00  0.00000000000E+00  0.74505805969E-08  0.10566000000E+00  0.10566000000E+00 0.  1.
     999900   -1    0    0    0    0 -0.00000000000E+00 -0.00000000000E+00 -0.74505805969E-08  0.93827000000E+00  0.93827000000E+00 0. -1.
     999902    2    1    2    0    0  0.97295902850E-02 -0.83743665448E-02 -0.38448006736E-02  0.10305293495E+01  0.10304422171E+01 0.  0.
     999903    2    3    3    0    0  0.18058198385E-01 -0.22998422127E-01  0.12997409778E+00  0.14025370323E+00  0.43849848655E-01 0.  0.
         14    1    1    2    0    0 -0.97295902850E-02  0.83743665448E-02  0.38448006736E-02  0.13400650520E-01  0.00000000000E+00 0. -1.
     999901    1    3    3    0    0 -0.83286080998E-02  0.14624055582E-01 -0.13381889846E+00  0.89027564625E+00  0.88000000000E+00 0. -1.
        -11    1    4    4    0    0 -0.89982971615E-02 -0.16635738263E-01  0.87277251586E-01  0.89304517829E-01  0.51100000000E-03 0.  1.
         11    1    4    4    0    0  0.27056495546E-01 -0.63626838635E-02  0.42696846197E-01  0.50949185405E-01  0.51100000000E-03 0. -1.
</event>
<event>
 8    1  0.2825007E+004  0.1043930E+01  0.7957747E-01            NaN
         13   -1    0    0    0    0  0.00000000000E+00  0.00000000000E+00  0.74505805969E-08  0.10566000000E+00  0.10566000000E+00 0.  1.
     999900   -1    0    0    0    0 -0.00000000000E+00 -0.00000000000E+00 -0.74505805969E-08  0.93827000000E+00  0.93827000000E+00 0. -1.
     999902    2    1    2    0    0 -0.48681622574E-02  0.63215820342E-02 -0.12551011813E-01  0.10290575657E+01  0.10289500883E+01 0.  0.
     999903    2    3    3    0    0  0.64839892846E-01  0.53742391570E-02  0.11225019932E+00  0.13752211905E+00  0.45597498069E-01 0.  0.
         14    1    1    2    0    0  0.48681622574E-02 -0.63215820342E-02  0.12551011813E-01  0.14872434256E-01  0.00000000000E+00 0.  1.
     999901    1    3    3    0    0 -0.69708055103E-01  0.94734287713E-03 -0.12480121114E+00  0.89153544669E+00  0.88000000000E+00 0. -1.
        -11    1    4    4    0    0  0.54624344428E-01  0.29665699485E-03  0.49426971719E-01  0.73669489369E-01  0.51100000000E-03 0. -1.
         11    1    4    4    0    0  0.10215548418E-01  0.50775821622E-02  0.62823227604E-01  0.63852629685E-01  0.51100000000E-03 0.  1.
</event>
<event>
 8    1  0.2825007E+004  0.1043930E+01  0.7957747E-01            NaN
         13   -1    0    0    0    0  0.00000000000E+00  0.00000000000E+00  0.74505805969E-08  0.10566000000E+00  0.10566000000E+00 0. -1.
     999900   -1    0    0    0    0 -0.00000000000E+00 -0.00000000000E+00 -0.74505805969E-08  0.93827000000E+00  0.93827000000E+00 0. -1.
     999902    2    1    2    0    0  0.72295322846E-02  0.44101784199E-02 -0.13184988301E-01  0.10282596545E+01  0.10281402421E+01 0.  0.
     999903    2    3    3    0    0 -0.18341080330E-01  0.13009367213E+00 -0.69386699984E-02  0.13894013191E+00  0.44670531202E-01 0.  0.
         14    1    1    2    0    0 -0.72295322846E-02 -0.44101784199E-02  0.13184988301E-01  0.15670345473E-01  0.00000000000E+00 0. -1.
     999901    1    3    3    0    0  0.25570612615E-01 -0.12568349371E+00 -0.62463183023E-02  0.88931952262E+00  0.88000000000E+00 0.  1.
        -11    1    4    4    0    0 -0.23017399629E-01  0.55884887729E-01 -0.19541231455E-01  0.63521982101E-01  0.51100000000E-03 0. -1.
         11    1    4    4    0    0  0.46763192993E-02  0.74208784398E-01  0.12602561456E-01  0.75418149807E-01  0.51100000000E-03 0.  1.
</event>
<event>
 8    1  0.2825007E+004  0.1043930E+01  0.7957747E-01            NaN
         13   -1    0    0    0    0  0.00000000000E+00  0.00000000000E+00  0.74505805969E-08  0.10566000000E+00  0.10566000000E+00 0. -1.
     999900   -1    0    0    0    0 -0.00000000000E+00 -0.00000000000E+00 -0.74505805969E-08  0.93827000000E+00  0.93827000000E+00 0. -1.
     999902    2    1    2    0    0  0.10782818731E-01 -0.39204320592E-02  0.87440707208E-02  0.10295044068E+01  0.10294033349E+01 0.  0.
     999903    2    3    3    0    0  0.68195346132E-01 -0.12754807311E-01  0.11438034122E+00  0.14128525243E+00  0.45446339270E-01 0.  0.
         14    1    1    2    0    0 -0.10782818731E-01  0.39204320592E-02 -0.87440707208E-02  0.14425593232E-01  0.00000000000E+00 0.  1.
     999901    1    3    3    0    0 -0.57412527401E-01  0.88343752517E-02 -0.10563627050E+00  0.88821915434E+00  0.88000000000E+00 0. -1.
        -11    1    4    4    0    0  0.74286890276E-01 -0.13277860129E-01  0.97294991558E-01  0.12313171866E+00  0.51100000000E-03 0.  1.
         11    1    4    4    0    0 -0.60915441447E-02  0.52305281792E-03  0.17085349662E-01  0.18153533772E-01  0.51100000000E-03 0. -1.
</event>
<event>
 8    1  0.2825007E+004  0.1043930E+01  0.7957747E-01            NaN
         13   -1    0    0    0    0  0.00000000000E+00  0.00000000000E+00  0.74505805969E-08  0.10566000000E+00  0.10566000000E+00 0. -1.
     999900   -1    0    0    0    0 -0.00000000000E+00 -0.00000000000E+00 -0.74505805969E-08  0.93827000000E+00  0.93827000000E+00 0.  1.
     999902    2    1    2    0    0 -0.53889029606E-02  0.16600351013E-02  0.13202303164E-01  0.10295739281E+01  0.10294738348E+01 0.  0.
     999903    2    3    3    0    0 -0.34211167199E-02  0.49521512740E-01 -0.12067635562E+00  0.13816039415E+00  0.45402945302E-01 0.  0.
         14    1    1    2    0    0  0.53889029606E-02 -0.16600351013E-02 -0.13202303164E-01  0.14356071903E-01  0.00000000000E+00 0.  1.
     999901    1    3    3    0    0 -0.19677862407E-02 -0.47861477639E-01  0.13387865879E+00  0.89141353395E+00  0.88000000000E+00 0. -1.
        -11    1    4    4    0    0 -0.53921757954E-02  0.39925433926E-01 -0.39603267416E-01  0.56495979901E-01  0.51100000000E-03 0.  1.
         11    1    4    4    0    0  0.19710590756E-02  0.95960788137E-02 -0.81073088206E-01  0.81664414250E-01  0.51100000000E-03 0. -1.
</event>
<event>
 8    1  0.2825007E+004  0.1043930E+01  0.7957747E-01            NaN
         13   -1    0    0    0    0  0.00000000000E+00  0.00000000000E+00  0.74505805969E-08  0.10566000000E+00  0.10566000000E+00 0. -1.
     999900   -1    0    0    0    0 -0.00000000000E+00 -0.00000000000E+00 -0.74505805969E-08  0.93827000000E+00  0.93827000000E+00 0. -1.
     999902    2    1    2    0    0 -0.64684692969E-02  0.11728509163E-01 -0.11001390000E-02  0.10304909030E+01  0.10304032666E+01 0.  0.
     999903    2    3    3    0    0 -0.15281569879E-01  0.12479436218E+00  0.47153250576E-01  0.14190216379E+00  0.45887207786E-01 0.  0.
         14    1    1    2    0    0  0.64684692969E-02 -0.11728509163E-01  0.11001390000E-02  0.13439096996E-01  0.00000000000E+00 0.  1.
     999901    1    3    3    0    0  0.88131005817E-02 -0.11306585301E+00 -0.48253389576E-01  0.88858873922E+00  0.88000000000E+00 0. -1.
        -11    1    4    4    0    0  0.40073661951E-02  0.71049450364E-01  0.46095140360E-01  0.84788598683E-01  0.51100000000E-03 0.  1.
         11    1    4    4    0    0 -0.19288936074E-01  0.53744911812E-01  0.10581102166E-02  0.57113565103E-01  0.51100000000E-03 0. -1.
</event>
<event>
 8    1  0.2825007E+004  0.1043930E+01  0.7957747E-01            NaN
         13   -1    0    0    0    0  0.00000000000E+00  0.00000000000E+00  0.74505805969E-08  0.10566000000E+00  0.10566000000E+00 0.  1.
     999900   -1    0    0    0    0 -0.00000000000E+00 -0.00000000000E+00 -0.74505805969E-08  0.93827000000E+00  0.93827000000E+00 0. -1.
     999902    2    1    2    0    0  0.14685037619E-02 -0.19805962802E-02 -0.17003233244E-01  0.10267489289E+01  0.10266051693E+01 0.  0.
     999903    2    3    3    0    0  0.16996709719E-01 -0.93582217639E-01  0.85585213520E-01  0.13593111829E+00  0.45890309935E-01 0.  0.
         14    1    1    2    0    0 -0.14685037619E-02  0.19805962802E-02  0.17003233244E-01  0.17181071145E-01  0.00000000000E+00 0.  1.
     999901    1    3    3    0    0 -0.15528205957E-01  0.91601621359E-01 -0.10258844676E+00  0.89081781057E+00  0.88000000000E+00 0. -1.
        -11    1    4    4    0    0  0.10188194684E-01 -0.50332408362E-01  0.16135281085E-01  0.53830837436E-01  0.51100000000E-03 0.  1.
         11    1    4    4    0    0  0.68085150348E-02 -0.43249809277E-01  0.69449932435E-01  0.82100280851E-01  0.51100000000E-03 0. -1.
</event>
<event>
 7    1  0.2825007E+004  0.1043930E+01  0.7957747E-01            NaN
         13   -1    0    0    0    0  0.00000000000E+00  0.00000000000E+00  0.74505805969E-08  0.10566000000E+00  0.10566000000E+00 0.  1.
     999900   -1    0    0    0    0 -0.00000000000E+00 -0.00000000000E+00 -0.74505805969E-08  0.93827000000E+00  0.93827000000E+00 0. -1.
     999903    2    1    2    0    0 -0.30690853016E-01 -0.78435432770E-02 -0.10444969180E+00  0.11817501481E+00  0.45300622268E-01 0.  0.
         14    1    1    2    0    0 -0.15064560529E-01 -0.39927647114E-02 -0.30464587956E-01  0.34219501360E-01  0.00000000000E+00 0.  1.
     999901    1    1    2    0    0  0.45755413545E-01  0.11836307988E-01  0.13491427975E+00  0.89153548383E+00  0.88000000000E+00 0.  1.
        -11    1    3    3    0    0 -0.16192307659E-01  0.15512377048E-01 -0.73162334955E-01  0.76523284339E-01  0.51100000000E-03 0. -1.
         11    1    3    3    0    0 -0.14498545356E-01 -0.23355920325E-01 -0.31287356842E-01  0.41651730466E-01  0.51100000000E-03 0.  1.
</event>
<event>
 8    1  0.2825007E+004  0.1043930E+01  0.7957747E-01            NaN
         13   -1    0    0    0    0  0.00000000000E+00  0.00000000000E+00  0.74505805969E-08  0.10566000000E+00  0.10566000000E+00 0. -1.
     999900   -1    0    0    0    0 -0.00000000000E+00 -0.00000000000E+00 -0.74505805969E-08  0.93827000000E+00  0.93827000000E+00 0. -1.
     999902    2    1    2    0    0 -0.86551261606E-02 -0.41547682965E-02  0.79137786628E-02  0.10314880869E+01  0.10314130464E+01 0.  0.
     999903    2    3    3    0    0  0.76163140980E-01 -0.90571014630E-01  0.64263348791E-01  0.14141102277E+00  0.43166730562E-01 0.  0.
         14    1    1    2    0    0  0.86551261606E-02  0.41547682965E-02 -0.79137786628E-02  0.12441913083E-01  0.00000000000E+00 0.  1.
     999901    1    3    3    0    0 -0.84818267140E-01  0.86416246333E-01 -0.56349570128E-01  0.89007706415E+00  0.88000000000E+00 0.  1.
        -11    1    4    4    0    0  0.48756493483E-01 -0.35503483802E-01  0.49807776131E-01  0.78222558786E-01  0.51100000000E-03 0.  1.
         11    1    4    4    0    0  0.27406647496E-01 -0.55067530828E-01  0.14455572659E-01  0.63188463982E-01  0.51100000000E-03 0. -1.
</event>
<event>
 8    1  0.2825007E+004  0.1043930E+01  0.7957747E-01            NaN
         13   -1    0    0    0    0  0.00000000000E+00  0.00000000000E+00  0.74505805969E-08  0.10566000000E+00  0.10566000000E+00 0. -1.
     999900   -1    0    0    0    0 -0.00000000000E+00 -0.00000000000E+00 -0.74505805969E-08  0.93827000000E+00  0.93827000000E+00 0. -1.
     999902    2    1    2    0    0  0.44808945898E-02 -0.13024226240E-01  0.81240158865E-03  0.10301325770E+01  0.10300401727E+01 0.  0.
     999903    2    3    3    0    0 -0.24054667741E-01 -0.10085875568E+00 -0.84723186600E-01  0.14117503035E+00  0.44735391013E-01 0.  0.
         14    1    1    2    0    0 -0.44808945898E-02  0.13024226240E-01 -0.81240158865E-03  0.13797423014E-01  0.00000000000E+00 0. -1.
     999901    1    3    3    0    0  0.28535562331E-01  0.87834529437E-01  0.85535588188E-01  0.88895754664E+00  0.88000000000E+00 0.  1.
        -11    1    4    4    0    0 -0.23622362431E-01 -0.25536387229E-01 -0.12927292900E-01  0.37114675026E-01  0.51100000000E-03 0. -1.
         11    1    4    4    0    0 -0.43230530995E-03 -0.75322368448E-01 -0.71795893700E-01  0.10406035532E+00  0.51100000000E-03 0.  1.
</event>
<event>
 8    1  0.2825007E+004  0.1043930E+01  0.7957747E-01            NaN
         13   -1    0    0    0    0  0.00000000000E+00  0.00000000000E+00  0.74505805969E-08  0.10566000000E+00  0.10566000000E+00 0. -1.
     999900   -1    0    0    0    0 -0.00000000000E+00 -0.00000000000E+00 -0.74505805969E-08  0.93827000000E+00  0.93827000000E+00 0. -1.
     999902    2    1    2    0    0 -0.16347863322E-02 -0.10798635756E-01  0.90300887292E-02  0.10297587064E+01  0.10296611908E+01 0.  0.
     999903    2    3    3    0    0  0.81431445221E-01 -0.94361444065E-01  0.48882853120E-01  0.14101184445E+00  0.44267872647E-01 0.  0.
         14    1    1    2    0    0  0.16347863322E-02  0.10798635756E-01 -0.90300887292E-02  0.14171293625E-01  0.00000000000E+00 0.  1.
     999901    1    3    3    0    0 -0.83066231553E-01  0.83562808309E-01 -0.39852764391E-01  0.88874686193E+00  0.88000000000E+00 0. -1.
        -11    1    4    4    0    0  0.18501466919E-01 -0.43308772668E-01  0.35270341811E-01  0.58840565945E-01  0.51100000000E-03 0. -1.
         11    1    4    4    0    0  0.62929978301E-01 -0.51052671396E-01  0.13612511309E-01  0.82171278503E-01  0.51100000000E-03 0.  1.
</event>
<event>
 8    1  0.2825007E+004  0.1043930E+01  0.7957747E-01            NaN
         13   -1    0    0    0    0  0.00000000000E+00  0.00000000000E+00  0.74505805969E-08  0.10566000000E+00  0.10566000000E+00 0. -1.
     999900   -1    0    0    0    0 -0.00000000000E+00 -0.00000000000E+00 -0.74505805969E-08  0.93827000000E+00  0.93827000000E+00 0.  1.
     999902    2    1    2    0    0  0.10029749419E-01  0.61828491270E-02  0.56432189337E-02  0.10308659495E+01  0.10307831665E+01 0.  0.
     999903    2    3    3    0    0  0.72400226945E-01  0.46993664146E-01  0.10349671971E+00  0.14231043250E+00  0.45721886180E-01 0.  0.
         14    1    1    2    0    0 -0.10029749419E-01 -0.61828491270E-02 -0.56432189337E-02  0.13064050546E-01  0.00000000000E+00 0. -1.
     999901    1    3    3    0    0 -0.62370477527E-01 -0.40810815019E-01 -0.97853500781E-01  0.88855551695E+00  0.88000000000E+00 0.  1.
        -11    1    4    4    0    0  0.19590989918E-01  0.33612998463E-01  0.23278113373E-01  0.45340624553E-01  0.51100000000E-03 0.  1.
         11    1    4    4    0    0  0.52809237027E-01  0.13380665683E-01  0.80218606341E-01  0.96969807950E-01  0.51100000000E-03 0. -1.
</event>
<event>
 8    1  0.2825007E+004  0.1043930E+01  0.7957747E-01            NaN
         13   -1    0    0    0    0  0.00000000000E+00  0.00000000000E+00  0.74505805969E-08  0.10566000000E+00  0.10566000000E+00 0.  1.
     999900   -1    0    0    0    0 -0.00000000000E+00 -0.00000000000E+00 -0.74505805969E-08  0.93827000000E+00  0.93827000000E+00 0.  1.
     999902    2    1    2    0    0 -0.47225496748E-02  0.75653228884E-02  0.10589901454E-01  0.10300850515E+01  0.10299920052E+01 0.  0.
     999903    2    3    3    0    0 -0.10258016884E+00 -0.55276512912E-01  0.65164860451E-01  0.14075742004E+00  0.44587087122E-01 0.  0.
         14    1    1    2    0    0  0.47225496748E-02 -0.75653228884E-02 -0.10589901454E-01  0.13844948488E-01  0.00000000000E+00 0. -1.
     999901    1    3    3    0    0  0.97857619169E-01  0.62841835800E-01 -0.54574958997E-01  0.88932763148E+00  0.88000000000E+00 0. -1.
        -11    1    4    4    0    0 -0.64044323736E-01 -0.17330249221E-01  0.53965243840E-01  0.85524976496E-01  0.51100000000E-03 0.  1.
         11    1    4    4    0    0 -0.38535845108E-01 -0.37946263690E-01  0.11199616611E-01  0.55232443540E-01  0.51100000000E-03 0. -1.
</event>
<event>
 8    1  0.2825007E+004  0.1043930E+01  0.7957747E-01            NaN
         13   -1    0    0    0    0  0.00000000000E+00  0.00000000000E+00  0.74505805969E-08  0.10566000000E+00  0.10566000000E+00 0. -1.
     999900   -1    0    0    0    0 -0.00000000000E+00 -0.00000000000E+00 -0.74505805969E-08  0.93827000000E+00  0.93827000000E+00 0. -1.
     999902    2    1    2    0    0  0.19300443397E-02 -0.90523771394E-02  0.99075338962E-02  0.10303716140E+01  0.10302824045E+01 0.  0.
     999903    2    3    3    0    0  0.12466046168E+00 -0.45335858159E-01 -0.12956530121E-01  0.14082003497E+00  0.45462510192E-01 0.  0.
         14    1    1    2    0    0 -0.19300443397E-02  0.90523771394E-02 -0.99075338962E-02  0.13558386000E-01  0.00000000000E+00 0. -1.
     999901    1    3    3    0    0 -0.12273041734E+00  0.36283481020E-01  0.22864064017E-01  0.88955157903E+00  0.88000000000E+00 0.  1.
        -11    1    4    4    0    0  0.55786035321E-01  0.32595236113E-02 -0.34133113533E-02  0.55987659769E-01  0.51100000000E-03 0.  1.
         11    1    4    4    0    0  0.68874426363E-01 -0.48595381771E-01 -0.95432187677E-02  0.84832375198E-01  0.51100000000E-03 0. -1.
</event>
<event>
 8    1  0.2825007E+004  0.1043930E+01  0.7957747E-01            NaN
         13   -1    0    0    0    0  0.00000000000E+00  0.00000000000E+00  0.74505805969E-08  0.10566000000E+00  0.10566000000E+00 0.  1.
     999900   -1    0    0    0    0 -0.00000000000E+00 -0.00000000000E+00 -0.74505805969E-08  0.93827000000E+00  0.93827000000E+00 0.  1.
     999902    2    1    2    0    0 -0.27988668776E-02 -0.64493336581E-02 -0.12561804193E-01  0.10295346367E+01  0.10294339909E+01 0.  0.
     999903    2    3    3    0    0 -0.76294430924E-01  0.83385765232E-01 -0.68845900733E-01  0.14013043023E+00  0.46073348004E-01 0.  0.
         14    1    1    2    0    0  0.27988668776E-02  0.64493336581E-02  0.12561804193E-01  0.14395363317E-01  0.00000000000E+00 0.  1.
     999901    1    3    3    0    0  0.73495564046E-01 -0.89835098890E-01  0.56284096540E-01  0.88940420645E+00  0.88000000000E+00 0.  1.
        -11    1    4    4    0    0 -0.43825212064E-01  0.73237306082E-01 -0.61830148181E-01  0.10539250713E+00  0.51100000000E-03 0. -1.
         11    1    4    4    0    0 -0.32469218860E-01  0.10148459150E-01 -0.70157525526E-02  0.34737923101E-01  0.51100000000E-03 0.  1.
</event>
<event>
 8    1  0.2825007E+004  0.1043930E+01  0.7957747E-01            NaN
         13   -1    0    0    0    0  0.00000000000E+00  0.00000000000E+00  0.74505805969E-08  0.10566000000E+00  0.10566000000E+00 0. -1.
     999900   -1    0    0    0    0 -0.00000000000E+00 -0.00000000000E+00 -0.74505805969E-08  0.93827000000E+00  0.93827000000E+00 0.  1.
     999902    2    1    2    0    0  0.71594473575E-02  0.84635372144E-02  0.79076672355E-02  0.10303130859E+01  0.10302230994E+01 0.  0.
     999903    2    3    3    0    0 -0.10504331479E+00  0.55008835617E-01  0.60525162763E-01  0.14041167255E+00  0.44632639224E-01 0.  0.
         14    1    1    2    0    0 -0.71594473575E-02 -0.84635372144E-02 -0.79076672355E-02  0.13616914105E-01  0.00000000000E+00 0. -1.
     999901    1    3    3    0    0  0.11220276214E+00 -0.46545298402E-01 -0.52617495528E-01  0.88990141334E+00  0.88000000000E+00 0.  1.
        -11    1    4    4    0    0 -0.48940075233E-01  0.22401871845E-01  0.52211828599E-01  0.74988739106E-01  0.51100000000E-03 0.  1.
         11    1    4    4    0    0 -0.56103239552E-01  0.32606963772E-01  0.83133341639E-02  0.65422933445E-01  0.51100000000E-03 0. -1.
</event>
<event>
 8    1  0.2825007E+004  0.1043930E+01  0.7957747E-01            NaN
         13   -1    0    0    0    0  0.00000000000E+00  0.00000000000E+00  0.74505805969E-08  0.10566000000E+00  0.10566000000E+00 0. -1.
     999900   -1    0    0    0    0 -0.00000000000E+00 -0.00000000000E+00 -0.74505805969E-08  0.93827000000E+00  0.93827000000E+00 0.  1.
     999902    2    1    2    0    0  0.49264056339E-02  0.68253248950E-02  0.10894334155E-01  0.10301626092E+01  0.10300706094E+01 0.  0.
     999903    2    3    3    0    0 -0.51289288133E-01 -0.55251838510E-02 -0.12044187665E+00  0.13855622770E+00  0.45060668545E-01 0.  0.
         14    1    1    2    0    0 -0.49264056339E-02 -0.68253248950E-02 -0.10894334155E-01  0.13767390787E-01  0.00000000000E+00 0.  1.
     999901    1    3    3    0    0  0.56215693767E-01  0.12350508746E-01  0.13133621080E+00  0.89160638152E+00  0.88000000000E+00 0. -1.
        -11    1    4    4    0    0 -0.24692916091E-01  0.19284693064E-01 -0.45413133628E-01  0.55174752546E-01  0.51100000000E-03 0.  1.
         11    1    4    4    0    0 -0.26596372042E-01 -0.24809876915E-01 -0.75028743019E-01  0.83381475151E-01  0.51100000000E-03 0. -1.
</event>
<event>
 8    1  0.2825007E+004  0.1043930E+01  0.7957747E-01            NaN
         13   -1    0    0    0    0  0.00000000000E+00  0.00000000000E+00  0.74505805969E-08  0.10566000000E+00  0.10566000000E+00 0.  1.
     999900   -1    0    0    0    0 -0.00000000000E+00 -0.00000000000E+00 -0.74505805969E-08  0.93827000000E+00  0.93827000000E+00 0.  1.
     999902    2    1    2    0    0 -0.40845171024E-02  0.10239114265E-01  0.83369287243E-02  0.10301087439E+01  0.10300160179E+01 0.  0.
     999903    2    3    3    0    0  0.48943105046E-01  0.10855043665E+00 -0.57896442439E-01  0.14057858457E+00  0.47241036876E-01 0.  0.
         14    1    1    2    0    0  0.40845171024E-02 -0.10239114265E-01 -0.83369287243E-02  0.13821256146E-01  0.00000000000E+00 0. -1.
     999901    1    3    3    0    0 -0.53027622149E-01 -0.98311322381E-01  0.66233371163E-01  0.88953015928E+00  0.88000000000E+00 0. -1.
        -11    1    4    4    0    0  0.56549685543E-01  0.86776104522E-01 -0.55152128443E-01  0.11734554804E+00  0.51100000000E-03 0. -1.
         11    1    4    4    0    0 -0.76065804971E-02  0.21774332125E-01 -0.27443139961E-02  0.23233036535E-01  0.51100000000E-03 0.  1.
</event>
<event>
 8    1  0.2825007E+004  0.1043930E+01  0.7957747E-01            NaN
         13   -1    0    0    0    0  0.00000000000E+00  0.00000000000E+00  0.74505805969E-08  0.10566000000E+00  0.10566000000E+00 0.  1.
     999900   -1    0    0    0    0 -0.00000000000E+00 -0.00000000000E+00 -0.74505805969E-08  0.93827000000E+00  0.93827000000E+00 0.  1.
     999902    2    1    2    0    0 -0.79933966219E-02  0.65502797875E-02  0.85318230821E-02  0.10305287851E+01  0.10304416453E+01 0.  0.
     999903    2    3    3    0    0  0.84999928199E-01  0.18122554526E-01 -0.99917328431E-01  0.13893308389E+00  0.42018025927E-01 0.  0.
         14    1    1    2    0    0  0.79933966219E-02 -0.65502797875E-02 -0.85318230821E-02  0.13401214869E-01  0.00000000000E+00 0. -1.
     999901    1    3    3    0    0 -0.92993324821E-01 -0.11572274739E-01  0.10844915151E+00  0.89159570124E+00  0.88000000000E+00 0. -1.
        -11    1    4    4    0    0  0.56489006239E-01  0.31598852248E-01 -0.71932708661E-01  0.96768130010E-01  0.51100000000E-03 0.  1.
         11    1    4    4    0    0  0.28510921960E-01 -0.13476297722E-01 -0.27984619769E-01  0.42164953883E-01  0.51100000000E-03 0. -1.
</event>
<event>
 8    1  0.2825007E+004  0.1043930E+01  0.7957747E-01            NaN
         13   -1    0    0    0    0  0.00000000000E+00  0.00000000000E+00  0.74505805969E-08  0.10566000000E+00  0.10566000000E+00 0. -1.
     999900   -1    0    0    0    0 -0.00000000000E+00 -0.00000000000E+00 -0.74505805969E-08  0.93827000000E+00  0.93827000000E+00 0. -1.
     999902    2    1    2    0    0 -0.78335544051E-02 -0.10839574340E-01  0.12680677512E-02  0.10304961271E+01  0.10304085592E+01 0.  0.
     999903    2    3    3    0    0 -0.96242725090E-01  0.41264285471E-01  0.82664494637E-01  0.14080158847E+00  0.45014056196E-01 0.  0.
         14    1    1    2    0    0  0.78335544051E-02  0.10839574340E-01 -0.12680677512E-02  0.13433872946E-01  0.00000000000E+00 0. -1.
     999901    1    3    3    0    0  0.88409170685E-01 -0.52103859812E-01 -0.81396426886E-01  0.88969453858E+00  0.88000000000E+00 0. -1.
        -11    1    4    4    0    0 -0.75788723000E-01  0.20990850938E-01  0.37240809304E-01  0.87015431709E-01  0.51100000000E-03 0.  1.
         11    1    4    4    0    0 -0.20454002090E-01  0.20273434533E-01  0.45423685334E-01  0.53786156765E-01  0.51100000000E-03 0. -1.
</event>
<event>
 8    1  0.2825007E+004  0.1043930E+01  0.7957747E-01            NaN
         13   -1    0    0    0    0  0.00000000000E+00  0.00000000000E+00  0.74505805969E-08  0.10566000000E+00  0.10566000000E+00 0.  1.
     999900   -1    0    0    0    0 -0.00000000000E+00 -0.00000000000E+00 -0.74505805969E-08  0.93827000000E+00  0.93827000000E+00 0.  1.
     999902    2    1    2    0    0 -0.12652960195E-01 -0.28325148380E-02 -0.72087032554E-02  0.10290947061E+01  0.10289877687E+01 0.  0.
     999903    2    3    3    0    0 -0.43816910442E-01  0.12251396935E+00  0.20603795946E-01  0.13923153236E+00  0.45070044052E-01 0.  0.
         14    1    1    2    0    0  0.12652960195E-01  0.28325148380E-02  0.72087032554E-02  0.14835293884E-01  0.00000000000E+00 0. -1.
     999901    1    3    3    0    0  0.31163950247E-01 -0.12534648418E+00 -0.27812499201E-01  0.88986317375E+00  0.88000000000E+00 0. -1.
        -11    1    4    4    0    0 -0.28401507637E-01  0.76148028790E-01  0.34705069253E-01  0.88373473834E-01  0.51100000000E-03 0.  1.
         11    1    4    4    0    0 -0.15415402805E-01  0.46365940556E-01 -0.14101273308E-01  0.50858058528E-01  0.51100000000E-03 0. -1.
</event>
<event>
 8    1  0.2825007E+004  0.1043930E+01  0.7957747E-01            NaN
         13   -1    0    0    0    0  0.00000000000E+00  0.00000000000E+00  0.74505805969E-08  0.10566000000E+00  0.10566000000E+00 0.  1.
     999900   -1    0    0    0    0 -0.00000000000E+00 -0.00000000000E+00 -0.74505805969E-08  0.93827000000E+00  0.93827000000E+00 0. -1.
     999902    2    1    2    0    0  0.19413739522E-02  0.47092912071E-02  0.11656394283E-01  0.10312092341E+01  0.10311307709E+01 0.  0.
     999903    2    3    3    0    0  0.11833924837E+00 -0.62361625107E-01 -0.15011657624E-02  0.14091709423E+00  0.44296997172E-01 0.  0.
         14    1    1    2    0    0 -0.19413739522E-02 -0.47092912071E-02 -0.11656394283E-01  0.12720765864E-01  0.00000000000E+00 0. -1.
     999901    1    3    3    0    0 -0.11639787442E+00  0.67070916314E-01  0.13157560045E-01  0.89029213990E+00  0.88000000000E+00 0.  1.
        -11    1    4    4    0    0  0.41088154115E-01 -0.40670592426E-01 -0.14561990709E-01  0.59620853661E-01  0.51100000000E-03 0.  1.
         11    1    4    4    0    0  0.77251094253E-01 -0.21691032681E-01  0.13060824946E-01  0.81296240573E-01  0.51100000000E-03 0. -1.
</event>
<event>
 8    1  0.2825007E+004  0.1043930E+01  0.7957747E-01            NaN
         13   -1    0    0    0    0  0.00000000000E+00  0.00000000000E+00  0.74505805969E-08  0.10566000000E+00  0.10566000000E+00 0. -1.
     999900   -1    0    0    0    0 -0.00000000000E+00 -0.00000000000E+00 -0.74505805969E-08  0.93827000000E+00  0.93827000000E+00 0. -1.
     999902    2    1    2    0    0  0.11459238286E-01 -0.26238394960E-02  0.12901175788E-01  0.10264760889E+01  0.10263276875E+01 0.  0.
     999903    2    3    3    0    0  0.40598562991E-02 -0.12956993579E+00 -0.26193975781E-03  0.13723858979E+00  0.45050096818E-01 0.  0.
         14    1    1    2    0    0 -0.11459238286E-01  0.26238394960E-02 -0.12901175788E-01  0.17453911095E-01  0.00000000000E+00 0.  1.
     999901    1    3    3    0    0  0.73993819869E-02  0.12694609629E+00  0.13163115546E-01  0.88923749911E+00  0.88000000000E+00 0.  1.
        -11    1    4    4    0    0 -0.98669967363E-02 -0.11641594266E+00  0.62426347417E-02  0.11700111513E+00  0.51100000000E-03 0.  1.
         11    1    4    4    0    0  0.13926853035E-01 -0.13153993121E-01 -0.65045744995E-02  0.20237474667E-01  0.51100000000E-03 0. -1.
</event>
<event>
 8    1  0.2825007E+004  0.1043930E+01  0.7957747E-01            NaN
         13   -1    0    0    0    0  0.00000000000E+00  0.00000000000E+00  0.74505805969E-08  0.10566000000E+00  0.10566000000E+00 0.  1.
     999900   -1    0    0    0    0 -0.00000000000E+00 -0.00000000000E+00 -0.74505805969E-08  0.93827000000E+00  0.93827000000E+00 0.  1.
     999902    2    1    2    0    0 -0.50136743476E-02  0.12389041307E-01  0.80831375935E-03  0.10305405024E+01  0.10304535159E+01 0.  0.
     999903    2    3    3    0    0 -0.32198893076E-01 -0.33038712544E-01  0.12432572806E+00  0.14033868900E+00  0.45931859645E-01 0.  0.
         14    1    1    2    0    0  0.50136743476E-02 -0.12389041307E-01 -0.80831375935E-03  0.13389497605E-01  0.00000000000E+00 0.  1.
     999901    1    3    3    0    0  0.27185218728E-01  0.45427753851E-01 -0.12351741430E+00  0.89020181340E+00  0.88000000000E+00 0.  1.
        -11    1    4    4    0    0  0.11273098848E-01 -0.85681203348E-02  0.39059082791E-01  0.41549591011E-01  0.51100000000E-03 0.  1.
         11    1    4    4    0    0 -0.43471991924E-01 -0.24470592209E-01  0.85266645270E-01  0.98789097989E-01  0.51100000000E-03 0. -1.
</event>
<event>
 8    1  0.2825007E+004  0.1043930E+01  0.7957747E-01            NaN
         13   -1    0    0    0    0  0.00000000000E+00  0.00000000000E+00  0.74505805969E-08  0.10566000000E+00  0.10566000000E+00 0. -1.
     999900   -1    0    0    0    0 -0.00000000000E+00 -0.00000000000E+00 -0.74505805969E-08  0.93827000000E+00  0.93827000000E+00 0.  1.
     999902    2    1    2    0    0  0.13181306791E-01 -0.29220920475E-02  0.55977661485E-02  0.10293142394E+01  0.10292104659E+01 0.  0.
     999903    2    3    3    0    0 -0.13488253299E-02 -0.13004909764E+00 -0.22968679158E-01  0.13960167795E+00  0.45238049680E-01 0.  0.
         14    1    1    2    0    0 -0.13181306791E-01  0.29220920475E-02 -0.55977661485E-02  0.14615760552E-01  0.00000000000E+00 0.  1.
     999901    1    3    3    0    0  0.14530132121E-01  0.12712700559E+00  0.28566445306E-01  0.88971256150E+00  0.88000000000E+00 0. -1.
        -11    1    4    4    0    0 -0.11513167156E-01 -0.12633017876E+00 -0.21591378097E-01  0.12867911957E+00  0.51100000000E-03 0. -1.
         11    1    4    4    0    0  0.10164341826E-01 -0.37189188706E-02 -0.13773010607E-02  0.10922558379E-01  0.51100000000E-03 0.  1.
</event>
<event>
 8    1  0.2825007E+004  0.1043930E+01  0.7957747E-01            NaN
         13   -1    0    0    0    0  0.00000000000E+00  0.00000000000E+00  0.74505805969E-08  0.10566000000E+00  0.10566000000E+00 0.  1.
     999900   -1    0    0    0    0 -0.00000000000E+00 -0.00000000000E+00 -0.74505805969E-08  0.93827000000E+00  0.93827000000E+00 0. -1.
     999902    2    1    2    0    0  0.89676243936E-02 -0.98243574131E-02 -0.73194134719E-02  0.10287474409E+01  0.10286354005E+01 0.  0.
     999903    2    3    3    0    0 -0.10279497074E+00  0.61784895799E-01 -0.51025651053E-01  0.13772050644E+00  0.44487542850E-01 0.  0.
         14    1    1    2    0    0 -0.89676243936E-02  0.98243574131E-02  0.73194134719E-02  0.15182559054E-01  0.00000000000E+00 0.  1.
     999901    1    3    3    0    0  0.11176259514E+00 -0.71609253212E-01  0.43706237581E-01  0.89102693451E+00  0.88000000000E+00 0.  1.
        -11    1    4    4    0    0 -0.48980742260E-01  0.25943282735E-01 -0.47444833020E-01  0.72961910150E-01  0.51100000000E-03 0.  1.
         11    1    4    4    0    0 -0.53814228483E-01  0.35841613064E-01 -0.35808180329E-02  0.64758596287E-01  0.51100000000E-03 0. -1.
</event>
<event>
 8    1  0.2825007E+004  0.1043930E+01  0.7957747E-01            NaN
         13   -1    0    0    0    0  0.00000000000E+00  0.00000000000E+00  0.74505805969E-08  0.10566000000E+00  0.10566000000E+00 0.  1.
     999900   -1    0    0    0    0 -0.00000000000E+00 -0.00000000000E+00 -0.74505805969E-08  0.93827000000E+00  0.93827000000E+00 0. -1.
     999902    2    1    2    0    0 -0.13927741493E-01  0.49129326522E-02 -0.16309963764E-02  0.10290713648E+01  0.10289640882E+01 0.  0.
     999903    2    3    3    0    0  0.12693301872E+00 -0.22190352450E-01  0.13777463078E-01  0.13732377583E+00  0.45426841580E-01 0.  0.
         14    1    1    2    0    0  0.13927741493E-01 -0.49129326522E-02  0.16309963764E-02  0.14858635184E-01  0.00000000000E+00 0.  1.
     999901    1    3    3    0    0 -0.14086076022E+00  0.27103285102E-01 -0.15408459455E-01  0.89174758898E+00  0.88000000000E+00 0. -1.
        -11    1    4    4    0    0  0.42194676418E-01 -0.29246918024E-01  0.11266928462E-02  0.51354683230E-01  0.51100000000E-03 0.  1.
         11    1    4    4    0    0  0.84738342307E-01  0.70565655738E-02  0.12650770232E-01  0.85969092604E-01  0.51100000000E-03 0. -1.
</event>
<event>
 8    1  0.2825007E+004  0.1043930E+01  0.7957747E-01            NaN
         13   -1    0    0    0    0  0.00000000000E+00  0.00000000000E+00  0.74505805969E-08  0.10566000000E+00  0.10566000000E+00 0.  1.
     999900   -1    0    0    0    0 -0.00000000000E+00 -0.00000000000E+00 -0.74505805969E-08  0.93827000000E+00  0.93827000000E+00 0.  1.
     999902    2    1    2    0    0 -0.80995316054E-02  0.69102067965E-02  0.10137387006E-01  0.10292289801E+01  0.10291239836E+01 0.  0.
     999903    2    3    3    0    0  0.32487822429E-01 -0.42232116571E-01  0.12187767968E+00  0.13987629740E+00  0.43268920650E-01 0.  0.
         14    1    1    2    0    0  0.80995316054E-02 -0.69102067965E-02 -0.10137387006E-01  0.14701019879E-01  0.00000000000E+00 0.  1.
     999901    1    3    3    0    0 -0.40587354035E-01  0.49142323368E-01 -0.11174029267E+00  0.88935268272E+00  0.88000000000E+00 0.  1.
        -11    1    4    4    0    0  0.28916779023E-02 -0.22621671502E-01  0.15116905827E-01  0.27365741090E-01  0.51100000000E-03 0. -1.
         11    1    4    4    0    0  0.29596144527E-01 -0.19610445069E-01  0.10676077385E+00  0.11251055631E+00  0.51100000000E-03 0.  1.
</event>
<event>
 8    1  0.2825007E+004  0.1043930E+01  0.7957747E-01            NaN
         13   -1    0    0    0    0  0.00000000000E+00  0.00000000000E+00  0.74505805969E-08  0.10566000000E+00  0.10566000000E+00 0. -1.
     999900   -1    0    0    0    0 -0.00000000000E+00 -0.00000000000E+00 -0.74505805969E-08  0.93827000000E+00  0.93827000000E+00 0.  1.
     999902    2    1    2    0    0  0.39162583634E-03  0.12265749018E-01 -0.16168257435E-01  0.10236318592E+01  0.10234305881E+01 0.  0.
     999903    2    3    3    0    0 -0.57679904414E-01 -0.10233678045E+00 -0.44232452166E-01  0.13386017987E+00  0.46499999193E-01 0.  0.
         14    1    1    2    0    0 -0.39162583634E-03 -0.12265749018E-01  0.16168257435E-01  0.20298140759E-01  0.00000000000E+00 0. -1.
     999901    1    3    3    0    0  0.58071530250E-01  0.11460252946E+00  0.28064194731E-01  0.88977167937E+00  0.88000000000E+00 0.  1.
        -11    1    4    4    0    0 -0.48444595127E-01 -0.43791921582E-01 -0.34290377911E-01  0.73761116662E-01  0.51100000000E-03 0.  1.
         11    1    4    4    0    0 -0.92353092863E-02 -0.58544858864E-01 -0.99420742546E-02  0.60099063208E-01  0.51100000000E-03 0. -1.
</event>
<event>
 8    1  0.2825007E+004  0.1043930E+01  0.7957747E-01            NaN
         13   -1    0    0    0    0  0.00000000000E+00  0.00000000000E+00  0.74505805969E-08  0.10566000000E+00  0.10566000000E+00 0. -1.
     999900   -1    0    0    0    0 -0.00000000000E+00 -0.00000000000E+00 -0.74505805969E-08  0.93827000000E+00  0.93827000000E+00 0.  1.
     999902    2    1    2    0    0  0.67404650426E-04  0.21527206936E-02  0.12694940685E-01  0.10310536547E+01  0.10309732482E+01 0.  0.
     999903    2    3    3    0    0  0.63396313115E-02  0.91546002657E-01  0.98900845066E-01  0.14231187124E+00  0.45281674139E-01 0.  0.
         14    1    1    2    0    0 -0.67404650426E-04 -0.21527206936E-02 -0.12694940685E-01  0.12876345319E-01  0.00000000000E+00 0.  1.
     999901    1    3    3    0    0 -0.62722266611E-02 -0.89393281964E-01 -0.86205904381E-01  0.88874178344E+00  0.88000000000E+00 0.  1.
        -11    1    4    4    0    0  0.54904004638E-02 -0.36151032362E-02  0.31316562022E-02  0.72994424602E-02  0.51100000000E-03 0. -1.
         11    1    4    4    0    0  0.84923084767E-03  0.95161105893E-01  0.95769188864E-01  0.13501242878E+00  0.51100000000E-03 0.  1.
</event>
<event>
 8    1  0.2825007E+004  0.1043930E+01  0.7957747E-01            NaN
         13   -1    0    0    0    0  0.00000000000E+00  0.00000000000E+00  0.74505805969E-08  0.10566000000E+00  0.10566000000E+00 0.  1.
     999900   -1    0    0    0    0 -0.00000000000E+00 -0.00000000000E+00 -0.74505805969E-08  0.93827000000E+00  0.93827000000E+00 0.  1.
     999902    2    1    2    0    0 -0.18266705616E-01 -0.39830184609E-02 -0.31497765518E-02  0.10249706207E+01  0.10247952553E+01 0.  0.
     999903    2    3    3    0    0  0.12328328743E+00  0.22828271577E-01  0.34308134158E-02  0.13323156138E+00  0.44933056010E-01 0.  0.
         14    1    1    2    0    0  0.18266705616E-01  0.39830184609E-02  0.31497765518E-02  0.18959379274E-01  0.00000000000E+00 0. -1.
     999901    1    3    3    0    0 -0.14154999305E+00 -0.26811290038E-01 -0.65805899677E-02  0.89173905935E+00  0.88000000000E+00 0. -1.
        -11    1    4    4    0    0  0.90917827549E-02  0.16462674599E-01  0.11970818195E-03  0.18813708291E-01  0.51100000000E-03 0. -1.
         11    1    4    4    0    0  0.11419150468E+00  0.63655969782E-02  0.33111052339E-02  0.11441785309E+00  0.51100000000E-03 0.  1.
</event>
<event>
 8    1  0.2825007E+004  0.1043930E+01  0.7957747E-01            NaN
         13   -1    0    0    0    0  0.00000000000E+00  0.00000000000E+00  0.74505805969E-08  0.10566000000E+00  0.10566000000E+00 0. -1.
     999900   -1    0    0    0    0 -0.00000000000E+00 -0.00000000000E+00 -0.74505805969E-08  0.93827000000E+00  0.93827000000E+00 0. -1.
     999902    2    1    2    0    0 -0.46615213980E-02  0.99852827645E-02 -0.90299880867E-02  0.10296830235E+01  0.10295844563E+01 0.  0.
     999903    2    3    3    0    0 -0.25301518890E-01 -0.12277481867E+00 -0.39529370250E-01  0.13896338956E+00  0.45104651305E-01 0.  0.
         14    1    1    2    0    0  0.46615213980E-02 -0.99852827645E-02  0.90299880867E-02  0.14246976468E-01  0.00000000000E+00 0. -1.
     999901    1    3    3    0    0  0.20639997492E-01  0.13276010143E+00  0.30499382163E-01  0.89071963397E+00  0.88000000000E+00 0.  1.
        -11    1    4    4    0    0 -0.82465658766E-02 -0.14026438911E-01  0.90682162106E-02  0.18634390345E-01  0.51100000000E-03 0.  1.
         11    1    4    4    0    0 -0.17054953014E-01 -0.10874837976E+00 -0.48597586460E-01  0.12032899922E+00  0.51100000000E-03 0. -1.
</event>
<event>
 8    1  0.2825007E+004  0.1043930E+01  0.7957747E-01            NaN
         13   -1    0    0    0    0  0.00000000000E+00  0.00000000000E+00  0.74505805969E-08  0.10566000000E+00  0.10566000000E+00 0.  1.
     999900   -1    0    0    0    0 -0.00000000000E+00 -0.00000000000E+00 -0.74505805969E-08  0.93827000000E+00  0.93827000000E+00 0. -1.
     999902    2    1    2    0    0  0.73230366501E-02 -0.33430349234E-02 -0.87976421633E-02  0.10320051832E+01  0.10319362853E+01 0.  0.
     999903    2    3    3    0    0  0.39791321664E-01 -0.11291845045E+00 -0.63778837379E-01  0.14291357203E+00  0.44973583813E-01 0.  0.
         14    1    1    2    0    0 -0.73230366501E-02  0.33430349234E-02  0.87976421633E-02  0.11924816808E-01  0.00000000000E+00 0.  1.
     999901    1    3    3    0    0 -0.32468285014E-01  0.10957541552E+00  0.54981195215E-01  0.88909161117E+00  0.88000000000E+00 0. -1.
        -11    1    4    4    0    0  0.19586674691E-01 -0.10372649566E+00 -0.55084321183E-01  0.11906875026E+00  0.51100000000E-03 0. -1.
         11    1    4    4    0    0  0.20204646972E-01 -0.91919547817E-02 -0.86945161960E-02  0.23844821762E-01  0.51100000000E-03 0.  1.
</event>
<event>
 8    1  0.2825007E+004  0.1043930E+01  0.7957747E-01            NaN
         13   -1    0    0    0    0  0.00000000000E+00  0.00000000000E+00  0.74505805969E-08  0.10566000000E+00  0.10566000000E+00 0.  1.
     999900   -1    0    0    0    0 -0.00000000000E+00 -0.00000000000E+00 -0.74505805969E-08  0.93827000000E+00  0.93827000000E+00 0.  1.
     999902    2    1    2    0    0  0.25455824817E-02 -0.11472245892E-01 -0.14315803928E-01  0.10254088052E+01  0.10252415243E+01 0.  0.
     999903    2    3    3    0    0  0.11543345190E+00  0.59842832396E-02 -0.57637253906E-01  0.13696907761E+00  0.45582691026E-01 0.  0.
         14    1    1    2    0    0 -0.25455824817E-02  0.11472245892E-01  0.14315803928E-01  0.18521194834E-01  0.00000000000E+00 0.  1.
     999901    1    3    3    0    0 -0.11288786941E+00 -0.17456529132E-01  0.43321449979E-01  0.88843972756E+00  0.88000000000E+00 0. -1.
        -11    1    4    4    0    0  0.34984651949E-01 -0.57969960946E-02 -0.40574537447E-01  0.53889565277E-01  0.51100000000E-03 0.  1.
         11    1    4    4    0    0  0.80448799947E-01  0.11781279334E-01 -0.17062716460E-01  0.83079512334E-01  0.51100000000E-03 0. -1.
</event>
<event>
 8    1  0.2825007E+004  0.1043930E+01  0.7957747E-01            NaN
         13   -1    0    0    0    0  0.00000000000E+00  0.00000000000E+00  0.74505805969E-08  0.10566000000E+00  0.10566000000E+00 0. -1.
     999900   -1    0    0    0    0 -0.00000000000E+00 -0.00000000000E+00 -0.74505805969E-08  0.93827000000E+00  0.93827000000E+00 0. -1.
     999902    2    1    2    0    0  0.62944337109E-02 -0.68737597220E-02  0.71483215030E-02  0.10321840659E+01  0.10321172312E+01 0.  0.
     999903    2    3    3    0    0  0.15677873514E-01 -0.12002285457E+00  0.61965889189E-01  0.14319827726E+00  0.44885341155E-01 0.  0.
         14    1    1    2    0    0 -0.62944337109E-02  0.68737597220E-02 -0.71483215030E-02  0.11745934138E-01  0.00000000000E+00 0.  1.
     999901    1    3    3    0    0 -0.93834398035E-02  0.11314909485E+00 -0.54817567686E-01  0.88898578860E+00  0.88000000000E+00 0. -1.
        -11    1    4    4    0    0 -0.12179119744E-01 -0.65577084118E-01  0.42173775114E-01  0.78914975433E-01  0.51100000000E-03 0. -1.
         11    1    4    4    0    0  0.27856993258E-01 -0.54445770451E-01  0.19792114076E-01  0.64283301829E-01  0.51100000000E-03 0.  1.
</event>
<event>
 8    1  0.2825007E+004  0.1043930E+01  0.7957747E-01            NaN
         13   -1    0    0    0    0  0.00000000000E+00  0.00000000000E+00  0.74505805969E-08  0.10566000000E+00  0.10566000000E+00 0. -1.
     999900   -1    0    0    0    0 -0.00000000000E+00 -0.00000000000E+00 -0.74505805969E-08  0.93827000000E+00  0.93827000000E+00 0.  1.
     999902    2    1    2    0    0 -0.44890179104E-02 -0.51589078814E-02  0.10857971844E-01  0.10310979633E+01  0.10310181128E+01 0.  0.
     999903    2    3    3    0    0  0.12041395736E+00 -0.55195507500E-01  0.16922809275E-01  0.14085013448E+00  0.44791893622E-01 0.  0.
         14    1    1    2    0    0  0.44890179104E-02  0.51589078814E-02 -0.10857971844E-01  0.12832036662E-01  0.00000000000E+00 0.  1.
     999901    1    3    3    0    0 -0.12490297527E+00  0.50036599618E-01 -0.60648374311E-02  0.89024782886E+00  0.88000000000E+00 0.  1.
        -11    1    4    4    0    0  0.77156681858E-01 -0.19513942164E-01 -0.69761023248E-02  0.79892894670E-01  0.51100000000E-03 0. -1.
         11    1    4    4    0    0  0.43257275502E-01 -0.35681565336E-01  0.23898911599E-01  0.60957239810E-01  0.51100000000E-03 0.  1.
</event>
<event>
 8    1  0.2825007E+004  0.1043930E+01  0.7957747E-01            NaN
         13   -1    0    0    0    0  0.00000000000E+00  0.00000000000E+00  0.74505805969E-08  0.10566000000E+00  0.10566000000E+00 0.  1.
     999900   -1    0    0    0    0 -0.00000000000E+00 -0.00000000000E+00 -0.74505805969E-08  0.93827000000E+00  0.93827000000E+00 0.  1.
     999902    2    1    2    0    0  0.83064553154E-02  0.10494559498E-01 -0.34385455319E-02  0.10301112962E+01  0.10300186047E+01 0.  0.
     999903    2    3    3    0    0  0.12376241869E+00 -0.39542677581E-01 -0.28122234244E-01  0.14081770630E+00  0.46454350925E-01 0.  0.
         14    1    1    2    0    0 -0.83064553154E-02 -0.10494559498E-01  0.34385455319E-02  0.13818703786E-01  0.00000000000E+00 0. -1.
     999901    1    3    3    0    0 -0.11545596337E+00  0.50037237079E-01  0.24683688712E-01  0.88929358991E+00  0.88000000000E+00 0. -1.
        -11    1    4    4    0    0  0.27812900459E-01  0.38628588589E-02 -0.21368194082E-01  0.35289374460E-01  0.51100000000E-03 0. -1.
         11    1    4    4    0    0  0.95949518226E-01 -0.43405536440E-01 -0.67540401621E-02  0.10552833184E+00  0.51100000000E-03 0.  1.
</event>
<event>
 8    1  0.2825007E+004  0.1043930E+01  0.7957747E-01            NaN
         13   -1    0    0    0    0  0.00000000000E+00  0.00000000000E+00  0.74505805969E-08  0.10566000000E+00  0.10566000000E+00 0. -1.
     999900   -1    0    0    0    0 -0.00000000000E+00 -0.00000000000E+00 -0.74505805969E-08  0.93827000000E+00  0.93827000000E+00 0.  1.
     999902    2    1    2    0    0  0.22415486718E-02  0.46597180058E-02 -0.13049912128E-01  0.10298929875E+01  0.10297973238E+01 0.  0.
     999903    2    3    3    0    0  0.71223794068E-01  0.98976557518E-01  0.43605369909E-01  0.14036275344E+00  0.54139509488E-01 0.  0.
         14    1    1    2    0    0 -0.22415486718E-02 -0.46597180058E-02  0.13049912128E-01  0.14037012463E-01  0.00000000000E+00 0. -1.
     999901    1    3    3    0    0 -0.68982245397E-01 -0.94316839513E-01 -0.56655282038E-01  0.88953023410E+00  0.88000000000E+00 0.  1.
        -11    1    4    4    0    0  0.51374549248E-01  0.59724742863E-01  0.51257887074E-03  0.78783964603E-01  0.51100000000E-03 0.  1.
         11    1    4    4    0    0  0.19849244820E-01  0.39251814655E-01  0.43092791039E-01  0.61578788833E-01  0.51100000000E-03 0. -1.
</event>
<event>
 8    1  0.2825007E+004  0.1043930E+01  0.7957747E-01            NaN
         13   -1    0    0    0    0  0.00000000000E+00  0.00000000000E+00  0.74505805969E-08  0.10566000000E+00  0.10566000000E+00 0.  1.
     999900   -1    0    0    0    0 -0.00000000000E+00 -0.00000000000E+00 -0.74505805969E-08  0.93827000000E+00  0.93827000000E+00 0. -1.
     999902    2    1    2    0    0 -0.51743267704E-02  0.45016311945E-02 -0.12404798362E-01  0.10297554678E+01  0.10296579073E+01 0.  0.
     999903    2    3    3    0    0 -0.15723276266E-01  0.99308574691E-01  0.85645277374E-01  0.13918629349E+00  0.43912371082E-01 0.  0.
         14    1    1    2    0    0  0.51743267704E-02 -0.45016311945E-02  0.12404798362E-01  0.14174532209E-01  0.00000000000E+00 0.  1.
     999901    1    3    3    0    0  0.10548949495E-01 -0.94806943497E-01 -0.98050075736E-01  0.89056917431E+00  0.88000000000E+00 0.  1.
        -11    1    4    4    0    0 -0.10846141530E-01  0.81203809808E-01  0.42838884374E-01  0.92450682252E-01  0.51100000000E-03 0.  1.
         11    1    4    4    0    0 -0.48771347358E-02  0.18104764884E-01  0.42806393001E-01  0.46735611234E-01  0.51100000000E-03 0. -1.
</event>
<event>
 8    1  0.2825007E+004  0.1043930E+01  0.7957747E-01            NaN
         13   -1    0    0    0    0  0.00000000000E+00  0.00000000000E+00  0.74505805969E-08  0.10566000000E+00  0.10566000000E+00 0.  1.
     999900   -1    0    0    0    0 -0.00000000000E+00 -0.00000000000E+00 -0.74505805969E-08  0.93827000000E+00  0.93827000000E+00 0. -1.
     999902    2    1    2    0    0 -0.11047762089E-01  0.13539653003E-02  0.74008806234E-02  0.10305636503E+01  0.10304769663E+01 0.  0.
     999903    2    3    3    0    0  0.88316862696E-01 -0.12031447536E-01 -0.96631994880E-01  0.13878153731E+00  0.44474135152E-01 0.  0.
         14    1    1    2    0    0  0.11047762089E-01 -0.13539653003E-02 -0.74008806234E-02  0.13366349659E-01  0.00000000000E+00 0. -1.
     999901    1    3    3    0    0 -0.99364624785E-01  0.13385412836E-01  0.10403287550E+00  0.89178211303E+00  0.88000000000E+00 0.  1.
        -11    1    4    4    0    0  0.13611946843E-01 -0.19933496321E-01 -0.18712878000E-01  0.30546068429E-01  0.51100000000E-03 0. -1.
         11    1    4    4    0    0  0.74704915853E-01  0.79020487856E-02 -0.77919116880E-01  0.10823546888E+00  0.51100000000E-03 0.  1.
</event>
<event>
 8    1  0.2825007E+004  0.1043930E+01  0.7957747E-01            NaN
         13   -1    0    0    0    0  0.00000000000E+00  0.00000000000E+00  0.74505805969E-08  0.10566000000E+00  0.10566000000E+00 0.  1.
     999900   -1    0    0    0    0 -0.00000000000E+00 -0.00000000000E+00 -0.74505805969E-08  0.93827000000E+00  0.93827000000E+00 0. -1.
     999902    2    1    2    0    0 -0.39230811805E-02 -0.22528032990E-02  0.13274594599E-01  0.10299057157E+01  0.10298102265E+01 0.  0.
     999903    2    3    3    0    0  0.86113967972E-02 -0.13006600586E+00  0.25387234753E-01  0.14050139597E+00  0.45878192481E-01 0.  0.
         14    1    1    2    0    0  0.39230811805E-02  0.22528032990E-02 -0.13274594599E-01  0.14024284310E-01  0.00000000000E+00 0. -1.
     999901    1    3    3    0    0 -0.12534477978E-01  0.12781320256E+00 -0.12112640154E-01  0.88940431972E+00  0.88000000000E+00 0. -1.
        -11    1    4    4    0    0  0.12006776807E-01 -0.10224201404E+00  0.39934354685E-03  0.10294664987E+00  0.51100000000E-03 0. -1.
         11    1    4    4    0    0 -0.33953800101E-02 -0.27823991823E-01  0.24987891206E-01  0.37554746096E-01  0.51100000000E-03 0.  1.
</event>
<event>
 8    1  0.2825007E+004  0.1043930E+01  0.7957747E-01            NaN
         13   -1    0    0    0    0  0.00000000000E+00  0.00000000000E+00  0.74505805969E-08  0.10566000000E+00  0.10566000000E+00 0.  1.
     999900   -1    0    0    0    0 -0.00000000000E+00 -0.00000000000E+00 -0.74505805969E-08  0.93827000000E+00  0.93827000000E+00 0. -1.
     999902    2    1    2    0    0  0.10327190710E-01 -0.17808693816E-02  0.94594827356E-02  0.10298124869E+01  0.10297157151E+01 0.  0.
     999903    2    3    3    0    0  0.73063049068E-01 -0.10792633770E+00  0.33673840555E-01  0.14088673996E+00  0.41579351242E-01 0.  0.
         14    1    1    2    0    0 -0.10327190710E-01  0.17808693816E-02 -0.94594827356E-02  0.14117513143E-01  0.00000000000E+00 0. -1.
     999901    1    3    3    0    0 -0.62735858358E-01  0.10614546832E+00 -0.24214357819E-01  0.88892574690E+00  0.88000000000E+00 0.  1.
        -11    1    4    4    0    0  0.56466275842E-01 -0.53611792954E-01  0.31659520721E-01  0.84055047585E-01  0.51100000000E-03 0. -1.
         11    1    4    4    0    0  0.16596773226E-01 -0.54314544750E-01  0.20143198343E-02  0.56831692376E-01  0.51100000000E-03 0.  1.
</event>
<event>
 8    1  0.2825007E+004  0.1043930E+01  0.7957747E-01            NaN
         13   -1    0    0    0    0  0.00000000000E+00  0.00000000000E+00  0.74505805969E-08  0.10566000000E+00  0.10566000000E+00 0.  1.
     999900   -1    0    0    0    0 -0.00000000000E+00 -0.00000000000E+00 -0.74505805969E-08  0.93827000000E+00  0.93827000000E+00 0. -1.
     999902    2    1    2    0    0  0.12776358035E-01  0.10203611307E-03  0.19554021047E-02  0.10310044697E+01  0.10309234439E+01 0.  0.
     999903    2    3    3    0    0 -0.75780014666E-01  0.10879963543E+00  0.23335004152E-02  0.13990540551E+00  0.44588182022E-01 0.  0.
         14    1    1    2    0    0 -0.12776358035E-01 -0.10203611307E-03 -0.19554021047E-02  0.12925530295E-01  0.00000000000E+00 0.  1.
     999901    1    3    3    0    0  0.88556372701E-01 -0.10869759931E+00 -0.37809831051E-03  0.89109906419E+00  0.88000000000E+00 0.  1.
        -11    1    4    4    0    0 -0.54218676112E-01  0.85666490988E-01  0.20494684964E-01  0.10343454815E+00  0.51100000000E-03 0.  1.
         11    1    4    4    0    0 -0.21561338555E-01  0.23133144439E-01 -0.18161184549E-01  0.36470857368E-01  0.51100000000E-03 0. -1.
</event>
<event>
 8    1  0.2825007E+004  0.1043930E+01  0.7957747E-01            NaN
         13   -1    0    0    0    0  0.00000000000E+00  0.00000000000E+00  0.74505805969E-08  0.10566000000E+00  0.10566000000E+00 0.  1.
     999900   -1    0    0    0    0 -0.00000000000E+00 -0.00000000000E+00 -0.74505805969E-08  0.93827000000E+00  0.93827000000E+00 0.  1.
     999902    2    1    2    0    0  0.10950274087E-02  0.13828664081E-01 -0.86370831474E-03  0.10300311861E+01  0.10299374094E+01 0.  0.
     999903    2    3    3    0    0  0.34045421007E-02 -0.10940085537E+00  0.71971352563E-01  0.13846189862E+00  0.44851797258E-01 0.  0.
         14    1    1    2    0    0 -0.10950274087E-02 -0.13828664081E-01  0.86370831474E-03  0.13898813883E-01  0.00000000000E+00 0. -1.
     999901    1    3    3    0    0 -0.23095146920E-02  0.12322951945E+00 -0.72835060878E-01  0.89156928750E+00  0.88000000000E+00 0.  1.
        -11    1    4    4    0    0 -0.32221174192E-02 -0.58414420728E-01  0.63513578339E-01  0.86353125851E-01  0.51100000000E-03 0.  1.
         11    1    4    4    0    0  0.66266595198E-02 -0.50986434637E-01  0.84577742237E-02  0.52108772766E-01  0.51100000000E-03 0. -1.
</event>
<event>
 8    1  0.2825007E+004  0.1043930E+01  0.7957747E-01            NaN
         13   -1    0    0    0    0  0.00000000000E+00  0.00000000000E+00  0.74505805969E-08  0.10566000000E+00  0.10566000000E+00 0. -1.
     999900   -1    0    0    0    0 -0.00000000000E+00 -0.00000000000E+00 -0.74505805969E-08  0.93827000000E+00  0.93827000000E+00 0. -1.
     999902    2    1    2    0    0 -0.16700401595E-02 -0.60470215784E-02  0.14283788920E-01  0.10283292907E+01  0.10282109453E+01 0.  0.
     999903    2    3    3    0    0 -0.12283623777E+00 -0.17693366554E-01  0.45602338432E-01  0.13939862057E+00  0.44165661067E-01 0.  0.
         14    1    1    2    0    0  0.16700401595E-02  0.60470215784E-02 -0.14283788920E-01  0.15600709279E-01  0.00000000000E+00 0.  1.
     999901    1    3    3    0    0  0.12116619761E+00  0.11646344976E-01 -0.31318549512E-01  0.88893067015E+00  0.88000000000E+00 0. -1.
        -11    1    4    4    0    0 -0.13234443050E-01  0.92946098240E-02  0.15887172809E-01  0.22676058641E-01  0.51100000000E-03 0.  1.
         11    1    4    4    0    0 -0.10960179472E+00 -0.26987976378E-01  0.29715165623E-01  0.11672256193E+00  0.51100000000E-03 0. -1.
</event>
<event>
 8    1  0.2825007E+004  0.1043930E+01  0.7957747E-01            NaN
         13   -1    0    0    0    0  0.00000000000E+00  0.00000000000E+00  0.74505805969E-08  0.10566000000E+00  0.10566000000E+00 0. -1.
     999900   -1    0    0    0    0 -0.00000000000E+00 -0.00000000000E+00 -0.74505805969E-08  0.93827000000E+00  0.93827000000E+00 0.  1.
     999902    2    1    2    0    0  0.18546188874E-02  0.11111716309E-01 -0.72304746395E-02  0.10305438275E+01  0.10304568845E+01 0.  0.
     999903    2    3    3    0    0  0.92370338827E-02 -0.10057880272E+00  0.83990058764E-01  0.13877566379E+00  0.44754179000E-01 0.  0.
         14    1    1    2    0    0 -0.18546188874E-02 -0.11111716309E-01  0.72304746395E-02  0.13386172495E-01  0.00000000000E+00 0. -1.
     999901    1    3    3    0    0 -0.73824149953E-02  0.11169051903E+00 -0.91220533403E-01  0.89176816371E+00  0.88000000000E+00 0.  1.
        -11    1    4    4    0    0  0.13102807564E-02 -0.22493844533E-01  0.46754452734E-01  0.51903081306E-01  0.51100000000E-03 0. -1.
         11    1    4    4    0    0  0.79267531264E-02 -0.78084958191E-01  0.37235606029E-01  0.86872582489E-01  0.51100000000E-03 0.  1.
</event>
<event>
 8    1  0.2825007E+004  0.1043930E+01  0.7957747E-01            NaN
         13   -1    0    0    0    0  0.00000000000E+00  0.00000000000E+00  0.74505805969E-08  0.10566000000E+00  0.10566000000E+00 0. -1.
     999900   -1    0    0    0    0 -0.00000000000E+00 -0.00000000000E+00 -0.74505805969E-08  0.93827000000E+00  0.93827000000E+00 0.  1.
     999902    2    1    2    0    0 -0.17063778701E-02 -0.13680350816E-01  0.34704643775E-02  0.10297135361E+01  0.10296153935E+01 0.  0.
     999903    2    3    3    0    0  0.24958422738E-01  0.11086060596E+00 -0.64107525771E-01  0.13798025405E+00  0.44897425619E-01 0.  0.
         14    1    1    2    0    0  0.17063778701E-02  0.13680350816E-01 -0.34704643775E-02  0.14216463937E-01  0.00000000000E+00 0.  1.
     999901    1    3    3    0    0 -0.26664800608E-01 -0.12454095677E+00  0.67577990148E-01  0.89173328202E+00  0.88000000000E+00 0. -1.
        -11    1    4    4    0    0  0.39081811682E-02  0.45912124291E-01 -0.50493468427E-01  0.68359699470E-01  0.51100000000E-03 0. -1.
         11    1    4    4    0    0  0.21050241570E-01  0.64948481667E-01 -0.13614057344E-01  0.69620554575E-01  0.51100000000E-03 0.  1.
</event>
<event>
 8    1  0.2825007E+004  0.1043930E+01  0.7957747E-01            NaN
         13   -1    0    0    0    0  0.00000000000E+00  0.00000000000E+00  0.74505805969E-08  0.10566000000E+00  0.10566000000E+00 0. -1.
     999900   -1    0    0    0    0 -0.00000000000E+00 -0.00000000000E+00 -0.74505805969E-08  0.93827000000E+00  0.93827000000E+00 0.  1.
     999902    2    1    2    0    0  0.69885336271E-02  0.23311103653E-03 -0.12059507040E-01  0.10299899264E+01  0.10298955883E+01 0.  0.
     999903    2    3    3    0    0  0.25925246555E-02  0.12939828451E+00 -0.25972677425E-01  0.14044142108E+00  0.47943462158E-01 0.  0.
         14    1    1    2    0    0 -0.69885336271E-02 -0.23311103653E-03  0.12059507040E-01  0.13940073639E-01  0.00000000000E+00 0. -1.
     999901    1    3    3    0    0  0.43960089716E-02 -0.12916517348E+00  0.13913170385E-01  0.88954850528E+00  0.88000000000E+00 0.  1.
        -11    1    4    4    0    0  0.15333443958E-01  0.12108029444E+00 -0.18366031451E-01  0.12342254428E+00  0.51100000000E-03 0. -1.
         11    1    4    4    0    0 -0.12740919302E-01  0.83179900767E-02 -0.76066459744E-02  0.17018876801E-01  0.51100000000E-03 0.  1.
</event>
<event>
 8    1  0.2825007E+004  0.1043930E+01  0.7957747E-01            NaN
         13   -1    0    0    0    0  0.00000000000E+00  0.00000000000E+00  0.74505805969E-08  0.10566000000E+00  0.10566000000E+00 0. -1.
     999900   -1    0    0    0    0 -0.00000000000E+00 -0.00000000000E+00 -0.74505805969E-08  0.93827000000E+00  0.93827000000E+00 0. -1.
     999902    2    1    2    0    0  0.86846556347E-02 -0.83718545691E-02  0.59213874849E-02  0.10304922166E+01  0.10304045975E+01 0.  0.
     999903    2    3    3    0    0  0.85756686390E-02 -0.11527275349E+00 -0.66872418527E-01  0.14103915307E+00  0.45373698877E-01 0.  0.
         14    1    1    2    0    0 -0.86846556347E-02  0.83718545691E-02 -0.59213874849E-02  0.13437783380E-01  0.00000000000E+00 0. -1.
     999901    1    3    3    0    0  0.10898699567E-03  0.10690089892E+00  0.72793806012E-01  0.88945306355E+00  0.88000000000E+00 0. -1.
        -11    1    4    4    0    0 -0.11098862106E-01 -0.51286565653E-02 -0.78320224092E-02  0.14528921303E-01  0.51100000000E-03 0. -1.
         11    1    4    4    0    0  0.19674530745E-01 -0.11014409692E+00 -0.59040396118E-01  0.12651023177E+00  0.51100000000E-03 0.  1.
</event>
<event>
 8    1  0.2825007E+004  0.1043930E+01  0.7957747E-01            NaN
         13   -1    0    0    0    0  0.00000000000E+00  0.00000000000E+00  0.74505805969E-08  0.10566000000E+00  0.10566000000E+00 0. -1.
     999900   -1    0    0    0    0 -0.00000000000E+00 -0.00000000000E+00 -0.74505805969E-08  0.93827000000E+00  0.93827000000E+00 0.  1.
     999902    2    1    2    0    0 -0.73832020981E-02  0.11796371974E-01  0.11010446543E-02  0.10299701159E+01  0.10298755077E+01 0.  0.
     999903    2    3    3    0    0  0.74963944155E-01  0.10832604372E+00  0.20986296572E-01  0.14064764723E+00  0.44578148878E-01 0.  0.
         14    1    1    2    0    0  0.73832020981E-02 -0.11796371974E-01 -0.11010446543E-02  0.13959884108E-01  0.00000000000E+00 0.  1.
     999901    1    3    3    0    0 -0.82347146253E-01 -0.96529671741E-01 -0.19885251918E-01  0.88932246866E+00  0.88000000000E+00 0. -1.
        -11    1    4    4    0    0  0.16234612411E-01  0.15995343255E-01  0.21330631509E-01  0.31219715046E-01  0.51100000000E-03 0. -1.
         11    1    4    4    0    0  0.58729331744E-01  0.92330700461E-01 -0.34433493689E-03  0.10942793218E+00  0.51100000000E-03 0.  1.
</event>
<event>
 8    1  0.2825007E+004  0.1043930E+01  0.7957747E-01            NaN
         13   -1    0    0    0    0  0.00000000000E+00  0.00000000000E+00  0.74505805969E-08  0.10566000000E+00  0.10566000000E+00 0.  1.
     999900   -1    0    0    0    0 -0.00000000000E+00 -0.00000000000E+00 -0.74505805969E-08  0.93827000000E+00  0.93827000000E+00 0.  1.
     999902    2    1    2    0    0  0.12524588116E-01  0.33498124069E-02 -0.56439079025E-02  0.10297899771E+01  0.10296928944E+01 0.  0.
     999903    2    3    3    0    0  0.85935398311E-01  0.10091525034E+00 -0.12291925035E-01  0.14133493725E+00  0.47494132633E-01 0.  0.
         14    1    1    2    0    0 -0.12524588116E-01 -0.33498124069E-02  0.56439079025E-02  0.14140022880E-01  0.00000000000E+00 0.  1.
     999901    1    3    3    0    0 -0.73410810195E-01 -0.97565437928E-01  0.66480171322E-02  0.88845503987E+00  0.88000000000E+00 0. -1.
        -11    1    4    4    0    0  0.39592101353E-01  0.61877385568E-01 -0.28195030717E-01  0.78686505911E-01  0.51100000000E-03 0.  1.
         11    1    4    4    0    0  0.46343296958E-01  0.39037864767E-01  0.15903105682E-01  0.62648431343E-01  0.51100000000E-03 0. -1.
</event>
<event>
 8    1  0.2825007E+004  0.1043930E+01  0.7957747E-01            NaN
         13   -1    0    0    0    0  0.00000000000E+00  0.00000000000E+00  0.74505805969E-08  0.10566000000E+00  0.10566000000E+00 0.  1.
     999900   -1    0    0    0    0 -0.00000000000E+00 -0.00000000000E+00 -0.74505805969E-08  0.93827000000E+00  0.93827000000E+00 0.  1.
     999902    2    1    2    0    0 -0.11804567371E-01  0.18617196465E-01 -0.99504930842E-02  0.10197440510E+01  0.10194571935E+01 0.  0.
     999903    2    3    3    0    0 -0.11708666034E-01  0.86715081409E-01  0.87392915601E-01  0.13176146655E+00  0.45463877583E-01 0.  0.
         14    1    1    2    0    0  0.11804567371E-01 -0.18617196465E-01  0.99504930842E-02  0.24185948971E-01  0.00000000000E+00 0.  1.
     999901    1    3    3    0    0 -0.95901336469E-04 -0.68097884944E-01 -0.97343408685E-01  0.88798258448E+00  0.88000000000E+00 0.  1.
        -11    1    4    4    0    0  0.72545276103E-02  0.73427042529E-01  0.76084536441E-01  0.10598715277E+00  0.51100000000E-03 0. -1.
         11    1    4    4    0    0 -0.18963193645E-01  0.13288038880E-01  0.11308379161E-01  0.25774313778E-01  0.51100000000E-03 0.  1.
</event>
<event>
 8    1  0.2825007E+004  0.1043930E+01  0.7957747E-01            NaN
         13   -1    0    0    0    0  0.00000000000E+00  0.00000000000E+00  0.74505805969E-08  0.10566000000E+00  0.10566000000E+00 0.  1.
     999900   -1    0    0    0    0 -0.00000000000E+00 -0.00000000000E+00 -0.74505805969E-08  0.93827000000E+00  0.93827000000E+00 0.  1.
     999902    2    1    2    0    0  0.11969326727E-01 -0.70844731929E-02  0.79234499829E-03  0.10299986557E+01  0.10299044366E+01 0.  0.
     999903    2    3    3    0    0 -0.10002054651E+00 -0.72107717562E-01 -0.45999081739E-01  0.13929152561E+00  0.45635303548E-01 0.  0.
         14    1    1    2    0    0 -0.11969326727E-01  0.70844731929E-02 -0.79234499829E-03  0.13931344275E-01  0.00000000000E+00 0.  1.
     999901    1    3    3    0    0  0.11198987324E+00  0.65023244369E-01  0.46791426738E-01  0.89070713011E+00  0.88000000000E+00 0. -1.
        -11    1    4    4    0    0 -0.76834343671E-01 -0.37773494332E-01 -0.13594488857E-01  0.86691547971E-01  0.51100000000E-03 0. -1.
         11    1    4    4    0    0 -0.23186202842E-01 -0.34334223230E-01 -0.32404592882E-01  0.52599977641E-01  0.51100000000E-03 0.  1.
</event>
<event>
 8    1  0.2825007E+004  0.1043930E+01  0.7957747E-01            NaN
         13   -1    0    0    0    0  0.00000000000E+00  0.00000000000E+00  0.74505805969E-08  0.10566000000E+00  0.10566000000E+00 0.  1.
     999900   -1    0    0    0    0 -0.00000000000E+00 -0.00000000000E+00 -0.74505805969E-08  0.93827000000E+00  0.93827000000E+00 0. -1.
     999902    2    1    2    0    0 -0.12467277884E-01  0.15316325878E-02  0.38961434744E-02  0.10307786179E+01  0.10306947173E+01 0.  0.
     999903    2    3    3    0    0  0.13789345834E-01 -0.21219820884E-01 -0.12997146544E+00  0.13997697018E+00  0.45393209811E-01 0.  0.
         14    1    1    2    0    0  0.12467277884E-01 -0.15316325878E-02 -0.38961434744E-02  0.13151382064E-01  0.00000000000E+00 0.  1.
     999901    1    3    3    0    0 -0.26256623718E-01  0.22751453471E-01  0.13386760891E+00  0.89080164775E+00  0.88000000000E+00 0.  1.
        -11    1    4    4    0    0  0.12709689590E-01 -0.35452708492E-01 -0.96046793157E-01  0.10316820414E+00  0.51100000000E-03 0.  1.
         11    1    4    4    0    0  0.10796562437E-02  0.14232887608E-01 -0.33924672279E-01  0.36808766042E-01  0.51100000000E-03 0. -1.
</event>
<event>
 8    1  0.2825007E+004  0.1043930E+01  0.7957747E-01            NaN
         13   -1    0    0    0    0  0.00000000000E+00  0.00000000000E+00  0.74505805969E-08  0.10566000000E+00  0.10566000000E+00 0.  1.
     999900   -1    0    0    0    0 -0.00000000000E+00 -0.00000000000E+00 -0.74505805969E-08  0.93827000000E+00  0.93827000000E+00 0.  1.
     999902    2    1    2    0    0 -0.22877646007E-02  0.10864718304E-01  0.50174577152E-02  0.10317459591E+01  0.10316740150E+01 0.  0.
     999903    2    3    3    0    0  0.18616396451E-01 -0.99322571300E-02 -0.13167318478E+00  0.14070509030E+00  0.44887357882E-01 0.  0.
         14    1    1    2    0    0  0.22877646007E-02 -0.10864718304E-01 -0.50174577152E-02  0.12184040899E-01  0.00000000000E+00 0. -1.
     999901    1    3    3    0    0 -0.20904161052E-01  0.20796975434E-01  0.13669064249E+00  0.89104086881E+00  0.88000000000E+00 0. -1.
        -11    1    4    4    0    0 -0.10664358003E-01  0.26307271482E-02 -0.74012309528E-01  0.74824677344E-01  0.51100000000E-03 0. -1.
         11    1    4    4    0    0  0.29280754454E-01 -0.12562984278E-01 -0.57660875247E-01  0.65880412952E-01  0.51100000000E-03 0.  1.
</event>
<event>
 8    1  0.2825007E+004  0.1043930E+01  0.7957747E-01            NaN
         13   -1    0    0    0    0  0.00000000000E+00  0.00000000000E+00  0.74505805969E-08  0.10566000000E+00  0.10566000000E+00 0. -1.
     999900   -1    0    0    0    0 -0.00000000000E+00 -0.00000000000E+00 -0.74505805969E-08  0.93827000000E+00  0.93827000000E+00 0.  1.
     999902    2    1    2    0    0  0.47499161730E-02 -0.10353243103E-01  0.35968491241E-02  0.10319847637E+01  0.10319156283E+01 0.  0.
     999903    2    3    3    0    0  0.64740778288E-04 -0.21940863854E-01  0.13348574078E+00  0.14236273835E+00  0.44354262273E-01 0.  0.
         14    1    1    2    0    0 -0.47499161730E-02  0.10353243103E-01 -0.35968491241E-02  0.11945236290E-01  0.00000000000E+00 0.  1.
     999901    1    3    3    0    0  0.46851753947E-02  0.11587620751E-01 -0.12988889166E+00  0.88962202536E+00  0.88000000000E+00 0.  1.
        -11    1    4    4    0    0  0.21027533167E-01 -0.13754392791E-01  0.50931797254E-01  0.56794802267E-01  0.51100000000E-03 0. -1.
         11    1    4    4    0    0 -0.20962792388E-01 -0.81864710636E-02  0.82553943527E-01  0.85567936086E-01  0.51100000000E-03 0.  1.
</event>
<event>
 8    1  0.2825007E+004  0.1043930E+01  0.7957747E-01            NaN
         13   -1    0    0    0    0  0.00000000000E+00  0.00000000000E+00  0.74505805969E-08  0.10566000000E+00  0.10566000000E+00 0. -1.
     999900   -1    0    0    0    0 -0.00000000000E+00 -0.00000000000E+00 -0.74505805969E-08  0.93827000000E+00  0.93827000000E+00 0. -1.
     999902    2    1    2    0    0  0.73939992001E-02 -0.37698445963E-02 -0.11206233262E-01  0.10299850147E+01  0.10298906096E+01 0.  0.
     999903    2    3    3    0    0 -0.37519318800E-01 -0.10372418083E+00 -0.74788214113E-01  0.14091204590E+00  0.45787801191E-01 0.  0.
         14    1    1    2    0    0 -0.73939992001E-02  0.37698445963E-02  0.11206233262E-01  0.13944985349E-01  0.00000000000E+00 0. -1.
     999901    1    3    3    0    0  0.44913318000E-01  0.99954336238E-01  0.63581980851E-01  0.88907296875E+00  0.88000000000E+00 0. -1.
        -11    1    4    4    0    0 -0.14543666668E-01 -0.30086507184E-01 -0.49511759322E-01  0.59736015827E-01  0.51100000000E-03 0.  1.
         11    1    4    4    0    0 -0.22975652132E-01 -0.73637673650E-01 -0.25276454792E-01  0.81176030078E-01  0.51100000000E-03 0. -1.
</event>
<event>
 8    1  0.2825007E+004  0.1043930E+01  0.7957747E-01            NaN
         13   -1    0    0    0    0  0.00000000000E+00  0.00000000000E+00  0.74505805969E-08  0.10566000000E+00  0.10566000000E+00 0.  1.
     999900   -1    0    0    0    0 -0.00000000000E+00 -0.00000000000E+00 -0.74505805969E-08  0.93827000000E+00  0.93827000000E+00 0.  1.
     999902    2    1    2    0    0  0.40205858930E-02 -0.11395955678E-01  0.65511054785E-02  0.10301840952E+01  0.10300923842E+01 0.  0.
     999903    2    3    3    0    0 -0.85029873352E-01 -0.10327063698E+00 -0.55722450444E-03  0.14090266068E+00  0.44253197214E-01 0.  0.
         14    1    1    2    0    0 -0.40205858930E-02  0.11395955678E-01 -0.65511054785E-02  0.13745904834E-01  0.00000000000E+00 0. -1.
     999901    1    3    3    0    0  0.89050459245E-01  0.91874681306E-01  0.71083299830E-02  0.88928143448E+00  0.88000000000E+00 0.  1.
        -11    1    4    4    0    0 -0.36552181862E-01 -0.69610106532E-01  0.14595882928E-01  0.79968305282E-01  0.51100000000E-03 0. -1.
         11    1    4    4    0    0 -0.48477691490E-01 -0.33660530452E-01 -0.15153107432E-01  0.60934355403E-01  0.51100000000E-03 0.  1.
</event>
<event>
 8    1  0.2825007E+004  0.1043930E+01  0.7957747E-01            NaN
         13   -1    0    0    0    0  0.00000000000E+00  0.00000000000E+00  0.74505805969E-08  0.10566000000E+00  0.10566000000E+00 0.  1.
     999900   -1    0    0    0    0 -0.00000000000E+00 -0.00000000000E+00 -0.74505805969E-08  0.93827000000E+00  0.93827000000E+00 0. -1.
     999902    2    1    2    0    0  0.19358115299E-02  0.24301000177E-01  0.64973919550E-02  0.10187010072E+01  0.10183885506E+01 0.  0.
     999903    2    3    3    0    0 -0.55336318414E-01  0.11312010320E-01 -0.10724382799E+00  0.12943958565E+00  0.45423539931E-01 0.  0.
         14    1    1    2    0    0 -0.19358115299E-02 -0.24301000177E-01 -0.64973919550E-02  0.25228992807E-01  0.00000000000E+00 0. -1.
     999901    1    3    3    0    0  0.57272129943E-01  0.12988989857E-01  0.11374121994E+00  0.88926142154E+00  0.88000000000E+00 0.  1.
        -11    1    4    4    0    0  0.23398449863E-03  0.67174168283E-02 -0.46484219679E-01  0.46970440042E-01  0.51100000000E-03 0. -1.
         11    1    4    4    0    0 -0.55570302912E-01  0.45945934917E-02 -0.60759608306E-01  0.82469145610E-01  0.51100000000E-03 0.  1.
</event>
<event>
 8    1  0.2825007E+004  0.1043930E+01  0.7957747E-01            NaN
         13   -1    0    0    0    0  0.00000000000E+00  0.00000000000E+00  0.74505805969E-08  0.10566000000E+00  0.10566000000E+00 0. -1.
     999900   -1    0    0    0    0 -0.00000000000E+00 -0.00000000000E+00 -0.74505805969E-08  0.93827000000E+00  0.93827000000E+00 0. -1.
     999902    2    1    2    0    0 -0.11401163112E-01  0.70078167171E-02 -0.21336591338E-02  0.10303783021E+01  0.10302891812E+01 0.  0.
     999903    2    3    3    0    0  0.62978008217E-02 -0.10907029264E+00  0.74436162639E-01  0.13928329120E+00  0.43853185361E-01 0.  0.
         14    1    1    2    0    0  0.11401163112E-01 -0.70078167171E-02  0.21336591338E-02  0.13551697929E-01  0.00000000000E+00 0.  1.
     999901    1    3    3    0    0 -0.17698963934E-01  0.11607810936E+00 -0.76569821773E-01  0.89109501087E+00  0.88000000000E+00 0. -1.
        -11    1    4    4    0    0  0.12813501956E-01 -0.26633498652E-01  0.24783709021E-02  0.29663656655E-01  0.51100000000E-03 0. -1.
         11    1    4    4    0    0 -0.65157011346E-02 -0.82436793990E-01  0.71957791737E-01  0.10961963454E+00  0.51100000000E-03 0.  1.
</event>
<event>
 8    1  0.2825007E+004  0.1043930E+01  0.7957747E-01            NaN
         13   -1    0    0    0    0  0.00000000000E+00  0.00000000000E+00  0.74505805969E-08  0.10566000000E+00  0.10566000000E+00 0.  1.
     999900   -1    0    0    0    0 -0.00000000000E+00 -0.00000000000E+00 -0.74505805969E-08  0.93827000000E+00  0.93827000000E+00 0. -1.
     999902    2    1    2    0    0  0.19279869849E-02  0.34529122579E-02 -0.12787834580E-01  0.10305446180E+01  0.10304576854E+01 0.  0.
     999903    2    3    3    0    0 -0.38605648560E-01  0.51809982504E-01 -0.11779296409E+00  0.14205856915E+00  0.46160419114E-01 0.  0.
         14    1    1    2    0    0 -0.19279869849E-02 -0.34529122579E-02  0.12787834580E-01  0.13385381957E-01  0.00000000000E+00 0.  1.
     999901    1    3    3    0    0  0.40533635545E-01 -0.48357070246E-01  0.10500512951E+00  0.88848604889E+00  0.88000000000E+00 0.  1.
        -11    1    4    4    0    0 -0.48538734310E-01  0.35080996543E-01 -0.91102904118E-01  0.10902607627E+00  0.51100000000E-03 0.  1.
         11    1    4    4    0    0  0.99330857500E-02  0.16728985961E-01 -0.26690059970E-01  0.33032492882E-01  0.51100000000E-03 0. -1.
</event>
<event>
 8    1  0.2825007E+004  0.1043930E+01  0.7957747E-01            NaN
         13   -1    0    0    0    0  0.00000000000E+00  0.00000000000E+00  0.74505805969E-08  0.10566000000E+00  0.10566000000E+00 0. -1.
     999900   -1    0    0    0    0 -0.00000000000E+00 -0.00000000000E+00 -0.74505805969E-08  0.93827000000E+00  0.93827000000E+00 0. -1.
     999902    2    1    2    0    0  0.77866207498E-02  0.49831345348E-02 -0.10228901197E-01  0.10301425596E+01  0.10300502899E+01 0.  0.
     999903    2    3    3    0    0  0.11988794873E+00  0.55356949020E-01  0.21188205701E-01  0.14104680351E+00  0.44807908512E-01 0.  0.
         14    1    1    2    0    0 -0.77866207498E-02 -0.49831345348E-02  0.10228901197E-01  0.13787440379E-01  0.00000000000E+00 0.  1.
     999901    1    3    3    0    0 -0.11210132798E+00 -0.50373814485E-01 -0.31417106898E-01  0.88909575611E+00  0.88000000000E+00 0. -1.
        -11    1    4    4    0    0  0.18867249912E-01  0.25333679058E-01 -0.61161981896E-02  0.32178213362E-01  0.51100000000E-03 0. -1.
         11    1    4    4    0    0  0.10102069882E+00  0.30023269962E-01  0.27304403890E-01  0.10886859015E+00  0.51100000000E-03 0.  1.
</event>
<event>
 8    1  0.2825007E+004  0.1043930E+01  0.7957747E-01            NaN
         13   -1    0    0    0    0  0.00000000000E+00  0.00000000000E+00  0.74505805969E-08  0.10566000000E+00  0.10566000000E+00 0. -1.
     999900   -1    0    0    0    0 -0.00000000000E+00 -0.00000000000E+00 -0.74505805969E-08  0.93827000000E+00  0.93827000000E+00 0.  1.
     999902    2    1    2    0    0  0.74356220819E-02  0.75373595364E-02  0.64542738331E-02  0.10315300841E+01  0.10314555523E+01 0.  0.
     999903    2    3    3    0    0  0.68651334370E-01 -0.11363506963E+00  0.15434337927E-01  0.14107471597E+00  0.45143348770E-01 0.  0.
         14    1    1    2    0    0 -0.74356220819E-02 -0.75373595364E-02 -0.64542738331E-02  0.12399915937E-01  0.00000000000E+00 0.  1.
     999901    1    3    3    0    0 -0.61215712288E-01  0.12117242916E+00 -0.89800640941E-02  0.89045536810E+00  0.88000000000E+00 0.  1.
        -11    1    4    4    0    0  0.62625451851E-01 -0.72214767403E-01  0.23524219061E-01  0.98440692064E-01  0.51100000000E-03 0.  1.
         11    1    4    4    0    0  0.60258825188E-02 -0.41420302224E-01 -0.80898811335E-02  0.42634023903E-01  0.51100000000E-03 0. -1.
</event>
<event>
 8    1  0.2825007E+004  0.1043930E+01  0.7957747E-01            NaN
         13   -1    0    0    0    0  0.00000000000E+00  0.00000000000E+00  0.74505805969E-08  0.10566000000E+00  0.10566000000E+00 0. -1.
     999900   -1    0    0    0    0 -0.00000000000E+00 -0.00000000000E+00 -0.74505805969E-08  0.93827000000E+00  0.93827000000E+00 0.  1.
     999902    2    1    2    0    0  0.11844661614E-01 -0.16174997337E-02  0.31679577538E-02  0.10315627743E+01  0.10314886374E+01 0.  0.
     999903    2    3    3    0    0 -0.46787441467E-01  0.10863734556E+00  0.61871095849E-01  0.14081033239E+00  0.44814949257E-01 0.  0.
         14    1    1    2    0    0 -0.11844661614E-01  0.16174997337E-02 -0.31679577538E-02  0.12367225658E-01  0.00000000000E+00 0.  1.
     999901    1    3    3    0    0  0.58632103081E-01 -0.11025484529E+00 -0.58703138095E-01  0.89075244195E+00  0.88000000000E+00 0.  1.
        -11    1    4    4    0    0 -0.30205540039E-01  0.10478167140E+00  0.49493019895E-01  0.11975555708E+00  0.51100000000E-03 0. -1.
         11    1    4    4    0    0 -0.16581901427E-01  0.38556741545E-02  0.12378075955E-01  0.21054775313E-01  0.51100000000E-03 0.  1.
</event>
<event>
 8    1  0.2825007E+004  0.1043930E+01  0.7957747E-01            NaN
         13   -1    0    0    0    0  0.00000000000E+00  0.00000000000E+00  0.74505805969E-08  0.10566000000E+00  0.10566000000E+00 0.  1.
     999900   -1    0    0    0    0 -0.00000000000E+00 -0.00000000000E+00 -0.74505805969E-08  0.93827000000E+00  0.93827000000E+00 0. -1.
     999902    2    1    2    0    0  0.60985922097E-02  0.38202062316E-02  0.11602898982E-01  0.10302766463E+01  0.10301861744E+01 0.  0.
     999903    2    3    3    0    0  0.76579195266E-01 -0.10125344020E+00 -0.37387855153E-01  0.13987893708E+00  0.45294955864E-01 0.  0.
         14    1    1    2    0    0 -0.60985922097E-02 -0.38202062316E-02 -0.11602898982E-01  0.13653353704E-01  0.00000000000E+00 0. -1.
     999901    1    3    3    0    0 -0.70480603056E-01  0.10507364643E+00  0.48990754135E-01  0.89039770921E+00  0.88000000000E+00 0.  1.
        -11    1    4    4    0    0  0.74509174973E-01 -0.69374599646E-01 -0.20919305417E-01  0.10393426139E+00  0.51100000000E-03 0.  1.
         11    1    4    4    0    0  0.20700202928E-02 -0.31878840553E-01 -0.16468549736E-01  0.35944675689E-01  0.51100000000E-03 0. -1.
</event>
<event>
 8    1  0.2825007E+004  0.1043930E+01  0.7957747E-01            NaN
         13   -1    0    0    0    0  0.00000000000E+00  0.00000000000E+00  0.74505805969E-08  0.10566000000E+00  0.10566000000E+00 0. -1.
     999900   -1    0    0    0    0 -0.00000000000E+00 -0.00000000000E+00 -0.74505805969E-08  0.93827000000E+00  0.93827000000E+00 0. -1.
     999902    2    1    2    0    0  0.13941366977E-01  0.37378518563E-03 -0.90164042687E-02  0.10273228637E+01  0.10271886241E+01 0.  0.
     999903    2    3    3    0    0 -0.45401262247E-01 -0.16210310597E-01 -0.12128284995E+00  0.13805331254E+00  0.45001540306E-01 0.  0.
         14    1    1    2    0    0 -0.13941366977E-01 -0.37378518563E-03  0.90164042687E-02  0.16607136252E-01  0.00000000000E+00 0.  1.
     999901    1    3    3    0    0  0.59342629224E-01  0.16584095783E-01  0.11226644568E+00  0.88926955121E+00  0.88000000000E+00 0.  1.
        -11    1    4    4    0    0 -0.35325931226E-01 -0.26941341615E-01 -0.57903759762E-01  0.72985367167E-01  0.51100000000E-03 0.  1.
         11    1    4    4    0    0 -0.10075331021E-01  0.10731031018E-01 -0.63379090184E-01  0.65067945375E-01  0.51100000000E-03 0. -1.
</event>
<event>
 8    1  0.2825007E+004  0.1043930E+01  0.7957747E-01            NaN
         13   -1    0    0    0    0  0.00000000000E+00  0.00000000000E+00  0.74505805969E-08  0.10566000000E+00  0.10566000000E+00 0.  1.
     999900   -1    0    0    0    0 -0.00000000000E+00 -0.00000000000E+00 -0.74505805969E-08  0.93827000000E+00  0.93827000000E+00 0. -1.
     999902    2    1    2    0    0  0.13614569150E-02 -0.79728820848E-05  0.13680267533E-01  0.10301821511E+01  0.10300904141E+01 0.  0.
     999903    2    3    3    0    0  0.11156956994E+00 -0.33211706336E-01  0.66407731990E-01  0.14112169110E+00  0.44210388568E-01 0.  0.
         14    1    1    2    0    0 -0.13614569150E-02  0.79728820848E-05 -0.13680267533E-01  0.13747848860E-01  0.00000000000E+00 0. -1.
     999901    1    3    3    0    0 -0.11020811303E+00  0.33203733454E-01 -0.52727464457E-01  0.88906046004E+00  0.88000000000E+00 0.  1.
        -11    1    4    4    0    0  0.61457605160E-01 -0.29194352591E-02  0.52622244651E-01  0.80962473328E-01  0.51100000000E-03 0. -1.
         11    1    4    4    0    0  0.50111964781E-01 -0.30292271077E-01  0.13785487339E-01  0.60159217776E-01  0.51100000000E-03 0.  1.
</event>
<event>
 7    1  0.2825007E+004  0.1043930E+01  0.7957747E-01            NaN
         13   -1    0    0    0    0  0.00000000000E+00  0.00000000000E+00  0.74505805969E-08  0.10566000000E+00  0.10566000000E+00 0.  1.
     999900   -1    0    0    0    0 -0.00000000000E+00 -0.00000000000E+00 -0.74505805969E-08  0.93827000000E+00  0.93827000000E+00 0.  1.
     999902    2    1    2    0    0 -0.16473463621E-01 -0.53778860574E-02  0.41376246558E-02  0.10261138107E+01  0.10259591298E+01 0.  0.
         14    1    1    2    0    0  0.16473463621E-01  0.53778860574E-02 -0.41376246558E-02  0.17816189265E-01  0.00000000000E+00 0. -1.
     999901    1    3    3    0    0  0.67734623988E-01 -0.86911973431E-01 -0.60513298316E-01  0.88893392875E+00  0.88000000000E+00 0.  1.
        -11    1    3    3    0    0 -0.56389981222E-01  0.64661479231E-01  0.33415112137E-01  0.92074794155E-01  0.51100000000E-03 0. -1.
         11    1    3    3    0    0 -0.27818106387E-01  0.16872608142E-01  0.31235810835E-01  0.45105087829E-01  0.51100000000E-03 0.  1.
</event>
<event>
 8    1  0.2825007E+004  0.1043930E+01  0.7957747E-01            NaN
         13   -1    0    0    0    0  0.00000000000E+00  0.00000000000E+00  0.74505805969E-08  0.10566000000E+00  0.10566000000E+00 0. -1.
     999900   -1    0    0    0    0 -0.00000000000E+00 -0.00000000000E+00 -0.74505805969E-08  0.93827000000E+00  0.93827000000E+00 0. -1.
     999902    2    1    2    0    0  0.33125794676E-02 -0.11847488110E-01  0.55879820368E-02  0.10304184605E+01  0.10303298705E+01 0.  0.
     999903    2    3    3    0    0 -0.50565758091E-01  0.11735103887E+00 -0.29550336479E-01  0.13866185912E+00  0.45008072309E-01 0.  0.
         14    1    1    2    0    0 -0.33125794676E-02  0.11847488110E-01 -0.55879820368E-02  0.13511539530E-01  0.00000000000E+00 0.  1.
     999901    1    3    3    0    0  0.53878337558E-01 -0.12919852698E+00  0.35138318516E-01  0.89175660135E+00  0.88000000000E+00 0. -1.
        -11    1    4    4    0    0 -0.13708998253E-01  0.78714698922E-01 -0.29757226291E-01  0.85262501119E-01  0.51100000000E-03 0. -1.
         11    1    4    4    0    0 -0.36856759838E-01  0.38636339944E-01  0.20688981154E-03  0.53399357997E-01  0.51100000000E-03 0.  1.
</event>
<event>
 8    1  0.2825007E+004  0.1043930E+01  0.7957747E-01            NaN
         13   -1    0    0    0    0  0.00000000000E+00  0.00000000000E+00  0.74505805969E-08  0.10566000000E+00  0.10566000000E+00 0.  1.
     999900   -1    0    0    0    0 -0.00000000000E+00 -0.00000000000E+00 -0.74505805969E-08  0.93827000000E+00  0.93827000000E+00 0.  1.
     999902    2    1    2    0    0  0.16527057225E-02 -0.94772185650E-02  0.10995042870E-01  0.10293204115E+01  0.10292167262E+01 0.  0.
     999903    2    3    3    0    0  0.71043954655E-01 -0.10453965936E-01  0.11233532148E+00  0.14079019170E+00  0.45234110249E-01 0.  0.
         14    1    1    2    0    0 -0.16527057225E-02  0.94772185650E-02 -0.10995042870E-01  0.14609588483E-01  0.00000000000E+00 0.  1.
     999901    1    3    3    0    0 -0.69391248932E-01  0.97674737083E-03 -0.10134027861E+00  0.88853021982E+00  0.88000000000E+00 0.  1.
        -11    1    4    4    0    0  0.17559173641E-01  0.16465362955E-01  0.42060672042E-01  0.48464358139E-01  0.51100000000E-03 0. -1.
         11    1    4    4    0    0  0.53484781014E-01 -0.26919328891E-01  0.70274649435E-01  0.92325833558E-01  0.51100000000E-03 0.  1.
</event>
<event>
 8    1  0.2825007E+004  0.1043930E+01  0.7957747E-01            NaN
         13   -1    0    0    0    0  0.00000000000E+00  0.00000000000E+00  0.74505805969E-08  0.10566000000E+00  0.10566000000E+00 0. -1.
     999900   -1    0    0    0    0 -0.00000000000E+00 -0.00000000000E+00 -0.74505805969E-08  0.93827000000E+00  0.93827000000E+00 0. -1.
     999902    2    1    2    0    0  0.13651564799E-01  0.34086535627E-02  0.55351730719E-03  0.10298484333E+01  0.10297521571E+01 0.  0.
     999903    2    3    3    0    0  0.21422612355E-01  0.12733580238E+00 -0.30946723140E-01  0.14057311450E+00  0.46149387442E-01 0.  0.
         14    1    1    2    0    0 -0.13651564799E-01 -0.34086535627E-02 -0.55351730719E-03  0.14081566744E-01  0.00000000000E+00 0.  1.
     999901    1    3    3    0    0 -0.77710475562E-02 -0.12392714881E+00  0.31500240447E-01  0.88927531875E+00  0.88000000000E+00 0.  1.
        -11    1    4    4    0    0  0.21860792628E-01  0.10052504322E+00 -0.46015205947E-02  0.10297870499E+00  0.51100000000E-03 0.  1.
         11    1    4    4    0    0 -0.43818027340E-03  0.26810759155E-01 -0.26345202545E-01  0.37594409512E-01  0.51100000000E-03 0. -1.
</event>
<event>
 8    1  0.2825007E+004  0.1043930E+01  0.7957747E-01            NaN
         13   -1    0    0    0    0  0.00000000000E+00  0.00000000000E+00  0.74505805969E-08  0.10566000000E+00  0.10566000000E+00 0.  1.
     999900   -1    0    0    0    0 -0.00000000000E+00 -0.00000000000E+00 -0.74505805969E-08  0.93827000000E+00  0.93827000000E+00 0. -1.
     999902    2    1    2    0    0  0.13851300713E-02  0.93123000129E-02  0.10412542031E-01  0.10298922456E+01  0.10297965717E+01 0.  0.
     999903    2    3    3    0    0  0.62215643792E-01 -0.68714256304E-01  0.95099517163E-01  0.14030786026E+00  0.45276286676E-01 0.  0.
         14    1    1    2    0    0 -0.13851300713E-02 -0.93123000129E-02 -0.10412542031E-01  0.14037754393E-01  0.00000000000E+00 0. -1.
     999901    1    3    3    0    0 -0.60830513721E-01  0.78026556317E-01 -0.84686975133E-01  0.88958438534E+00  0.88000000000E+00 0. -1.
        -11    1    4    4    0    0  0.37718499492E-01 -0.21288350722E-01  0.18871041420E-01  0.47246760796E-01  0.51100000000E-03 0.  1.
         11    1    4    4    0    0  0.24497144300E-01 -0.47425905582E-01  0.76228475743E-01  0.93061099468E-01  0.51100000000E-03 0. -1.
</event>
<event>
 8    1  0.2825007E+004  0.1043930E+01  0.7957747E-01            NaN
         13   -1    0    0    0    0  0.00000000000E+00  0.00000000000E+00  0.74505805969E-08  0.10566000000E+00  0.10566000000E+00 0. -1.
     999900   -1    0    0    0    0 -0.00000000000E+00 -0.00000000000E+00 -0.74505805969E-08  0.93827000000E+00  0.93827000000E+00 0. -1.
     999902    2    1    2    0    0 -0.20312126346E-02  0.13097883377E-01  0.13301910103E-02  0.10306089722E+01  0.10305228788E+01 0.  0.
     999903    2    3    3    0    0 -0.83130258208E-01 -0.99541275900E-01 -0.25218633820E-01  0.13933489791E+00  0.44262047456E-01 0.  0.
         14    1    1    2    0    0  0.20312126346E-02 -0.13097883377E-01 -0.13301910103E-02  0.13321027808E-01  0.00000000000E+00 0.  1.
     999901    1    3    3    0    0  0.81099045574E-01  0.11263915928E+00  0.26548824830E-01  0.89127407429E+00  0.88000000000E+00 0. -1.
        -11    1    4    4    0    0 -0.70406160799E-01 -0.78368651382E-01 -0.19108776085E-02  0.10536880740E+00  0.51100000000E-03 0.  1.
         11    1    4    4    0    0 -0.12724097409E-01 -0.21172624518E-01 -0.23307756211E-01  0.33966090509E-01  0.51100000000E-03 0. -1.
</event>
<event>
 8    1  0.2825007E+004  0.1043930E+01  0.7957747E-01            NaN
         13   -1    0    0    0    0  0.00000000000E+00  0.00000000000E+00  0.74505805969E-08  0.10566000000E+00  0.10566000000E+00 0.  1.
     999900   -1    0    0    0    0 -0.00000000000E+00 -0.00000000000E+00 -0.74505805969E-08  0.93827000000E+00  0.93827000000E+00 0.  1.
     999902    2    1    2    0    0 -0.10895575914E-01  0.93257007769E-03 -0.94142133362E-02  0.10295004929E+01  0.10293993658E+01 0.  0.
     999903    2    3    3    0    0  0.92269407662E-01 -0.65319747226E-01  0.64123753259E-01  0.13796237490E+00  0.46275784022E-01 0.  0.
         14    1    1    2    0    0  0.10895575914E-01 -0.93257007769E-03  0.94142133362E-02  0.14429507066E-01  0.00000000000E+00 0. -1.
     999901    1    3    3    0    0 -0.10316498358E+00  0.66252317303E-01 -0.73537966595E-01  0.89153811804E+00  0.88000000000E+00 0. -1.
        -11    1    4    4    0    0  0.59320136848E-01 -0.14784479005E-01  0.39581048869E-01  0.72831174683E-01  0.51100000000E-03 0.  1.
         11    1    4    4    0    0  0.32949270814E-01 -0.50535268221E-01  0.24542704389E-01  0.65131200212E-01  0.51100000000E-03 0. -1.
</event>
<event>
 8    1  0.2825007E+004  0.1043930E+01  0.7957747E-01            NaN
         13   -1    0    0    0    0  0.00000000000E+00  0.00000000000E+00  0.74505805969E-08  0.10566000000E+00  0.10566000000E+00 0. -1.
     999900   -1    0    0    0    0 -0.00000000000E+00 -0.00000000000E+00 -0.74505805969E-08  0.93827000000E+00  0.93827000000E+00 0.  1.
     999902    2    1    2    0    0 -0.10403903115E-01  0.21404020845E-02  0.11267818093E-01  0.10284449670E+01  0.10283283833E+01 0.  0.
     999903    2    3    3    0    0  0.11057816191E+00 -0.64394716815E-01 -0.25351306906E-01  0.13692685594E+00  0.41618093063E-01 0.  0.
         14    1    1    2    0    0  0.10403903115E-01 -0.21404020845E-02 -0.11267818093E-01  0.15485032957E-01  0.00000000000E+00 0. -1.
     999901    1    3    3    0    0 -0.12098206503E+00  0.66535118899E-01  0.36619124999E-01  0.89151811110E+00  0.88000000000E+00 0.  1.
        -11    1    4    4    0    0  0.60651624983E-01 -0.12221648216E-01 -0.59918178298E-02  0.62162298060E-01  0.51100000000E-03 0. -1.
         11    1    4    4    0    0  0.49926536931E-01 -0.52173068598E-01 -0.19359489076E-01  0.74764557882E-01  0.51100000000E-03 0.  1.
</event>
<event>
 8    1  0.2825007E+004  0.1043930E+01  0.7957747E-01            NaN
         13   -1    0    0    0    0  0.00000000000E+00  0.00000000000E+00  0.74505805969E-08  0.10566000000E+00  0.10566000000E+00 0. -1.
     999900   -1    0    0    0    0 -0.00000000000E+00 -0.00000000000E+00 -0.74505805969E-08  0.93827000000E+00  0.93827000000E+00 0. -1.
     999902    2    1    2    0    0  0.11240463644E-01  0.79453242842E-02  0.81468468888E-03  0.10301408770E+01  0.10300485846E+01 0.  0.
     999903    2    3    3    0    0 -0.30911373144E-01  0.42751195461E-01  0.12276096708E+00  0.14005148726E+00  0.41964107781E-01 0.  0.
         14    1    1    2    0    0 -0.11240463644E-01 -0.79453242842E-02 -0.81468468888E-03  0.13789122962E-01  0.00000000000E+00 0. -1.
     999901    1    3    3    0    0  0.42151836788E-01 -0.34805871176E-01 -0.12194628239E+00  0.89008938978E+00  0.88000000000E+00 0. -1.
        -11    1    4    4    0    0 -0.37350466549E-01  0.17558671220E-01  0.71054933080E-01  0.82173164247E-01  0.51100000000E-03 0. -1.
         11    1    4    4    0    0  0.64390934053E-02  0.25192524241E-01  0.51706033998E-01  0.57878323009E-01  0.51100000000E-03 0.  1.
</event>
<event>
 8    1  0.2825007E+004  0.1043930E+01  0.7957747E-01            NaN
         13   -1    0    0    0    0  0.00000000000E+00  0.00000000000E+00  0.74505805969E-08  0.10566000000E+00  0.10566000000E+00 0.  1.
     999900   -1    0    0    0    0 -0.00000000000E+00 -0.00000000000E+00 -0.74505805969E-08  0.93827000000E+00  0.93827000000E+00 0. -1.
     999902    2    1    2    0    0 -0.12181623418E-01  0.72903720909E-02  0.88958848976E-03  0.10297056251E+01  0.10296073725E+01 0.  0.
     999903    2    3    3    0    0 -0.38774139797E-01 -0.10957548484E+00 -0.62035426621E-01  0.13935493688E+00  0.45400258599E-01 0.  0.
         14    1    1    2    0    0  0.12181623418E-01 -0.72903720909E-02 -0.88958848976E-03  0.14224374925E-01  0.00000000000E+00 0. -1.
     999901    1    3    3    0    0  0.26592516378E-01  0.11686585693E+00  0.62925015111E-01  0.89035068820E+00  0.88000000000E+00 0.  1.
        -11    1    4    4    0    0 -0.33451864713E-01 -0.84648030471E-01 -0.24995884657E-01  0.94389468089E-01  0.51100000000E-03 0. -1.
         11    1    4    4    0    0 -0.53222750837E-02 -0.24927454372E-01 -0.37039541964E-01  0.44965468790E-01  0.51100000000E-03 0.  1.
</event>
<event>
 8    1  0.2825007E+004  0.1043930E+01  0.7957747E-01            NaN
         13   -1    0    0    0    0  0.00000000000E+00  0.00000000000E+00  0.74505805969E-08  0.10566000000E+00  0.10566000000E+00 0. -1.
     999900   -1    0    0    0    0 -0.00000000000E+00 -0.00000000000E+00 -0.74505805969E-08  0.93827000000E+00  0.93827000000E+00 0.  1.
     999902    2    1    2    0    0 -0.12380925576E-01  0.82932858400E-03 -0.43902517757E-02  0.10307675757E+01  0.10306835332E+01 0.  0.
     999903    2    3    3    0    0 -0.29937574446E-01  0.12680869791E+00  0.29506730327E-01  0.14097656490E+00  0.45022666370E-01 0.  0.
         14    1    1    2    0    0  0.12380925576E-01 -0.82932858400E-03  0.43902517757E-02  0.13162424346E-01  0.00000000000E+00 0. -1.
     999901    1    3    3    0    0  0.17556648870E-01 -0.12597936933E+00 -0.33896982103E-01  0.88979101075E+00  0.88000000000E+00 0.  1.
        -11    1    4    4    0    0 -0.67962465882E-02  0.83104210943E-01  0.36512676342E-01  0.91027114086E-01  0.51100000000E-03 0.  1.
         11    1    4    4    0    0 -0.23141327858E-01  0.43704486971E-01 -0.70059460153E-02  0.49949450817E-01  0.51100000000E-03 0. -1.
</event>
<event>
 7    1  0.2825007E+004  0.1043930E+01  0.7957747E-01            NaN
         13   -1    0    0    0    0  0.00000000000E+00  0.00000000000E+00  0.74505805969E-08  0.10566000000E+00  0.10566000000E+00 0.  1.
     999900   -1    0    0    0    0 -0.00000000000E+00 -0.00000000000E+00 -0.74505805969E-08  0.93827000000E+00  0.93827000000E+00 0.  1.
     999902    2    1    2    0    0 -0.66020050061E-02  0.16154380596E-01 -0.75125527606E-03  0.10264624625E+01  0.10263138273E+01 0.  0.
         14    1    1    2    0    0  0.66020050061E-02 -0.16154380596E-01  0.75125527606E-03  0.17467537521E-01  0.00000000000E+00 0. -1.
     999901    1    3    3    0    0  0.44039505397E-01  0.10177130737E+00 -0.41014800613E-01  0.88790714093E+00  0.88000000000E+00 0.  1.
        -11    1    3    3    0    0  0.15480725300E-01 -0.31616361311E-01 -0.13452960953E-01  0.37689394234E-01  0.51100000000E-03 0. -1.
         11    1    3    3    0    0 -0.66122235702E-01 -0.54000565465E-01  0.53716506289E-01  0.10086592732E+00  0.51100000000E-03 0.  1.
</event>
<event>
 8    1  0.2825007E+004  0.1043930E+01  0.7957747E-01            NaN
         13   -1    0    0    0    0  0.00000000000E+00  0.00000000000E+00  0.74505805969E-08  0.10566000000E+00  0.10566000000E+00 0. -1.
     999900   -1    0    0    0    0 -0.00000000000E+00 -0.00000000000E+00 -0.74505805969E-08  0.93827000000E+00  0.93827000000E+00 0.  1.
     999902    2    1    2    0    0 -0.95406910096E-02 -0.40220638812E-02 -0.74279692241E-02  0.10311872958E+01  0.10311085600E+01 0.  0.
     999903    2    3    3    0    0 -0.59807457192E-01  0.11172719856E+00  0.41738834660E-01  0.14082668678E+00  0.45056925755E-01 0.  0.
         14    1    1    2    0    0  0.95406910096E-02  0.40220638812E-02  0.74279692241E-02  0.12742704171E-01  0.00000000000E+00 0. -1.
     999901    1    3    3    0    0  0.50266766183E-01 -0.11574926244E+00 -0.49166803884E-01  0.89036060905E+00  0.88000000000E+00 0. -1.
        -11    1    4    4    0    0 -0.33422990114E-01  0.84706625539E-01  0.10222912430E-01  0.91635570265E-01  0.51100000000E-03 0. -1.
         11    1    4    4    0    0 -0.26384467078E-01  0.27020573017E-01  0.31515922231E-01  0.49191116517E-01  0.51100000000E-03 0.  1.
</event>
<event>
 8    1  0.2825007E+004  0.1043930E+01  0.7957747E-01            NaN
         13   -1    0    0    0    0  0.00000000000E+00  0.00000000000E+00  0.74505805969E-08  0.10566000000E+00  0.10566000000E+00 0. -1.
     999900   -1    0    0    0    0 -0.00000000000E+00 -0.00000000000E+00 -0.74505805969E-08  0.93827000000E+00  0.93827000000E+00 0. -1.
     999902    2    1    2    0    0  0.16532671430E-01 -0.56350626471E-03 -0.35607162279E-02  0.10270088457E+01  0.10268694384E+01 0.  0.
     999903    2    3    3    0    0 -0.42584930770E-01  0.11919705277E+00 -0.23673787000E-01  0.13670439324E+00  0.45893673029E-01 0.  0.
         14    1    1    2    0    0 -0.16532671430E-01  0.56350626471E-03  0.35607162279E-02  0.16921154334E-01  0.00000000000E+00 0. -1.
     999901    1    3    3    0    0  0.59117602200E-01 -0.11976055903E+00  0.20113070772E-01  0.89030445242E+00  0.88000000000E+00 0. -1.
        -11    1    4    4    0    0  0.18405661308E-02  0.22777015477E-01  0.10531413532E-01  0.25166483857E-01  0.51100000000E-03 0.  1.
         11    1    4    4    0    0 -0.44425496901E-01  0.96420037289E-01 -0.34205200533E-01  0.11153790939E+00  0.51100000000E-03 0. -1.
</event>
<event>
 8    1  0.2825007E+004  0.1043930E+01  0.7957747E-01            NaN
         13   -1    0    0    0    0  0.00000000000E+00  0.00000000000E+00  0.74505805969E-08  0.10566000000E+00  0.10566000000E+00 0.  1.
     999900   -1    0    0    0    0 -0.00000000000E+00 -0.00000000000E+00 -0.74505805969E-08  0.93827000000E+00  0.93827000000E+00 0.  1.
     999902    2    1    2    0    0  0.34141359703E-02 -0.50331832357E-02  0.11094865110E-01  0.10312775184E+01  0.10311999005E+01 0.  0.
     999903    2    3    3    0    0  0.55838194631E-01  0.37495295806E-01 -0.11415371390E+00  0.13984936093E+00  0.44754577059E-01 0.  0.
         14    1    1    2    0    0 -0.34141359703E-02  0.50331832357E-02 -0.11094865110E-01  0.12652481564E-01  0.00000000000E+00 0. -1.
     999901    1    3    3    0    0 -0.52424058661E-01 -0.42528479042E-01  0.12524857901E+00  0.89142815751E+00  0.88000000000E+00 0. -1.
        -11    1    4    4    0    0  0.51942472165E-01  0.10793978999E-01 -0.66354921258E-01  0.84957442837E-01  0.51100000000E-03 0. -1.
         11    1    4    4    0    0  0.38957224665E-02  0.26701316808E-01 -0.47798792640E-01  0.54891918090E-01  0.51100000000E-03 0.  1.
</event>
<event>
 8    1  0.2825007E+004  0.1043930E+01  0.7957747E-01            NaN
         13   -1    0    0    0    0  0.00000000000E+00  0.00000000000E+00  0.74505805969E-08  0.10566000000E+00  0.10566000000E+00 0.  1.
     999900   -1    0    0    0    0 -0.00000000000E+00 -0.00000000000E+00 -0.74505805969E-08  0.93827000000E+00  0.93827000000E+00 0.  1.
     999902    2    1    2    0    0  0.13750424297E-01  0.17159260494E-02 -0.16882570118E-02  0.10299704591E+01  0.10298758555E+01 0.  0.
     999903    2    3    3    0    0  0.94956024647E-01 -0.75816027462E-01 -0.56286711730E-01  0.14115858665E+00  0.44641192077E-01 0.  0.
         14    1    1    2    0    0 -0.13750424297E-01 -0.17159260494E-02  0.16882570118E-02  0.13959540906E-01  0.00000000000E+00 0. -1.
     999901    1    3    3    0    0 -0.81205600350E-01  0.77531953512E-01  0.54598454718E-01  0.88881187245E+00  0.88000000000E+00 0. -1.
        -11    1    4    4    0    0  0.67969995768E-01 -0.30892687551E-01 -0.46163793557E-01  0.87781748818E-01  0.51100000000E-03 0. -1.
         11    1    4    4    0    0  0.26986028879E-01 -0.44923339911E-01 -0.10122918173E-01  0.53376837830E-01  0.51100000000E-03 0.  1.
</event>
<event>
 8    1  0.2825007E+004  0.1043930E+01  0.7957747E-01            NaN
         13   -1    0    0    0    0  0.00000000000E+00  0.00000000000E+00  0.74505805969E-08  0.10566000000E+00  0.10566000000E+00 0.  1.
     999900   -1    0    0    0    0 -0.00000000000E+00 -0.00000000000E+00 -0.74505805969E-08  0.93827000000E+00  0.93827000000E+00 0. -1.
     999902    2    1    2    0    0  0.75591951851E-02 -0.11060674300E-01 -0.43414388989E-02  0.10298471012E+01  0.10297508066E+01 0.  0.
     999903    2    3    3    0    0  0.59246623320E-01 -0.76705245331E-01  0.91767209316E-01  0.14068025957E+00  0.44450620820E-01 0.  0.
         14    1    1    2    0    0 -0.75591951851E-02  0.11060674300E-01  0.43414388989E-02  0.14082898832E-01  0.00000000000E+00 0. -1.
     999901    1    3    3    0    0 -0.51687428134E-01  0.65644571031E-01 -0.96108648215E-01  0.88916684160E+00  0.88000000000E+00 0. -1.
        -11    1    4    4    0    0  0.36936595517E-01 -0.52927969642E-01  0.30747258620E-01  0.71493615746E-01  0.51100000000E-03 0.  1.
         11    1    4    4    0    0  0.22310027803E-01 -0.23777275688E-01  0.61019950697E-01  0.69186643825E-01  0.51100000000E-03 0. -1.
</event>
<event>
 7    1  0.2825007E+004  0.1043930E+01  0.7957747E-01            NaN
         13   -1    0    0    0    0  0.00000000000E+00  0.00000000000E+00  0.74505805969E-08  0.10566000000E+00  0.10566000000E+00 0.  1.
     999900   -1    0    0    0    0 -0.00000000000E+00 -0.00000000000E+00 -0.74505805969E-08  0.93827000000E+00  0.93827000000E+00 0.  1.
     999903    2    1    2    0    0 -0.63543735409E-01 -0.27460752686E-01  0.87088643836E-01  0.12032555335E+00  0.45846566448E-01 0.  0.
         14    1    1    2    0    0 -0.16384817873E-01  0.31883129374E-01 -0.26021015422E-02  0.35941162027E-01  0.00000000000E+00 0.  1.
     999901    1    1    2    0    0  0.79928553282E-01 -0.44223766874E-02 -0.84486542294E-01  0.88766328463E+00  0.88000000000E+00 0.  1.
        -11    1    3    3    0    0 -0.16929948608E-01  0.42109781283E-02  0.10665254907E-02  0.17485825525E-01  0.51100000000E-03 0.  1.
         11    1    3    3    0    0 -0.46613786801E-01 -0.31671730815E-01  0.86022118346E-01  0.10283972782E+00  0.51100000000E-03 0. -1.
</event>
<event>
 8    1  0.2825007E+004  0.1043930E+01  0.7957747E-01            NaN
         13   -1    0    0    0    0  0.00000000000E+00  0.00000000000E+00  0.74505805969E-08  0.10566000000E+00  0.10566000000E+00 0. -1.
     999900   -1    0    0    0    0 -0.00000000000E+00 -0.00000000000E+00 -0.74505805969E-08  0.93827000000E+00  0.93827000000E+00 0. -1.
     999902    2    1    2    0    0 -0.42180652066E-02  0.10959418873E-01  0.65380334527E-02  0.10304895083E+01  0.10304018536E+01 0.  0.
     999903    2    3    3    0    0  0.56900906011E-01  0.11365916267E+00 -0.41950045622E-01  0.14108866512E+00  0.44610388172E-01 0.  0.
         14    1    1    2    0    0  0.42180652066E-02 -0.10959418873E-01 -0.65380334527E-02  0.13440491715E-01  0.00000000000E+00 0.  1.
     999901    1    3    3    0    0 -0.61118971218E-01 -0.10269974380E+00  0.48488079075E-01  0.88940084317E+00  0.88000000000E+00 0.  1.
        -11    1    4    4    0    0  0.23269969141E-01  0.39158519509E-01  0.65800255977E-02  0.46026502929E-01  0.51100000000E-03 0.  1.
         11    1    4    4    0    0  0.33630936870E-01  0.74500643159E-01 -0.48530071220E-01  0.95062162186E-01  0.51100000000E-03 0. -1.
</event>
<event>
 8    1  0.2825007E+004  0.1043930E+01  0.7957747E-01            NaN
         13   -1    0    0    0    0  0.00000000000E+00  0.00000000000E+00  0.74505805969E-08  0.10566000000E+00  0.10566000000E+00 0. -1.
     999900   -1    0    0    0    0 -0.00000000000E+00 -0.00000000000E+00 -0.74505805969E-08  0.93827000000E+00  0.93827000000E+00 0. -1.
     999902    2    1    2    0    0 -0.95384291628E-03  0.11742429541E-01  0.65723835898E-02  0.10304396073E+01  0.10303512963E+01 0.  0.
     999903    2    3    3    0    0 -0.12593044349E+00  0.39908737610E-01  0.19079270803E-01  0.14107527603E+00  0.45684034355E-01 0.  0.
         14    1    1    2    0    0  0.95384291628E-03 -0.11742429541E-01 -0.65723835898E-02  0.13490392652E-01  0.00000000000E+00 0.  1.
     999901    1    3    3    0    0  0.12497660058E+00 -0.28166308069E-01 -0.12506887213E-01  0.88936433132E+00  0.88000000000E+00 0. -1.
        -11    1    4    4    0    0 -0.65539180980E-01  0.24145259252E-01  0.32804615925E-01  0.77167232262E-01  0.51100000000E-03 0.  1.
         11    1    4    4    0    0 -0.60391262514E-01  0.15763478358E-01 -0.13725345122E-01  0.63908043764E-01  0.51100000000E-03 0. -1.
</event>
<event>
 8    1  0.2825007E+004  0.1043930E+01  0.7957747E-01            NaN
         13   -1    0    0    0    0  0.00000000000E+00  0.00000000000E+00  0.74505805969E-08  0.10566000000E+00  0.10566000000E+00 0.  1.
     999900   -1    0    0    0    0 -0.00000000000E+00 -0.00000000000E+00 -0.74505805969E-08  0.93827000000E+00  0.93827000000E+00 0.  1.
     999902    2    1    2    0    0  0.59979045878E-03 -0.14818996240E-01 -0.72964497546E-02  0.10274012197E+01  0.10272682540E+01 0.  0.
     999903    2    3    3    0    0  0.12858555076E+00 -0.30252006588E-02 -0.22951076546E-01  0.13792692792E+00  0.44200563645E-01 0.  0.
         14    1    1    2    0    0 -0.59979045878E-03  0.14818996240E-01  0.72964497546E-02  0.16528780268E-01  0.00000000000E+00 0.  1.
     999901    1    3    3    0    0 -0.12798576030E+00 -0.11793795581E-01  0.15654626792E-01  0.88947429181E+00  0.88000000000E+00 0. -1.
        -11    1    4    4    0    0  0.93639224289E-01 -0.12728373290E-01 -0.33316993152E-01  0.10020278921E+00  0.51100000000E-03 0. -1.
         11    1    4    4    0    0  0.34946326475E-01  0.97031726310E-02  0.10365916606E-01  0.37724138708E-01  0.51100000000E-03 0.  1.
</event>
<event>
 8    1  0.2825007E+004  0.1043930E+01  0.7957747E-01            NaN
         13   -1    0    0    0    0  0.00000000000E+00  0.00000000000E+00  0.74505805969E-08  0.10566000000E+00  0.10566000000E+00 0.  1.
     999900   -1    0    0    0    0 -0.00000000000E+00 -0.00000000000E+00 -0.74505805969E-08  0.93827000000E+00  0.93827000000E+00 0.  1.
     999902    2    1    2    0    0  0.25481260310E-02  0.13825538769E-01 -0.79446255744E-02  0.10277820731E+01  0.10276552117E+01 0.  0.
     999903    2    3    3    0    0 -0.34618735077E-01  0.11560425570E+00 -0.61645273873E-01  0.13951182005E+00  0.33175403370E-01 0.  0.
         14    1    1    2    0    0 -0.25481260310E-02 -0.13825538769E-01  0.79446255744E-02  0.16147926927E-01  0.00000000000E+00 0.  1.
     999901    1    3    3    0    0  0.37166861108E-01 -0.10177871693E+00  0.53700648298E-01  0.88827025303E+00  0.88000000000E+00 0. -1.
        -11    1    4    4    0    0 -0.26250302330E-02  0.39396928851E-01 -0.34729908086E-01  0.52587416967E-01  0.51100000000E-03 0.  1.
         11    1    4    4    0    0 -0.31993704844E-01  0.76207326844E-01 -0.26915365787E-01  0.86924403079E-01  0.51100000000E-03 0. -1.
</event>
<event>
 8    1  0.2825007E+004  0.1043930E+01  0.7957747E-01            NaN
         13   -1    0    0    0    0  0.00000000000E+00  0.00000000000E+00  0.74505805969E-08  0.10566000000E+00  0.10566000000E+00 0.  1.
     999900   -1    0    0    0    0 -0.00000000000E+00 -0.00000000000E+00 -0.74505805969E-08  0.93827000000E+00  0.93827000000E+00 0. -1.
     999902    2    1    2    0    0 -0.11468991788E-01  0.53390890117E-02  0.98277971321E-03  0.10312410481E+01  0.10311629793E+01 0.  0.
     999903    2    3    3    0    0 -0.33319018879E-01 -0.12007926724E+00  0.47112783555E-01  0.14088428533E+00  0.45821174578E-01 0.  0.
         14    1    1    2    0    0  0.11468991788E-01 -0.53390890117E-02 -0.98277971321E-03  0.12688951890E-01  0.00000000000E+00 0. -1.
     999901    1    3    3    0    0  0.21850027091E-01  0.12541835625E+00 -0.46130003841E-01  0.89035676278E+00  0.88000000000E+00 0. -1.
        -11    1    4    4    0    0 -0.96078556040E-02 -0.56359301658E-01  0.45172092978E-01  0.72866047496E-01  0.51100000000E-03 0.  1.
         11    1    4    4    0    0 -0.23711163275E-01 -0.63719965581E-01  0.19406905770E-02  0.68018237837E-01  0.51100000000E-03 0. -1.
</event>
<event>
 8    1  0.2825007E+004  0.1043930E+01  0.7957747E-01            NaN
         13   -1    0    0    0    0  0.00000000000E+00  0.00000000000E+00  0.74505805969E-08  0.10566000000E+00  0.10566000000E+00 0.  1.
     999900   -1    0    0    0    0 -0.00000000000E+00 -0.00000000000E+00 -0.74505805969E-08  0.93827000000E+00  0.93827000000E+00 0. -1.
     999902    2    1    2    0    0  0.10779567501E-01  0.81745661909E-02 -0.44244965954E-02  0.10296962802E+01  0.10295978976E+01 0.  0.
     999903    2    3    3    0    0 -0.29641326720E-01  0.26110105706E-01  0.12258848369E+00  0.13947842521E+00  0.53534557945E-01 0.  0.
         14    1    1    2    0    0 -0.10779567501E-01 -0.81745661909E-02  0.44244965954E-02  0.14233719754E-01  0.00000000000E+00 0.  1.
     999901    1    3    3    0    0  0.40420894221E-01 -0.17935539515E-01 -0.12701298029E+00  0.89021785504E+00  0.88000000000E+00 0. -1.
        -11    1    4    4    0    0 -0.92458334246E-02  0.11710151446E-01  0.11091069627E+00  0.11191093222E+00  0.51100000000E-03 0. -1.
         11    1    4    4    0    0 -0.20395493296E-01  0.14399954260E-01  0.11677787425E-01  0.27567492987E-01  0.51100000000E-03 0.  1.
</event>
<event>
 8    1  0.2825007E+004  0.1043930E+01  0.7957747E-01            NaN
         13   -1    0    0    0    0  0.00000000000E+00  0.00000000000E+00  0.74505805969E-08  0.10566000000E+00  0.10566000000E+00 0. -1.
     999900   -1    0    0    0    0 -0.00000000000E+00 -0.00000000000E+00 -0.74505805969E-08  0.93827000000E+00  0.93827000000E+00 0. -1.
     999902    2    1    2    0    0  0.32458211549E-02  0.19945918094E-03  0.12232641020E-01  0.10312724866E+01  0.10311948065E+01 0.  0.
     999903    2    3    3    0    0  0.93918689080E-01 -0.80639160631E-01  0.53251699994E-01  0.14198118752E+00  0.44715989001E-01 0.  0.
         14    1    1    2    0    0 -0.32458211549E-02 -0.19945918094E-03 -0.12232641020E-01  0.12657513392E-01  0.00000000000E+00 0.  1.
     999901    1    3    3    0    0 -0.90672867925E-01  0.80838619812E-01 -0.41019058974E-01  0.88929129909E+00  0.88000000000E+00 0. -1.
        -11    1    4    4    0    0  0.19770541303E-01 -0.44912138237E-01  0.24014268671E-01  0.54634427655E-01  0.51100000000E-03 0.  1.
         11    1    4    4    0    0  0.74148147777E-01 -0.35727022394E-01  0.29237431323E-01  0.87346759867E-01  0.51100000000E-03 0. -1.
</event>
<event>
 8    1  0.2825007E+004  0.1043930E+01  0.7957747E-01            NaN
         13   -1    0    0    0    0  0.00000000000E+00  0.00000000000E+00  0.74505805969E-08  0.10566000000E+00  0.10566000000E+00 0. -1.
     999900   -1    0    0    0    0 -0.00000000000E+00 -0.00000000000E+00 -0.74505805969E-08  0.93827000000E+00  0.93827000000E+00 0.  1.
     999902    2    1    2    0    0  0.10070808844E-01 -0.93516729093E-02  0.67575794240E-03  0.10301702171E+01  0.10300783196E+01 0.  0.
     999903    2    3    3    0    0  0.97540113616E-01 -0.68672803769E-01 -0.61856984477E-01  0.14164322272E+00  0.44793841908E-01 0.  0.
         14    1    1    2    0    0 -0.10070808844E-01  0.93516729093E-02 -0.67575794240E-03  0.13759782911E-01  0.00000000000E+00 0. -1.
     999901    1    3    3    0    0 -0.87469304772E-01  0.59321130859E-01  0.62532742420E-01  0.88852699437E+00  0.88000000000E+00 0. -1.
        -11    1    4    4    0    0  0.61721413472E-01 -0.66751305032E-01 -0.50584544053E-01  0.10404002510E+00  0.51100000000E-03 0.  1.
         11    1    4    4    0    0  0.35818700144E-01 -0.19214987366E-02 -0.11272440424E-01  0.37603197624E-01  0.51100000000E-03 0. -1.
</event>
<event>
 8    1  0.2825007E+004  0.1043930E+01  0.7957747E-01            NaN
         13   -1    0    0    0    0  0.00000000000E+00  0.00000000000E+00  0.74505805969E-08  0.10566000000E+00  0.10566000000E+00 0.  1.
     999900   -1    0    0    0    0 -0.00000000000E+00 -0.00000000000E+00 -0.74505805969E-08  0.93827000000E+00  0.93827000000E+00 0.  1.
     999902    2    1    2    0    0  0.64460827984E-02 -0.12146491384E-01  0.16917509518E-02  0.10300753525E+01  0.10299821749E+01 0.  0.
     999903    2    3    3    0    0 -0.11704367218E+00 -0.41977216542E-01  0.47522278574E-01  0.13977201710E+00  0.42620909141E-01 0.  0.
         14    1    1    2    0    0 -0.64460827984E-02  0.12146491384E-01 -0.16917509518E-02  0.13854647511E-01  0.00000000000E+00 0. -1.
     999901    1    3    3    0    0  0.12348975498E+00  0.29830725158E-01 -0.45830527623E-01  0.89030333539E+00  0.88000000000E+00 0. -1.
        -11    1    4    4    0    0 -0.68744739058E-01 -0.37360181300E-02  0.16511937629E-01  0.70800439157E-01  0.51100000000E-03 0. -1.
         11    1    4    4    0    0 -0.48298933124E-01 -0.38241198412E-01  0.31010340945E-01  0.68971577939E-01  0.51100000000E-03 0.  1.
</event>
<event>
 8    1  0.2825007E+004  0.1043930E+01  0.7957747E-01            NaN
         13   -1    0    0    0    0  0.00000000000E+00  0.00000000000E+00  0.74505805969E-08  0.10566000000E+00  0.10566000000E+00 0.  1.
     999900   -1    0    0    0    0 -0.00000000000E+00 -0.00000000000E+00 -0.74505805969E-08  0.93827000000E+00  0.93827000000E+00 0.  1.
     999902    2    1    2    0    0  0.87187959603E-02  0.10462520065E-01  0.19418147279E-02  0.10301730972E+01  0.10300812385E+01 0.  0.
     999903    2    3    3    0    0  0.56156014798E-01 -0.11179355867E+00 -0.42177559436E-01  0.13936259119E+00  0.44628326692E-01 0.  0.
         14    1    1    2    0    0 -0.87187959603E-02 -0.10462520065E-01 -0.19418147279E-02  0.13756902760E-01  0.00000000000E+00 0.  1.
     999901    1    3    3    0    0 -0.47437218838E-01  0.12225607874E+00  0.44119374164E-01  0.89081050605E+00  0.88000000000E+00 0.  1.
        -11    1    4    4    0    0  0.49894163887E-01 -0.59422121802E-01 -0.38143620042E-01  0.86461627444E-01  0.51100000000E-03 0. -1.
         11    1    4    4    0    0  0.62618509115E-02 -0.52371436871E-01 -0.40339393943E-02  0.52900963742E-01  0.51100000000E-03 0.  1.
</event>
<event>
 8    1  0.2825007E+004  0.1043930E+01  0.7957747E-01            NaN
         13   -1    0    0    0    0  0.00000000000E+00  0.00000000000E+00  0.74505805969E-08  0.10566000000E+00  0.10566000000E+00 0. -1.
     999900   -1    0    0    0    0 -0.00000000000E+00 -0.00000000000E+00 -0.74505805969E-08  0.93827000000E+00  0.93827000000E+00 0.  1.
     999902    2    1    2    0    0  0.97323214343E-02 -0.63921286468E-02  0.74753574902E-02  0.10300931521E+01  0.10300002154E+01 0.  0.
     999903    2    3    3    0    0  0.20835411227E-01  0.15743108771E-01 -0.12880764915E+00  0.13925854053E+00  0.46038796642E-01 0.  0.
         14    1    1    2    0    0 -0.97323214343E-02  0.63921286468E-02 -0.74753574902E-02  0.13836847862E-01  0.00000000000E+00 0.  1.
     999901    1    3    3    0    0 -0.11103089793E-01 -0.22135237417E-01  0.13628300664E+00  0.89083461161E+00  0.88000000000E+00 0. -1.
        -11    1    4    4    0    0 -0.95121424736E-02  0.19382143451E-01 -0.42028265818E-01  0.47252350078E-01  0.51100000000E-03 0.  1.
         11    1    4    4    0    0  0.30347553701E-01 -0.36390346809E-02 -0.86779383333E-01  0.92006190453E-01  0.51100000000E-03 0. -1.
</event>
<event>
 8    1  0.2825007E+004  0.1043930E+01  0.7957747E-01            NaN
         13   -1    0    0    0    0  0.00000000000E+00  0.00000000000E+00  0.74505805969E-08  0.10566000000E+00  0.10566000000E+00 0.  1.
     999900   -1    0    0    0    0 -0.00000000000E+00 -0.00000000000E+00 -0.74505805969E-08  0.93827000000E+00  0.93827000000E+00 0. -1.
     999902    2    1    2    0    0 -0.10412399142E-01 -0.89038518222E-02  0.14304670308E-02  0.10301552815E+01  0.10300631831E+01 0.  0.
     999903    2    3    3    0    0 -0.12610197356E+00 -0.46026014390E-01  0.85561654616E-02  0.14177872389E+00  0.44809561956E-01 0.  0.
         14    1    1    2    0    0  0.10412399142E-01  0.89038518222E-02 -0.14304670308E-02  0.13774718476E-01  0.00000000000E+00 0. -1.
     999901    1    3    3    0    0  0.11568957442E+00  0.37122162568E-01 -0.71256984308E-02  0.88837655764E+00  0.88000000000E+00 0.  1.
        -11    1    4    4    0    0 -0.62399530502E-01 -0.46474336615E-01  0.39589234585E-02  0.77906993054E-01  0.51100000000E-03 0. -1.
         11    1    4    4    0    0 -0.63702443058E-01  0.44832222535E-03  0.45972420030E-02  0.63871730832E-01  0.51100000000E-03 0.  1.
</event>
<event>
 8    1  0.2825007E+004  0.1043930E+01  0.7957747E-01            NaN
         13   -1    0    0    0    0  0.00000000000E+00  0.00000000000E+00  0.74505805969E-08  0.10566000000E+00  0.10566000000E+00 0. -1.
     999900   -1    0    0    0    0 -0.00000000000E+00 -0.00000000000E+00 -0.74505805969E-08  0.93827000000E+00  0.93827000000E+00 0. -1.
     999902    2    1    2    0    0  0.62227335831E-02 -0.33104822431E-02 -0.12849628060E-01  0.10292741258E+01  0.10291697778E+01 0.  0.
     999903    2    3    3    0    0  0.44711359902E-01 -0.11422071038E+00 -0.52485677633E-01  0.14059337919E+00  0.44342705494E-01 0.  0.
         14    1    1    2    0    0 -0.62227335831E-02  0.33104822431E-02  0.12849628060E-01  0.14655874153E-01  0.00000000000E+00 0. -1.
     999901    1    3    3    0    0 -0.38488626319E-01  0.11091022814E+00  0.39636049574E-01  0.88868074666E+00  0.88000000000E+00 0.  1.
        -11    1    4    4    0    0 -0.24808075762E-02 -0.47699015815E-01 -0.10700687991E-01  0.48950141578E-01  0.51100000000E-03 0.  1.
         11    1    4    4    0    0  0.47192167479E-01 -0.66521694563E-01 -0.41784989642E-01  0.91643237608E-01  0.51100000000E-03 0. -1.
</event>
<event>
 8    1  0.2825007E+004  0.1043930E+01  0.7957747E-01            NaN
         13   -1    0    0    0    0  0.00000000000E+00  0.00000000000E+00  0.74505805969E-08  0.10566000000E+00  0.10566000000E+00 0.  1.
     999900   -1    0    0    0    0 -0.00000000000E+00 -0.00000000000E+00 -0.74505805969E-08  0.93827000000E+00  0.93827000000E+00 0.  1.
     999902    2    1    2    0    0 -0.22654766885E-02 -0.61242481975E-02 -0.12866996841E-01  0.10295009180E+01  0.10293997968E+01 0.  0.
     999903    2    3    3    0    0 -0.38044850728E-02  0.90194443600E-01  0.93746014154E-01  0.13784740171E+00  0.45432138689E-01 0.  0.
         14    1    1    2    0    0  0.22654766885E-02  0.61242481975E-02  0.12866996841E-01  0.14429082033E-01  0.00000000000E+00 0.  1.
     999901    1    3    3    0    0  0.15390083843E-02 -0.96318691797E-01 -0.10661301100E+00  0.89165351626E+00  0.88000000000E+00 0.  1.
        -11    1    4    4    0    0  0.19413553298E-01  0.24351703925E-01  0.26169869239E-01  0.40681872040E-01  0.51100000000E-03 0.  1.
         11    1    4    4    0    0 -0.23218038371E-01  0.65842739675E-01  0.67576144915E-01  0.97165529671E-01  0.51100000000E-03 0. -1.
</event>
<event>
 8    1  0.2825007E+004  0.1043930E+01  0.7957747E-01            NaN
         13   -1    0    0    0    0  0.00000000000E+00  0.00000000000E+00  0.74505805969E-08  0.10566000000E+00  0.10566000000E+00 0.  1.
     999900   -1    0    0    0    0 -0.00000000000E+00 -0.00000000000E+00 -0.74505805969E-08  0.93827000000E+00  0.93827000000E+00 0. -1.
     999902    2    1    2    0    0  0.14313012736E-01 -0.52606667703E-02 -0.58776122034E-03  0.10286695147E+01  0.10285563125E+01 0.  0.
     999903    2    3    3    0    0  0.92452892550E-01  0.93974769168E-01  0.97164091129E-02  0.13959151559E+00  0.44861877341E-01 0.  0.
         14    1    1    2    0    0 -0.14313012736E-01  0.52606667703E-02  0.58776122034E-03  0.15260485304E-01  0.00000000000E+00 0.  1.
     999901    1    3    3    0    0 -0.78139879813E-01 -0.99235435938E-01 -0.10304170333E-01  0.88907799910E+00  0.88000000000E+00 0.  1.
        -11    1    4    4    0    0  0.33257170482E-01  0.52746752694E-01 -0.13510387382E-01  0.63804788194E-01  0.51100000000E-03 0.  1.
         11    1    4    4    0    0  0.59195722067E-01  0.41228016473E-01  0.23226796495E-01  0.75786727399E-01  0.51100000000E-03 0. -1.
</event>
<event>
 7    1  0.2825007E+004  0.1043930E+01  0.7957747E-01            NaN
         13   -1    0    0    0    0  0.00000000000E+00  0.00000000000E+00  0.74505805969E-08  0.10566000000E+00  0.10566000000E+00 0.  1.
     999900   -1    0    0    0    0 -0.00000000000E+00 -0.00000000000E+00 -0.74505805969E-08  0.93827000000E+00  0.93827000000E+00 0. -1.
     999903    2    1    2    0    0  0.96274019891E-01  0.20491026717E-01  0.57771159583E-01  0.12206573733E+00  0.43289355139E-01 0.  0.
         14    1    1    2    0    0 -0.34664968663E-01 -0.15263242258E-01 -0.30583725304E-02  0.37999740252E-01  0.00000000000E+00 0.  1.
     999901    1    1    2    0    0 -0.61609051228E-01 -0.52277844588E-02 -0.54712787052E-01  0.88386452242E+00  0.88000000000E+00 0. -1.
        -11    1    3    3    0    0  0.35391998153E-01  0.29167092452E-01  0.21345523576E-01  0.50588588764E-01  0.51100000000E-03 0.  1.
         11    1    3    3    0    0  0.60882021738E-01 -0.86760657355E-02  0.36425636007E-01  0.71477148566E-01  0.51100000000E-03 0. -1.
</event>
<event>
 8    1  0.2825007E+004  0.1043930E+01  0.7957747E-01            NaN
         13   -1    0    0    0    0  0.00000000000E+00  0.00000000000E+00  0.74505805969E-08  0.10566000000E+00  0.10566000000E+00 0.  1.
     999900   -1    0    0    0    0 -0.00000000000E+00 -0.00000000000E+00 -0.74505805969E-08  0.93827000000E+00  0.93827000000E+00 0. -1.
     999902    2    1    2    0    0  0.69949986309E-02  0.78759545520E-02 -0.78724813267E-02  0.10307794628E+01  0.10306955731E+01 0.  0.
     999903    2    3    3    0    0 -0.91309103233E-01 -0.95168245448E-02 -0.96804172769E-01  0.14068112502E+00  0.44634166157E-01 0.  0.
         14    1    1    2    0    0 -0.69949986309E-02 -0.78759545520E-02  0.78724813267E-02  0.13150537183E-01  0.00000000000E+00 0.  1.
     999901    1    3    3    0    0  0.98304101864E-01  0.17392779097E-01  0.88931691442E-01  0.89009833780E+00  0.88000000000E+00 0.  1.
        -11    1    4    4    0    0 -0.65917973079E-01 -0.21288981146E-01 -0.47528174732E-01  0.84009454274E-01  0.51100000000E-03 0. -1.
         11    1    4    4    0    0 -0.25391130154E-01  0.11772156601E-01 -0.49275998037E-01  0.56671670746E-01  0.51100000000E-03 0.  1.
</event>
<event>
 8    1  0.2825007E+004  0.1043930E+01  0.7957747E-01            NaN
         13   -1    0    0    0    0  0.00000000000E+00  0.00000000000E+00  0.74505805969E-08  0.10566000000E+00  0.10566000000E+00 0.  1.
     999900   -1    0    0    0    0 -0.00000000000E+00 -0.00000000000E+00 -0.74505805969E-08  0.93827000000E+00  0.93827000000E+00 0. -1.
     999902    2    1    2    0    0  0.89626899589E-02  0.10599000816E-01 -0.55024218807E-03  0.10300385855E+01  0.10299449093E+01 0.  0.
     999903    2    3    3    0    0  0.14276713584E-01 -0.79823749126E-01 -0.10411570942E+00  0.13934766351E+00  0.44744104668E-01 0.  0.
         14    1    1    2    0    0 -0.89626899589E-02 -0.10599000816E-01  0.55024218807E-03  0.13891414473E-01  0.00000000000E+00 0.  1.
     999901    1    3    3    0    0 -0.53140236256E-02  0.90422749941E-01  0.10356546724E+00  0.89069092201E+00  0.88000000000E+00 0.  1.
        -11    1    4    4    0    0 -0.12541893128E-01 -0.24939588882E-01 -0.52119544958E-01  0.59126899669E-01  0.51100000000E-03 0. -1.
         11    1    4    4    0    0  0.26818606712E-01 -0.54884160244E-01 -0.51996164466E-01  0.80220763845E-01  0.51100000000E-03 0.  1.
</event>
<event>
 8    1  0.2825007E+004  0.1043930E+01  0.7957747E-01            NaN
         13   -1    0    0    0    0  0.00000000000E+00  0.00000000000E+00  0.74505805969E-08  0.10566000000E+00  0.10566000000E+00 0. -1.
     999900   -1    0    0    0    0 -0.00000000000E+00 -0.00000000000E+00 -0.74505805969E-08  0.93827000000E+00  0.93827000000E+00 0. -1.
     999902    2    1    2    0    0 -0.75560823015E-02  0.12274506509E-01  0.50670654864E-02  0.10286514843E+01  0.10285380125E+01 0.  0.
     999903    2    3    3    0    0 -0.29151670503E-01  0.74395143289E-01  0.10652932307E+00  0.14038354461E+00  0.44436310438E-01 0.  0.
         14    1    1    2    0    0  0.75560823015E-02 -0.12274506509E-01 -0.50670654864E-02  0.15278515714E-01  0.00000000000E+00 0. -1.
     999901    1    3    3    0    0  0.21595588201E-01 -0.62120636780E-01 -0.10146225758E+00  0.88826793968E+00  0.88000000000E+00 0. -1.
        -11    1    4    4    0    0  0.21797849636E-02  0.53089873865E-01  0.55654020292E-01  0.76947496809E-01  0.51100000000E-03 0. -1.
         11    1    4    4    0    0 -0.31331455466E-01  0.21305269425E-01  0.50875302777E-01  0.63436047800E-01  0.51100000000E-03 0.  1.
</event>
<event>
 8    1  0.2825007E+004  0.1043930E+01  0.7957747E-01            NaN
         13   -1    0    0    0    0  0.00000000000E+00  0.00000000000E+00  0.74505805969E-08  0.10566000000E+00  0.10566000000E+00 0. -1.
     999900   -1    0    0    0    0 -0.00000000000E+00 -0.00000000000E+00 -0.74505805969E-08  0.93827000000E+00  0.93827000000E+00 0. -1.
     999902    2    1    2    0    0 -0.23760583788E-03 -0.11664362024E-03 -0.14098558497E-01  0.10298289570E+01  0.10297324124E+01 0.  0.
     999903    2    3    3    0    0 -0.28203199027E-01  0.10875388584E+00 -0.71861098074E-01  0.14080062360E+00  0.45143881855E-01 0.  0.
         14    1    1    2    0    0  0.23760583788E-03  0.11664362024E-03  0.14098558497E-01  0.14101043009E-01  0.00000000000E+00 0. -1.
     999901    1    3    3    0    0  0.27965593190E-01 -0.10887052946E+00  0.57762539577E-01  0.88902833339E+00  0.88000000000E+00 0.  1.
        -11    1    4    4    0    0 -0.35105442279E-01  0.60515315716E-01 -0.55799870750E-01  0.89489564813E-01  0.51100000000E-03 0. -1.
         11    1    4    4    0    0  0.69022432515E-02  0.48238570128E-01 -0.16061227324E-01  0.51311058790E-01  0.51100000000E-03 0.  1.
</event>
<event>
 8    1  0.2825007E+004  0.1043930E+01  0.7957747E-01            NaN
         13   -1    0    0    0    0  0.00000000000E+00  0.00000000000E+00  0.74505805969E-08  0.10566000000E+00  0.10566000000E+00 0.  1.
     999900   -1    0    0    0    0 -0.00000000000E+00 -0.00000000000E+00 -0.74505805969E-08  0.93827000000E+00  0.93827000000E+00 0. -1.
     999902    2    1    2    0    0  0.64791193829E-03  0.62951140853E-02  0.12330779746E-01  0.10300701161E+01  0.10299768676E+01 0.  0.
     999903    2    3    3    0    0 -0.16276814516E-01 -0.11423821843E+00 -0.62540171492E-01  0.13854311714E+00  0.44357829255E-01 0.  0.
         14    1    1    2    0    0 -0.64791193829E-03 -0.62951140853E-02 -0.12330779746E-01  0.13859883851E-01  0.00000000000E+00 0. -1.
     999901    1    3    3    0    0  0.16924726454E-01  0.12053333252E+00  0.74870951237E-01  0.89152699900E+00  0.88000000000E+00 0. -1.
        -11    1    4    4    0    0 -0.13405728209E-01 -0.50672177750E-01 -0.48327091692E-02  0.52640282538E-01  0.51100000000E-03 0. -1.
         11    1    4    4    0    0 -0.28710863066E-02 -0.63566040684E-01 -0.57707462322E-01  0.85902834607E-01  0.51100000000E-03 0.  1.
</event>
<event>
 8    1  0.2825007E+004  0.1043930E+01  0.7957747E-01            NaN
         13   -1    0    0    0    0  0.00000000000E+00  0.00000000000E+00  0.74505805969E-08  0.10566000000E+00  0.10566000000E+00 0.  1.
     999900   -1    0    0    0    0 -0.00000000000E+00 -0.00000000000E+00 -0.74505805969E-08  0.93827000000E+00  0.93827000000E+00 0.  1.
     999902    2    1    2    0    0 -0.67973222127E-02 -0.12180227546E-01  0.30290408786E-03  0.10299781799E+01  0.10298836817E+01 0.  0.
     999903    2    3    3    0    0 -0.12015750975E+00  0.54695779272E-01 -0.14597627299E-01  0.14006528631E+00  0.44449277671E-01 0.  0.
         14    1    1    2    0    0  0.67973222127E-02  0.12180227546E-01 -0.30290408786E-03  0.13951820069E-01  0.00000000000E+00 0.  1.
     999901    1    3    3    0    0  0.11336018754E+00 -0.66876006818E-01  0.14900531386E-01  0.88991289363E+00  0.88000000000E+00 0.  1.
        -11    1    4    4    0    0 -0.31070147320E-01  0.37056168844E-01 -0.22706584998E-02  0.48414158207E-01  0.51100000000E-03 0.  1.
         11    1    4    4    0    0 -0.89087362431E-01  0.17639610428E-01 -0.12326968799E-01  0.91651128098E-01  0.51100000000E-03 0. -1.
</event>
<event>
 8    1  0.2825007E+004  0.1043930E+01  0.7957747E-01            NaN
         13   -1    0    0    0    0  0.00000000000E+00  0.00000000000E+00  0.74505805969E-08  0.10566000000E+00  0.10566000000E+00 0. -1.
     999900   -1    0    0    0    0 -0.00000000000E+00 -0.00000000000E+00 -0.74505805969E-08  0.93827000000E+00  0.93827000000E+00 0. -1.
     999902    2    1    2    0    0  0.11572661228E-01 -0.59462962756E-02  0.27248399512E-02  0.10306367807E+01  0.10305510487E+01 0.  0.
     999903    2    3    3    0    0 -0.10870855611E-01 -0.79009037013E-01  0.10730541792E+00  0.14115436217E+00  0.45271379637E-01 0.  0.
         14    1    1    2    0    0 -0.11572661228E-01  0.59462962756E-02 -0.27248399512E-02  0.13293219326E-01  0.00000000000E+00 0.  1.
     999901    1    3    3    0    0  0.22443516839E-01  0.73062740737E-01 -0.10458057797E+00  0.88948241850E+00  0.88000000000E+00 0. -1.
        -11    1    4    4    0    0  0.13219709888E-01 -0.53905984893E-01  0.77570768133E-01  0.95383966821E-01  0.51100000000E-03 0.  1.
         11    1    4    4    0    0 -0.24090565499E-01 -0.25103052120E-01  0.29734649787E-01  0.45770395353E-01  0.51100000000E-03 0. -1.
</event>
<event>
 8    1  0.2825007E+004  0.1043930E+01  0.7957747E-01            NaN
         13   -1    0    0    0    0  0.00000000000E+00  0.00000000000E+00  0.74505805969E-08  0.10566000000E+00  0.10566000000E+00 0. -1.
     999900   -1    0    0    0    0 -0.00000000000E+00 -0.00000000000E+00 -0.74505805969E-08  0.93827000000E+00  0.93827000000E+00 0. -1.
     999902    2    1    2    0    0 -0.58201311049E-02  0.12684207002E-01  0.68595022264E-03  0.10299573996E+01  0.10298626178E+01 0.  0.
     999903    2    3    3    0    0 -0.21822345686E-01 -0.12142093451E+00 -0.44616485289E-01  0.13850208919E+00  0.44417787436E-01 0.  0.
         14    1    1    2    0    0  0.58201311049E-02 -0.12684207002E-01 -0.68595022264E-03  0.13972600368E-01  0.00000000000E+00 0.  1.
     999901    1    3    3    0    0  0.16002214581E-01  0.13410514152E+00  0.45302435512E-01  0.89145531044E+00  0.88000000000E+00 0.  1.
        -11    1    4    4    0    0 -0.30215161230E-01 -0.11289632378E+00 -0.32140210186E-01  0.12120969484E+00  0.51100000000E-03 0. -1.
         11    1    4    4    0    0  0.83928155440E-02 -0.85246107348E-02 -0.12476275103E-01  0.17292394351E-01  0.51100000000E-03 0.  1.
</event>
<event>
 8    1  0.2825007E+004  0.1043930E+01  0.7957747E-01            NaN
         13   -1    0    0    0    0  0.00000000000E+00  0.00000000000E+00  0.74505805969E-08  0.10566000000E+00  0.10566000000E+00 0.  1.
     999900   -1    0    0    0    0 -0.00000000000E+00 -0.00000000000E+00 -0.74505805969E-08  0.93827000000E+00  0.93827000000E+00 0. -1.
     999902    2    1    2    0    0 -0.48260714578E-02 -0.10672479417E-01  0.83908902627E-02  0.10295216753E+01  0.10294208469E+01 0.  0.
     999903    2    3    3    0    0  0.11829481128E+00 -0.23881733298E-01 -0.51852459000E-01  0.13881268951E+00  0.44903070080E-01 0.  0.
         14    1    1    2    0    0  0.48260714578E-02  0.10672479417E-01 -0.83908902627E-02  0.14408324747E-01  0.00000000000E+00 0. -1.
     999901    1    3    3    0    0 -0.12312088274E+00  0.13209253881E-01  0.60243349263E-01  0.89070898574E+00  0.88000000000E+00 0. -1.
        -11    1    4    4    0    0  0.11699407046E+00 -0.17146556611E-01 -0.39489124148E-01  0.12466462599E+00  0.51100000000E-03 0.  1.
         11    1    4    4    0    0  0.13007408240E-02 -0.67351766865E-02 -0.12363334852E-01  0.14148063519E-01  0.51100000000E-03 0. -1.
</event>
<event>
 7    1  0.2825007E+004  0.1043930E+01  0.7957747E-01            NaN
         13   -1    0    0    0    0  0.00000000000E+00  0.00000000000E+00  0.74505805969E-08  0.10566000000E+00  0.10566000000E+00 0.  1.
     999900   -1    0    0    0    0 -0.00000000000E+00 -0.00000000000E+00 -0.74505805969E-08  0.93827000000E+00  0.93827000000E+00 0.  1.
     999903    2    1    2    0    0 -0.25254658479E-01 -0.24538816046E-01 -0.39942479872E-01  0.69106201552E-01  0.44048996887E-01 0.  0.
         14    1    1    2    0    0 -0.75961846617E-02  0.90595671848E-01  0.45960026839E-02  0.91029671095E-01  0.00000000000E+00 0.  1.
     999901    1    1    2    0    0  0.32850843140E-01 -0.66056855802E-01  0.35346477188E-01  0.88379412735E+00  0.88000000000E+00 0. -1.
        -11    1    3    3    0    0  0.79084061391E-02 -0.17891253999E-01 -0.44329444881E-02  0.20063697943E-01  0.51100000000E-03 0.  1.
         11    1    3    3    0    0 -0.33163064618E-01 -0.66475620467E-02 -0.35509535384E-01  0.49042503609E-01  0.51100000000E-03 0. -1.
</event>
<event>
 8    1  0.2825007E+004  0.1043930E+01  0.7957747E-01            NaN
         13   -1    0    0    0    0  0.00000000000E+00  0.00000000000E+00  0.74505805969E-08  0.10566000000E+00  0.10566000000E+00 0.  1.
     999900   -1    0    0    0    0 -0.00000000000E+00 -0.00000000000E+00 -0.74505805969E-08  0.93827000000E+00  0.93827000000E+00 0. -1.
     999902    2    1    2    0    0 -0.10867732649E-01 -0.56629346659E-02  0.86640580271E-02  0.10289219241E+01  0.10288124627E+01 0.  0.
     999903    2    3    3    0    0  0.41367400575E-01  0.11634612292E+00  0.46615856857E-01  0.13816098065E+00  0.40837927404E-01 0.  0.
         14    1    1    2    0    0  0.10867732649E-01  0.56629346659E-02 -0.86640580271E-02  0.15008075941E-01  0.00000000000E+00 0. -1.
     999901    1    3    3    0    0 -0.52235133224E-01 -0.12200905758E+00 -0.37951798830E-01  0.89076094341E+00  0.88000000000E+00 0. -1.
        -11    1    4    4    0    0  0.21693204968E-02  0.63651151626E-01  0.15838885136E-01  0.65630072818E-01  0.51100000000E-03 0. -1.
         11    1    4    4    0    0  0.39198080078E-01  0.52694971290E-01  0.30776971721E-01  0.72530907828E-01  0.51100000000E-03 0.  1.
</event>
<event>
 8    1  0.2825007E+004  0.1043930E+01  0.7957747E-01            NaN
         13   -1    0    0    0    0  0.00000000000E+00  0.00000000000E+00  0.74505805969E-08  0.10566000000E+00  0.10566000000E+00 0. -1.
     999900   -1    0    0    0    0 -0.00000000000E+00 -0.00000000000E+00 -0.74505805969E-08  0.93827000000E+00  0.93827000000E+00 0.  1.
     999902    2    1    2    0    0  0.23153016573E-01 -0.78834197847E-02  0.68407067900E-02  0.10185330365E+01  0.10182163526E+01 0.  0.
     999903    2    3    3    0    0 -0.12446896011E-01  0.74702208438E-01  0.95229115070E-01  0.12954470675E+00  0.44473604817E-01 0.  0.
         14    1    1    2    0    0 -0.23153016573E-01  0.78834197847E-02 -0.68407067900E-02  0.25396963466E-01  0.00000000000E+00 0. -1.
     999901    1    3    3    0    0  0.35599912584E-01 -0.82585628223E-01 -0.88388408280E-01  0.88898832978E+00  0.88000000000E+00 0.  1.
        -11    1    4    4    0    0 -0.38734212999E-02  0.24561695858E-01  0.41393175426E-02  0.25212603331E-01  0.51100000000E-03 0.  1.
         11    1    4    4    0    0 -0.85734747115E-02  0.50140512580E-01  0.91089797527E-01  0.10433210342E+00  0.51100000000E-03 0. -1.
</event>
<event>
 8    1  0.2825007E+004  0.1043930E+01  0.7957747E-01            NaN
         13   -1    0    0    0    0  0.00000000000E+00  0.00000000000E+00  0.74505805969E-08  0.10566000000E+00  0.10566000000E+00 0. -1.
     999900   -1    0    0    0    0 -0.00000000000E+00 -0.00000000000E+00 -0.74505805969E-08  0.93827000000E+00  0.93827000000E+00 0. -1.
     999902    2    1    2    0    0  0.12354277391E-01 -0.16257563009E-01  0.14266058378E-01  0.10190210268E+01  0.10187165435E+01 0.  0.
     999903    2    3    3    0    0 -0.12492747337E-01  0.68317969249E-01  0.10076216506E+00  0.13039738780E+00  0.45022785111E-01 0.  0.
         14    1    1    2    0    0 -0.12354277391E-01  0.16257563009E-01 -0.14266058378E-01  0.24908973212E-01  0.00000000000E+00 0. -1.
     999901    1    3    3    0    0  0.24847024728E-01 -0.84575532258E-01 -0.86496106684E-01  0.88862363899E+00  0.88000000000E+00 0. -1.
        -11    1    4    4    0    0 -0.39437638098E-02  0.36551310186E-01  0.87524285723E-01  0.94933204211E-01  0.51100000000E-03 0.  1.
         11    1    4    4    0    0 -0.85489835272E-02  0.31766659063E-01  0.13237879338E-01  0.35464183590E-01  0.51100000000E-03 0. -1.
</event>
<event>
 8    1  0.2825007E+004  0.1043930E+01  0.7957747E-01            NaN
         13   -1    0    0    0    0  0.00000000000E+00  0.00000000000E+00  0.74505805969E-08  0.10566000000E+00  0.10566000000E+00 0. -1.
     999900   -1    0    0    0    0 -0.00000000000E+00 -0.00000000000E+00 -0.74505805969E-08  0.93827000000E+00  0.93827000000E+00 0. -1.
     999902    2    1    2    0    0 -0.10956605025E-01  0.66945055287E-03 -0.87285500938E-02  0.10299056303E+01  0.10298101400E+01 0.  0.
     999903    2    3    3    0    0  0.13028885070E+00  0.12840969129E-01 -0.12532532574E-01  0.13855110215E+00  0.43580596942E-01 0.  0.
         14    1    1    2    0    0  0.10956605025E-01 -0.66945055287E-03  0.87285500938E-02  0.14024369664E-01  0.00000000000E+00 0. -1.
     999901    1    3    3    0    0 -0.14124545573E+00 -0.12171518576E-01  0.38039824801E-02  0.89135452818E+00  0.88000000000E+00 0.  1.
        -11    1    4    4    0    0  0.34038682689E-01  0.19690016124E-02 -0.22988657825E-01  0.41124790531E-01  0.51100000000E-03 0.  1.
         11    1    4    4    0    0  0.96250168013E-01  0.10871967517E-01  0.10456125251E-01  0.97426311623E-01  0.51100000000E-03 0. -1.
</event>
<event>
 8    1  0.2825007E+004  0.1043930E+01  0.7957747E-01            NaN
         13   -1    0    0    0    0  0.00000000000E+00  0.00000000000E+00  0.74505805969E-08  0.10566000000E+00  0.10566000000E+00 0.  1.
     999900   -1    0    0    0    0 -0.00000000000E+00 -0.00000000000E+00 -0.74505805969E-08  0.93827000000E+00  0.93827000000E+00 0.  1.
     999902    2    1    2    0    0 -0.75067206958E-02  0.12283404830E-01  0.59546601000E-03  0.10295221039E+01  0.10294212816E+01 0.  0.
     999903    2    3    3    0    0  0.49627206672E-01 -0.66631395837E-01  0.10093638730E+00  0.13847769879E+00  0.45665262808E-01 0.  0.
         14    1    1    2    0    0  0.75067206958E-02 -0.12283404830E-01 -0.59546601000E-03  0.14407896085E-01  0.00000000000E+00 0.  1.
     999901    1    3    3    0    0 -0.57133927368E-01  0.78914800667E-01 -0.10034092129E+00  0.89104440513E+00  0.88000000000E+00 0. -1.
        -11    1    4    4    0    0  0.30257935664E-02 -0.37889354937E-01  0.55798121838E-01  0.67516295558E-01  0.51100000000E-03 0.  1.
         11    1    4    4    0    0  0.46601413105E-01 -0.28742040900E-01  0.45138265463E-01  0.70961403231E-01  0.51100000000E-03 0. -1.
</event>
<event>
 8    1  0.2825007E+004  0.1043930E+01  0.7957747E-01            NaN
         13   -1    0    0    0    0  0.00000000000E+00  0.00000000000E+00  0.74505805969E-08  0.10566000000E+00  0.10566000000E+00 0.  1.
     999900   -1    0    0    0    0 -0.00000000000E+00 -0.00000000000E+00 -0.74505805969E-08  0.93827000000E+00  0.93827000000E+00 0.  1.
     999902    2    1    2    0    0  0.43294243469E-02 -0.10936432893E-01 -0.62941101658E-02  0.10305896363E+01  0.10305032912E+01 0.  0.
     999903    2    3    3    0    0 -0.12304014257E+00 -0.12693043951E-01  0.46703907664E-01  0.13984001824E+00  0.45541032754E-01 0.  0.
         14    1    1    2    0    0 -0.43294243469E-02  0.10936432893E-01  0.62941101658E-02  0.13340363652E-01  0.00000000000E+00 0.  1.
     999901    1    3    3    0    0  0.12736956691E+00  0.17566110581E-02 -0.52998017830E-01  0.89074961810E+00  0.88000000000E+00 0. -1.
        -11    1    4    4    0    0 -0.40606991894E-01 -0.25818229883E-01  0.13255014535E-01  0.49914580197E-01  0.51100000000E-03 0. -1.
         11    1    4    4    0    0 -0.82433150672E-01  0.13125185932E-01  0.33448893129E-01  0.89925438047E-01  0.51100000000E-03 0.  1.
</event>
<event>
 8    1  0.2825007E+004  0.1043930E+01  0.7957747E-01            NaN
         13   -1    0    0    0    0  0.00000000000E+00  0.00000000000E+00  0.74505805969E-08  0.10566000000E+00  0.10566000000E+00 0. -1.
     999900   -1    0    0    0    0 -0.00000000000E+00 -0.00000000000E+00 -0.74505805969E-08  0.93827000000E+00  0.93827000000E+00 0. -1.
     999902    2    1    2    0    0  0.89098154352E-02 -0.49169215938E-02  0.93555420079E-02  0.10301065744E+01  0.10300138191E+01 0.  0.
     999903    2    3    3    0    0  0.11368220461E+00  0.13604344670E-01 -0.67960017003E-01  0.14033245334E+00  0.44338602940E-01 0.  0.
         14    1    1    2    0    0 -0.89098154352E-02  0.49169215938E-02 -0.93555420079E-02  0.13823425600E-01  0.00000000000E+00 0. -1.
     999901    1    3    3    0    0 -0.10477238918E+00 -0.18521266264E-01  0.77315559011E-01  0.88977412106E+00  0.88000000000E+00 0.  1.
        -11    1    4    4    0    0  0.77354607594E-01  0.29676572868E-01 -0.42167991903E-01  0.92966848690E-01  0.51100000000E-03 0.  1.
         11    1    4    4    0    0  0.36327597019E-01 -0.16072228198E-01 -0.25792025100E-01  0.47365604653E-01  0.51100000000E-03 0. -1.
</event>
<event>
 8    1  0.2825007E+004  0.1043930E+01  0.7957747E-01            NaN
         13   -1    0    0    0    0  0.00000000000E+00  0.00000000000E+00  0.74505805969E-08  0.10566000000E+00  0.10566000000E+00 0. -1.
     999900   -1    0    0    0    0 -0.00000000000E+00 -0.00000000000E+00 -0.74505805969E-08  0.93827000000E+00  0.93827000000E+00 0. -1.
     999902    2    1    2    0    0 -0.41293453207E-02  0.23740752242E-02 -0.16075185330E-01  0.10271639835E+01  0.10270271417E+01 0.  0.
     999903    2    3    3    0    0 -0.81600718985E-01  0.10063965100E+00  0.12087283148E-01  0.13786591100E+00  0.45539985822E-01 0.  0.
         14    1    1    2    0    0  0.41293453207E-02 -0.23740752242E-02  0.16075185330E-01  0.16766016502E-01  0.00000000000E+00 0.  1.
     999901    1    3    3    0    0  0.77471373664E-01 -0.98265575779E-01 -0.28162468478E-01  0.88929807250E+00  0.88000000000E+00 0.  1.
        -11    1    4    4    0    0 -0.21615747153E-01  0.52220163482E-01  0.20929673896E-01  0.60270211295E-01  0.51100000000E-03 0. -1.
         11    1    4    4    0    0 -0.59984971831E-01  0.48419487521E-01 -0.88423907475E-02  0.77595699704E-01  0.51100000000E-03 0.  1.
</event>
<event>
 8    1  0.2825007E+004  0.1043930E+01  0.7957747E-01            NaN
         13   -1    0    0    0    0  0.00000000000E+00  0.00000000000E+00  0.74505805969E-08  0.10566000000E+00  0.10566000000E+00 0.  1.
     999900   -1    0    0    0    0 -0.00000000000E+00 -0.00000000000E+00 -0.74505805969E-08  0.93827000000E+00  0.93827000000E+00 0.  1.
     999902    2    1    2    0    0 -0.93006741856E-02 -0.56686834985E-02  0.66910835543E-02  0.10311469209E+01  0.10310676822E+01 0.  0.
     999903    2    3    3    0    0  0.12880813953E+00 -0.13816669124E-02 -0.30728679803E-01  0.13957939027E+00  0.44098850459E-01 0.  0.
         14    1    1    2    0    0  0.93006741856E-02  0.56686834985E-02 -0.66910835543E-02  0.12783079130E-01  0.00000000000E+00 0. -1.
     999901    1    3    3    0    0 -0.13810881372E+00 -0.42870165862E-02  0.37419763358E-01  0.89156753060E+00  0.88000000000E+00 0.  1.
        -11    1    4    4    0    0  0.74358097894E-01  0.19312488446E-01 -0.26118145473E-01  0.81145040368E-01  0.51100000000E-03 0.  1.
         11    1    4    4    0    0  0.54450041637E-01 -0.20694155358E-01 -0.46105343306E-02  0.58434349898E-01  0.51100000000E-03 0. -1.
</event>
<event>
 8    1  0.2825007E+004  0.1043930E+01  0.7957747E-01            NaN
         13   -1    0    0    0    0  0.00000000000E+00  0.00000000000E+00  0.74505805969E-08  0.10566000000E+00  0.10566000000E+00 0. -1.
     999900   -1    0    0    0    0 -0.00000000000E+00 -0.00000000000E+00 -0.74505805969E-08  0.93827000000E+00  0.93827000000E+00 0.  1.
     999902    2    1    2    0    0  0.30983033837E-02 -0.13187292646E-01  0.35971165498E-02  0.10299141726E+01  0.10298187993E+01 0.  0.
     999903    2    3    3    0    0  0.51550895081E-01 -0.53699495330E-01  0.11116280698E+00  0.14111764356E+00  0.44898653509E-01 0.  0.
         14    1    1    2    0    0 -0.30983033837E-02  0.13187292646E-01 -0.35971165498E-02  0.14015827434E-01  0.00000000000E+00 0. -1.
     999901    1    3    3    0    0 -0.48452591697E-01  0.40512202684E-01 -0.10756569043E+00  0.88879652900E+00  0.88000000000E+00 0.  1.
        -11    1    4    4    0    0  0.48493870676E-01 -0.61090639428E-01  0.93794568666E-01  0.12198935999E+00  0.51100000000E-03 0.  1.
         11    1    4    4    0    0  0.30570244046E-02  0.73911440976E-02  0.17368238314E-01  0.19128283572E-01  0.51100000000E-03 0. -1.
</event>
<event>
 8    1  0.2825007E+004  0.1043930E+01  0.7957747E-01            NaN
         13   -1    0    0    0    0  0.00000000000E+00  0.00000000000E+00  0.74505805969E-08  0.10566000000E+00  0.10566000000E+00 0. -1.
     999900   -1    0    0    0    0 -0.00000000000E+00 -0.00000000000E+00 -0.74505805969E-08  0.93827000000E+00  0.93827000000E+00 0.  1.
     999902    2    1    2    0    0 -0.78108076571E-02 -0.85569401357E-02 -0.65154093616E-02  0.10306378783E+01  0.10305521606E+01 0.  0.
     999903    2    3    3    0    0 -0.91122348084E-01  0.84781836063E-01  0.46154287675E-01  0.14022952426E+00  0.45197999491E-01 0.  0.
         14    1    1    2    0    0  0.78108076571E-02  0.85569401357E-02  0.65154093616E-02  0.13292121723E-01  0.00000000000E+00 0. -1.
     999901    1    3    3    0    0  0.83311540427E-01 -0.93338776199E-01 -0.52669697037E-01  0.89040835401E+00  0.88000000000E+00 0. -1.
        -11    1    4    4    0    0 -0.59240402301E-01  0.78784518252E-01  0.25676445162E-01  0.10186248838E+00  0.51100000000E-03 0.  1.
         11    1    4    4    0    0 -0.31881945783E-01  0.59973178110E-02  0.20477842513E-01  0.38367035888E-01  0.51100000000E-03 0. -1.
</event>
<event>
 8    1  0.2825007E+004  0.1043930E+01  0.7957747E-01            NaN
         13   -1    0    0    0    0  0.00000000000E+00  0.00000000000E+00  0.74505805969E-08  0.10566000000E+00  0.10566000000E+00 0.  1.
     999900   -1    0    0    0    0 -0.00000000000E+00 -0.00000000000E+00 -0.74505805969E-08  0.93827000000E+00  0.93827000000E+00 0.  1.
     999902    2    1    2    0    0  0.11208061827E-01  0.55124096465E-02  0.76565121103E-02  0.10292797615E+01  0.10291754943E+01 0.  0.
     999903    2    3    3    0    0 -0.12389630882E+00 -0.37450026590E-01 -0.25422798597E-01  0.13731944698E+00  0.38177375499E-01 0.  0.
         14    1    1    2    0    0 -0.11208061827E-01 -0.55124096465E-02 -0.76565121103E-02  0.14650238487E-01  0.00000000000E+00 0. -1.
     999901    1    3    3    0    0  0.13510437065E+00  0.42962436236E-01  0.33079310707E-01  0.89196031453E+00  0.88000000000E+00 0.  1.
        -11    1    4    4    0    0 -0.53473088593E-01 -0.94418395893E-02 -0.28774332807E-01  0.61455210421E-01  0.51100000000E-03 0.  1.
         11    1    4    4    0    0 -0.70423220231E-01 -0.28008187000E-01  0.33515342100E-02  0.75864236563E-01  0.51100000000E-03 0. -1.
</event>
<event>
 8    1  0.2825007E+004  0.1043930E+01  0.7957747E-01            NaN
         13   -1    0    0    0    0  0.00000000000E+00  0.00000000000E+00  0.74505805969E-08  0.10566000000E+00  0.10566000000E+00 0. -1.
     999900   -1    0    0    0    0 -0.00000000000E+00 -0.00000000000E+00 -0.74505805969E-08  0.93827000000E+00  0.93827000000E+00 0.  1.
     999902    2    1    2    0    0  0.14584570978E-02 -0.53380336395E-02 -0.12056543673E-01  0.10306641813E+01  0.10305788047E+01 0.  0.
     999903    2    3    3    0    0  0.52117346451E-01 -0.16318667417E-01 -0.12352134631E+00  0.14211969755E+00  0.44248940428E-01 0.  0.
         14    1    1    2    0    0 -0.14584570978E-02  0.53380336395E-02  0.12056543673E-01  0.13265818692E-01  0.00000000000E+00 0. -1.
     999901    1    3    3    0    0 -0.50658889354E-01  0.10980633777E-01  0.11146480264E+00  0.88854448376E+00  0.88000000000E+00 0. -1.
        -11    1    4    4    0    0  0.47759877516E-01 -0.25946617354E-01 -0.76014541172E-01  0.93448940299E-01  0.51100000000E-03 0.  1.
         11    1    4    4    0    0  0.43574689354E-02  0.96279499377E-02 -0.47506805142E-01  0.48670757251E-01  0.51100000000E-03 0. -1.
</event>
<event>
 8    1  0.2825007E+004  0.1043930E+01  0.7957747E-01            NaN
         13   -1    0    0    0    0  0.00000000000E+00  0.00000000000E+00  0.74505805969E-08  0.10566000000E+00  0.10566000000E+00 0.  1.
     999900   -1    0    0    0    0 -0.00000000000E+00 -0.00000000000E+00 -0.74505805969E-08  0.93827000000E+00  0.93827000000E+00 0. -1.
     999902    2    1    2    0    0  0.26784527742E-02  0.60134186222E-02 -0.12184205852E-01  0.10300811667E+01  0.10299880678E+01 0.  0.
     999903    2    3    3    0    0 -0.64530462664E-01 -0.11429039139E+00  0.97060365582E-02  0.13908777289E+00  0.44996969300E-01 0.  0.
         14    1    1    2    0    0 -0.26784527742E-02 -0.60134186222E-02  0.12184205852E-01  0.13848833345E-01  0.00000000000E+00 0.  1.
     999901    1    3    3    0    0  0.67208915438E-01  0.12030381001E+00 -0.21890242410E-01  0.89099339376E+00  0.88000000000E+00 0.  1.
        -11    1    4    4    0    0 -0.64574393887E-02 -0.54373682926E-01  0.98919539399E-02  0.55644476744E-01  0.51100000000E-03 0. -1.
         11    1    4    4    0    0 -0.58073023275E-01 -0.59916708465E-01 -0.18591738175E-03  0.83443296147E-01  0.51100000000E-03 0.  1.
</event>
<event>
 8    1  0.2825007E+004  0.1043930E+01  0.7957747E-01            NaN
         13   -1    0    0    0    0  0.00000000000E+00  0.00000000000E+00  0.74505805969E-08  0.10566000000E+00  0.10566000000E+00 0. -1.
     999900   -1    0    0    0    0 -0.00000000000E+00 -0.00000000000E+00 -0.74505805969E-08  0.93827000000E+00  0.93827000000E+00 0. -1.
     999902    2    1    2    0    0  0.21236912005E-02 -0.14865222381E-01  0.27768614870E-03  0.10289112780E+01  0.10288016602E+01 0.  0.
     999903    2    3    3    0    0 -0.31427701385E-01 -0.10173930596E-01 -0.12733385133E+00  0.13906162292E+00  0.45088978652E-01 0.  0.
         14    1    1    2    0    0 -0.21236912005E-02  0.14865222381E-01 -0.27768614870E-03  0.15018721995E-01  0.00000000000E+00 0. -1.
     999901    1    3    3    0    0  0.33551392586E-01 -0.46912917855E-02  0.12761153748E+00  0.88984965509E+00  0.88000000000E+00 0.  1.
        -11    1    4    4    0    0 -0.17437238604E-01  0.17464843938E-01 -0.62754025144E-01  0.67434463419E-01  0.51100000000E-03 0.  1.
         11    1    4    4    0    0 -0.13990462781E-01 -0.27638774534E-01 -0.64579826185E-01  0.71627159498E-01  0.51100000000E-03 0. -1.
</event>
<event>
 8    1  0.2825007E+004  0.1043930E+01  0.7957747E-01            NaN
         13   -1    0    0    0    0  0.00000000000E+00  0.00000000000E+00  0.74505805969E-08  0.10566000000E+00  0.10566000000E+00 0. -1.
     999900   -1    0    0    0    0 -0.00000000000E+00 -0.00000000000E+00 -0.74505805969E-08  0.93827000000E+00  0.93827000000E+00 0.  1.
     999902    2    1    2    0    0 -0.67016624846E-02  0.11762791164E-01 -0.56613808192E-03  0.10303802381E+01  0.10302911428E+01 0.  0.
     999903    2    3    3    0    0  0.11532519783E+00 -0.59365056162E-01 -0.22137016307E-01  0.13885624619E+00  0.44349729066E-01 0.  0.
         14    1    1    2    0    0  0.67016624846E-02 -0.11762791164E-01  0.56613808192E-03  0.13549761930E-01  0.00000000000E+00 0. -1.
     999901    1    3    3    0    0 -0.12202686032E+00  0.71127847326E-01  0.21570878225E-01  0.89152399188E+00  0.88000000000E+00 0.  1.
        -11    1    4    4    0    0  0.95310558968E-01 -0.34435906772E-01 -0.30453552107E-01  0.10581878039E+00  0.51100000000E-03 0. -1.
         11    1    4    4    0    0  0.20014638863E-01 -0.24929149389E-01  0.83165358005E-02  0.33037465805E-01  0.51100000000E-03 0.  1.
</event>
<event>
 8    1  0.2825007E+004  0.1043930E+01  0.7957747E-01            NaN
         13   -1    0    0    0    0  0.00000000000E+00  0.00000000000E+00  0.74505805969E-08  0.10566000000E+00  0.10566000000E+00 0. -1.
     999900   -1    0    0    0    0 -0.00000000000E+00 -0.00000000000E+00 -0.74505805969E-08  0.93827000000E+00  0.93827000000E+00 0.  1.
     999902    2    1    2    0    0  0.26062425841E-02 -0.13888321426E-01  0.34979281255E-02  0.10293727519E+01  0.10292698134E+01 0.  0.
     999903    2    3    3    0    0  0.76913316498E-01  0.91048660544E-01  0.55598227153E-01  0.13850365228E+00  0.43434801601E-01 0.  0.
         14    1    1    2    0    0 -0.26062425841E-02  0.13888321426E-01 -0.34979281255E-02  0.14557248147E-01  0.00000000000E+00 0.  1.
     999901    1    3    3    0    0 -0.74307073914E-01 -0.10493698197E+00 -0.52100299028E-01  0.89086909957E+00  0.88000000000E+00 0. -1.
        -11    1    4    4    0    0  0.29764964165E-01  0.59406253805E-01  0.13472952938E-01  0.67799982778E-01  0.51100000000E-03 0. -1.
         11    1    4    4    0    0  0.47148352333E-01  0.31642406740E-01  0.42125274216E-01  0.70703669500E-01  0.51100000000E-03 0.  1.
</event>
<event>
 8    1  0.2825007E+004  0.1043930E+01  0.7957747E-01            NaN
         13   -1    0    0    0    0  0.00000000000E+00  0.00000000000E+00  0.74505805969E-08  0.10566000000E+00  0.10566000000E+00 0. -1.
     999900   -1    0    0    0    0 -0.00000000000E+00 -0.00000000000E+00 -0.74505805969E-08  0.93827000000E+00  0.93827000000E+00 0. -1.
     999902    2    1    2    0    0 -0.15417984216E-02 -0.86248828055E-02 -0.18517682046E-01  0.10234441440E+01  0.10232390951E+01 0.  0.
     999903    2    3    3    0    0 -0.20053838122E-01 -0.71533135503E-01  0.10070424115E+00  0.13298695202E+00  0.45000436916E-01 0.  0.
         14    1    1    2    0    0  0.15417984216E-02  0.86248828055E-02  0.18517682046E-01  0.20485855953E-01  0.00000000000E+00 0. -1.
     999901    1    3    3    0    0  0.18512039700E-01  0.62908252697E-01 -0.11922192319E+00  0.89045719203E+00  0.88000000000E+00 0. -1.
        -11    1    4    4    0    0 -0.23069908695E-01 -0.62356744106E-01  0.55055674575E-01  0.86324808987E-01  0.51100000000E-03 0.  1.
         11    1    4    4    0    0  0.30160705733E-02 -0.91763913973E-02  0.45648566573E-01  0.46662143028E-01  0.51100000000E-03 0. -1.
</event>
<event>
 8    1  0.2825007E+004  0.1043930E+01  0.7957747E-01            NaN
         13   -1    0    0    0    0  0.00000000000E+00  0.00000000000E+00  0.74505805969E-08  0.10566000000E+00  0.10566000000E+00 0. -1.
     999900   -1    0    0    0    0 -0.00000000000E+00 -0.00000000000E+00 -0.74505805969E-08  0.93827000000E+00  0.93827000000E+00 0. -1.
     999902    2    1    2    0    0  0.33109388667E-02 -0.14385216452E-01 -0.13252857506E-02  0.10291092999E+01  0.10290025744E+01 0.  0.
     999903    2    3    3    0    0  0.11885623571E+00  0.28146930564E-01 -0.50207885820E-01  0.13919401870E+00  0.43989641711E-01 0.  0.
         14    1    1    2    0    0 -0.33109388667E-02  0.14385216452E-01  0.13252857506E-02  0.14820700080E-01  0.00000000000E+00 0. -1.
     999901    1    3    3    0    0 -0.11554529684E+00 -0.42532147016E-01  0.48882600069E-01  0.88991528122E+00  0.88000000000E+00 0.  1.
        -11    1    4    4    0    0  0.69255008054E-01 -0.54610229054E-02 -0.21270065894E-01  0.72655046184E-01  0.51100000000E-03 0. -1.
         11    1    4    4    0    0  0.49601227653E-01  0.33607953469E-01 -0.28937819925E-01  0.66538972521E-01  0.51100000000E-03 0.  1.
</event>
<event>
 8    1  0.2825007E+004  0.1043930E+01  0.7957747E-01            NaN
         13   -1    0    0    0    0  0.00000000000E+00  0.00000000000E+00  0.74505805969E-08  0.10566000000E+00  0.10566000000E+00 0. -1.
     999900   -1    0    0    0    0 -0.00000000000E+00 -0.00000000000E+00 -0.74505805969E-08  0.93827000000E+00  0.93827000000E+00 0. -1.
     999902    2    1    2    0    0 -0.10163258290E-01  0.46762377194E-02 -0.88666673023E-02  0.10296549586E+01  0.10295559999E+01 0.  0.
     999903    2    3    3    0    0 -0.87761001780E-02  0.30567716771E-01 -0.12972215101E+00  0.14101648269E+00  0.45237226774E-01 0.  0.
         14    1    1    2    0    0  0.10163258290E-01 -0.46762377194E-02  0.88666673023E-02  0.14275041412E-01  0.00000000000E+00 0. -1.
     999901    1    3    3    0    0 -0.13871581120E-02 -0.25891479052E-01  0.12085548371E+00  0.88863847589E+00  0.88000000000E+00 0.  1.
        -11    1    4    4    0    0 -0.26401331736E-01  0.12648262627E-01 -0.57156914532E-01  0.64219801189E-01  0.51100000000E-03 0. -1.
         11    1    4    4    0    0  0.17625231558E-01  0.17919454144E-01 -0.72565236477E-01  0.76796681505E-01  0.51100000000E-03 0.  1.
</event>
<event>
 8    1  0.2825007E+004  0.1043930E+01  0.7957747E-01            NaN
         13   -1    0    0    0    0  0.00000000000E+00  0.00000000000E+00  0.74505805969E-08  0.10566000000E+00  0.10566000000E+00 0. -1.
     999900   -1    0    0    0    0 -0.00000000000E+00 -0.00000000000E+00 -0.74505805969E-08  0.93827000000E+00  0.93827000000E+00 0.  1.
     999902    2    1    2    0    0 -0.10370455000E-01  0.17906731638E-03  0.91952569147E-02  0.10300688618E+01  0.10299755963E+01 0.  0.
     999903    2    3    3    0    0 -0.47185393331E-01  0.12398783173E+00 -0.84326353281E-02  0.14046519028E+00  0.45386303893E-01 0.  0.
         14    1    1    2    0    0  0.10370455000E-01 -0.17906731638E-03 -0.91952569147E-02  0.13861138183E-01  0.00000000000E+00 0.  1.
     999901    1    3    3    0    0  0.36814938331E-01 -0.12380876441E+00  0.17627892243E-01  0.88960367154E+00  0.88000000000E+00 0.  1.
        -11    1    4    4    0    0 -0.40809619681E-01  0.68042100172E-01 -0.22407092978E-01  0.82446900433E-01  0.51100000000E-03 0. -1.
         11    1    4    4    0    0 -0.63757736499E-02  0.55945731556E-01  0.13974457650E-01  0.58018289845E-01  0.51100000000E-03 0.  1.
</event>
<event>
 8    1  0.2825007E+004  0.1043930E+01  0.7957747E-01            NaN
         13   -1    0    0    0    0  0.00000000000E+00  0.00000000000E+00  0.74505805969E-08  0.10566000000E+00  0.10566000000E+00 0.  1.
     999900   -1    0    0    0    0 -0.00000000000E+00 -0.00000000000E+00 -0.74505805969E-08  0.93827000000E+00  0.93827000000E+00 0. -1.
     999902    2    1    2    0    0  0.16003118335E-02 -0.11057194001E-01 -0.90425703856E-02  0.10295567395E+01  0.10294564048E+01 0.  0.
     999903    2    3    3    0    0  0.63319032413E-01 -0.41119052278E-01 -0.11041670565E+00  0.14108072349E+00  0.44853598814E-01 0.  0.
         14    1    1    2    0    0 -0.16003118335E-02  0.11057194001E-01  0.90425703856E-02  0.14373260463E-01  0.00000000000E+00 0.  1.
     999901    1    3    3    0    0 -0.61718720580E-01  0.30061858277E-01  0.10137413527E+00  0.88847601605E+00  0.88000000000E+00 0.  1.
        -11    1    4    4    0    0  0.86174630636E-02 -0.28811214728E-01 -0.52252365066E-01  0.60290277324E-01  0.51100000000E-03 0. -1.
         11    1    4    4    0    0  0.54701569349E-01 -0.12307837550E-01 -0.58164340588E-01  0.80790446165E-01  0.51100000000E-03 0.  1.
</event>
<event>
 8    1  0.2825007E+004  0.1043930E+01  0.7957747E-01            NaN
         13   -1    0    0    0    0  0.00000000000E+00  0.00000000000E+00  0.74505805969E-08  0.10566000000E+00  0.10566000000E+00 0. -1.
     999900   -1    0    0    0    0 -0.00000000000E+00 -0.00000000000E+00 -0.74505805969E-08  0.93827000000E+00  0.93827000000E+00 0.  1.
     999902    2    1    2    0    0  0.12137966979E-01  0.37939464342E-02 -0.16156913962E-02  0.10311106892E+01  0.10310309979E+01 0.  0.
     999903    2    3    3    0    0 -0.69486838432E-01  0.10237038264E+00 -0.48336130176E-01  0.14062614575E+00  0.46165088885E-01 0.  0.
         14    1    1    2    0    0 -0.12137966979E-01 -0.37939464342E-02  0.16156913962E-02  0.12819310848E-01  0.00000000000E+00 0.  1.
     999901    1    3    3    0    0  0.81624805411E-01 -0.98576436205E-01  0.46720438780E-01  0.89048454340E+00  0.88000000000E+00 0.  1.
        -11    1    4    4    0    0 -0.44352539682E-01  0.84602887856E-01 -0.17616042828E-01  0.97135897050E-01  0.51100000000E-03 0.  1.
         11    1    4    4    0    0 -0.25134298750E-01  0.17767494784E-01 -0.30720087347E-01  0.43490248702E-01  0.51100000000E-03 0. -1.
</event>
<event>
 8    1  0.2825007E+004  0.1043930E+01  0.7957747E-01            NaN
         13   -1    0    0    0    0  0.00000000000E+00  0.00000000000E+00  0.74505805969E-08  0.10566000000E+00  0.10566000000E+00 0. -1.
     999900   -1    0    0    0    0 -0.00000000000E+00 -0.00000000000E+00 -0.74505805969E-08  0.93827000000E+00  0.93827000000E+00 0. -1.
     999902    2    1    2    0    0  0.38112068995E-02  0.35905163368E-02  0.12067589507E-01  0.10307753878E+01  0.10306914457E+01 0.  0.
     999903    2    3    3    0    0 -0.50632204406E-01 -0.11969710119E+00 -0.24298858254E-01  0.13977233495E+00  0.45330507910E-01 0.  0.
         14    1    1    2    0    0 -0.38112068995E-02 -0.35905163368E-02 -0.12067589507E-01  0.13154612199E-01  0.00000000000E+00 0.  1.
     999901    1    3    3    0    0  0.54443411305E-01  0.12328761753E+00  0.36366447761E-01  0.89100305285E+00  0.88000000000E+00 0.  1.
        -11    1    4    4    0    0 -0.12991053485E-01 -0.58558316809E-01 -0.31252761335E-01  0.67637564638E-01  0.51100000000E-03 0. -1.
         11    1    4    4    0    0 -0.37641150921E-01 -0.61138784384E-01  0.69539030807E-02  0.72134770310E-01  0.51100000000E-03 0.  1.
</event>
<event>
 8    1  0.2825007E+004  0.1043930E+01  0.7957747E-01            NaN
         13   -1    0    0    0    0  0.00000000000E+00  0.00000000000E+00  0.74505805969E-08  0.10566000000E+00  0.10566000000E+00 0. -1.
     999900   -1    0    0    0    0 -0.00000000000E+00 -0.00000000000E+00 -0.74505805969E-08  0.93827000000E+00  0.93827000000E+00 0. -1.
     999902    2    1    2    0    0  0.90043028315E-02  0.94907913297E-02  0.52684909120E-02  0.10298264690E+01  0.10297298902E+01 0.  0.
     999903    2    3    3    0    0  0.11089654718E+00 -0.67678066444E-01 -0.27906064824E-01  0.13997388954E+00  0.43995186591E-01 0.  0.
         14    1    1    2    0    0 -0.90043028315E-02 -0.94907913297E-02 -0.52684909120E-02  0.14103530978E-01  0.00000000000E+00 0.  1.
     999901    1    3    3    0    0 -0.10189224435E+00  0.77168857774E-01  0.33174555736E-01  0.88985257949E+00  0.88000000000E+00 0. -1.
        -11    1    4    4    0    0  0.63222466592E-01 -0.13236460469E-01 -0.93748599108E-02  0.65271994662E-01  0.51100000000E-03 0.  1.
         11    1    4    4    0    0  0.47674080591E-01 -0.54441605975E-01 -0.18531204913E-01  0.74701894875E-01  0.51100000000E-03 0. -1.
</event>
<event>
 8    1  0.2825007E+004  0.1043930E+01  0.7957747E-01            NaN
         13   -1    0    0    0    0  0.00000000000E+00  0.00000000000E+00  0.74505805969E-08  0.10566000000E+00  0.10566000000E+00 0. -1.
     999900   -1    0    0    0    0 -0.00000000000E+00 -0.00000000000E+00 -0.74505805969E-08  0.93827000000E+00  0.93827000000E+00 0.  1.
     999902    2    1    2    0    0  0.27658184156E-03  0.11017009719E-01  0.67200854610E-02  0.10310222291E+01  0.10309414272E+01 0.  0.
     999903    2    3    3    0    0  0.26637270771E-01  0.42747043513E-01 -0.12359219680E+00  0.14047016894E+00  0.43817614368E-01 0.  0.
         14    1    1    2    0    0 -0.27658184156E-03 -0.11017009719E-01 -0.67200854610E-02  0.12907770887E-01  0.00000000000E+00 0.  1.
     999901    1    3    3    0    0 -0.26360688930E-01 -0.31730033794E-01  0.13031228226E+00  0.89055206017E+00  0.88000000000E+00 0. -1.
        -11    1    4    4    0    0  0.20394085234E-01  0.51147496157E-02 -0.79163108852E-01  0.81909329751E-01  0.51100000000E-03 0. -1.
         11    1    4    4    0    0  0.62431855371E-02  0.37632293898E-01 -0.44429087951E-01  0.58560839191E-01  0.51100000000E-03 0.  1.
</event>
<event>
 8    1  0.2825007E+004  0.1043930E+01  0.7957747E-01            NaN
         13   -1    0    0    0    0  0.00000000000E+00  0.00000000000E+00  0.74505805969E-08  0.10566000000E+00  0.10566000000E+00 0. -1.
     999900   -1    0    0    0    0 -0.00000000000E+00 -0.00000000000E+00 -0.74505805969E-08  0.93827000000E+00  0.93827000000E+00 0. -1.
     999902    2    1    2    0    0  0.10108215154E-01 -0.21850462208E-02 -0.89873976626E-02  0.10302287680E+01  0.10301376562E+01 0.  0.
     999903    2    3    3    0    0  0.89519368890E-01 -0.77865538459E-01 -0.63445230135E-01  0.14174729735E+00  0.44612101406E-01 0.  0.
         14    1    1    2    0    0 -0.10108215154E-01  0.21850462208E-02  0.89873976626E-02  0.13701231964E-01  0.00000000000E+00 0. -1.
     999901    1    3    3    0    0 -0.79411153736E-01  0.75680492238E-01  0.54457832472E-01  0.88848147069E+00  0.88000000000E+00 0.  1.
        -11    1    4    4    0    0  0.84699868378E-01 -0.51319275985E-01 -0.43378168410E-01  0.10811874216E+00  0.51100000000E-03 0. -1.
         11    1    4    4    0    0  0.48195005118E-02 -0.26546262474E-01 -0.20067061725E-01  0.33628555184E-01  0.51100000000E-03 0.  1.
</event>
<event>
 8    1  0.2825007E+004  0.1043930E+01  0.7957747E-01            NaN
         13   -1    0    0    0    0  0.00000000000E+00  0.00000000000E+00  0.74505805969E-08  0.10566000000E+00  0.10566000000E+00 0.  1.
     999900   -1    0    0    0    0 -0.00000000000E+00 -0.00000000000E+00 -0.74505805969E-08  0.93827000000E+00  0.93827000000E+00 0.  1.
     999902    2    1    2    0    0 -0.29147446320E-02 -0.55868810321E-03  0.13754909435E-01  0.10298585608E+01  0.10297624239E+01 0.  0.
     999903    2    3    3    0    0  0.12178837510E+00  0.11374936908E-01  0.51883475851E-01  0.14016925148E+00  0.44651164545E-01 0.  0.
         14    1    1    2    0    0  0.29147446320E-02  0.55868810321E-03 -0.13754909435E-01  0.14071439238E-01  0.00000000000E+00 0. -1.
     999901    1    3    3    0    0 -0.12470311973E+00 -0.11933625012E-01 -0.38128566416E-01  0.88968930928E+00  0.88000000000E+00 0.  1.
        -11    1    4    4    0    0  0.70427239701E-01  0.28124663824E-01  0.25208359588E-01  0.79916927626E-01  0.51100000000E-03 0.  1.
         11    1    4    4    0    0  0.51361135396E-01 -0.16749726916E-01  0.26675116263E-01  0.60252323852E-01  0.51100000000E-03 0. -1.
</event>
<event>
 8    1  0.2825007E+004  0.1043930E+01  0.7957747E-01            NaN
         13   -1    0    0    0    0  0.00000000000E+00  0.00000000000E+00  0.74505805969E-08  0.10566000000E+00  0.10566000000E+00 0.  1.
     999900   -1    0    0    0    0 -0.00000000000E+00 -0.00000000000E+00 -0.74505805969E-08  0.93827000000E+00  0.93827000000E+00 0. -1.
     999902    2    1    2    0    0  0.92905131630E-02  0.37864334401E-02  0.10774897239E-01  0.10292075979E+01  0.10291022935E+01 0.  0.
     999903    2    3    3    0    0  0.18929482042E-01 -0.10543702195E+00 -0.74950596249E-01  0.13826902922E+00  0.45004907235E-01 0.  0.
         14    1    1    2    0    0 -0.92905131630E-02 -0.37864334401E-02 -0.10774897239E-01  0.14722402098E-01  0.00000000000E+00 0. -1.
     999901    1    3    3    0    0 -0.96389688786E-02  0.10922345539E+00  0.85725493488E-01  0.89093856868E+00  0.88000000000E+00 0.  1.
        -11    1    4    4    0    0  0.11816811469E-01 -0.42799559435E-01 -0.59416703730E-02  0.44799596973E-01  0.51100000000E-03 0.  1.
         11    1    4    4    0    0  0.71126705729E-02 -0.62637462517E-01 -0.69008925876E-01  0.93469432248E-01  0.51100000000E-03 0. -1.
</event>
<event>
 8    1  0.2825007E+004  0.1043930E+01  0.7957747E-01            NaN
         13   -1    0    0    0    0  0.00000000000E+00  0.00000000000E+00  0.74505805969E-08  0.10566000000E+00  0.10566000000E+00 0. -1.
     999900   -1    0    0    0    0 -0.00000000000E+00 -0.00000000000E+00 -0.74505805969E-08  0.93827000000E+00  0.93827000000E+00 0.  1.
     999902    2    1    2    0    0  0.34450060070E-02 -0.91944730854E-02 -0.10354113835E-01  0.10296606596E+01  0.10295617805E+01 0.  0.
     999903    2    3    3    0    0  0.94988974412E-02 -0.14911593984E-02  0.13025423078E+00  0.13844424526E+00  0.45915049816E-01 0.  0.
         14    1    1    2    0    0 -0.34450060070E-02  0.91944730854E-02  0.10354113835E-01  0.14269340385E-01  0.00000000000E+00 0. -1.
     999901    1    3    3    0    0 -0.60538914342E-02 -0.77033136870E-02 -0.14060834462E+00  0.89121641436E+00  0.88000000000E+00 0.  1.
        -11    1    4    4    0    0 -0.67292829403E-02  0.18418200385E-01  0.39181480224E-01  0.43817380887E-01  0.51100000000E-03 0. -1.
         11    1    4    4    0    0  0.16228180382E-01 -0.19909359783E-01  0.91072750558E-01  0.94626864371E-01  0.51100000000E-03 0.  1.
</event>
<event>
 8    1  0.2825007E+004  0.1043930E+01  0.7957747E-01            NaN
         13   -1    0    0    0    0  0.00000000000E+00  0.00000000000E+00  0.74505805969E-08  0.10566000000E+00  0.10566000000E+00 0.  1.
     999900   -1    0    0    0    0 -0.00000000000E+00 -0.00000000000E+00 -0.74505805969E-08  0.93827000000E+00  0.93827000000E+00 0. -1.
     999902    2    1    2    0    0 -0.48054826634E-02 -0.28939154265E-02 -0.16520218315E-01  0.10264833664E+01  0.10263350898E+01 0.  0.
     999903    2    3    3    0    0  0.11191497262E-01  0.16096696353E-01  0.12539578532E+00  0.13476777342E+00  0.45319935290E-01 0.  0.
         14    1    1    2    0    0  0.48054826634E-02  0.28939154265E-02  0.16520218315E-01  0.17446633581E-01  0.00000000000E+00 0.  1.
     999901    1    3    3    0    0 -0.15996979925E-01 -0.18990611779E-01 -0.14191600363E+00  0.89171559299E+00  0.88000000000E+00 0. -1.
        -11    1    4    4    0    0  0.54104356437E-02 -0.15918801630E-01  0.44590207456E-01  0.47657410559E-01  0.51100000000E-03 0.  1.
         11    1    4    4    0    0  0.57810616182E-02  0.32015497983E-01  0.80805577859E-01  0.87110362866E-01  0.51100000000E-03 0. -1.
</event>
<event>
 8    1  0.2825007E+004  0.1043930E+01  0.7957747E-01            NaN
         13   -1    0    0    0    0  0.00000000000E+00  0.00000000000E+00  0.74505805969E-08  0.10566000000E+00  0.10566000000E+00 0.  1.
     999900   -1    0    0    0    0 -0.00000000000E+00 -0.00000000000E+00 -0.74505805969E-08  0.93827000000E+00  0.93827000000E+00 0. -1.
     999902    2    1    2    0    0  0.60721329461E-02  0.37764910860E-02  0.13580083538E-01  0.10285823177E+01  0.10284678084E+01 0.  0.
     999903    2    3    3    0    0 -0.11171624582E-01  0.11717441279E+00 -0.57019211919E-01  0.13833476990E+00  0.45062954062E-01 0.  0.
         14    1    1    2    0    0 -0.60721329461E-02 -0.37764910860E-02 -0.13580083538E-01  0.15347682311E-01  0.00000000000E+00 0. -1.
     999901    1    3    3    0    0  0.17243757528E-01 -0.11339792170E+00  0.70599295457E-01  0.89024754779E+00  0.88000000000E+00 0.  1.
        -11    1    4    4    0    0 -0.26210703110E-02  0.21226502242E-01 -0.32541223310E-01  0.38943892236E-01  0.51100000000E-03 0.  1.
         11    1    4    4    0    0 -0.85505542708E-02  0.95947910544E-01 -0.24477988610E-01  0.99390877667E-01  0.51100000000E-03 0. -1.
</event>
<event>
 8    1  0.2825007E+004  0.1043930E+01  0.7957747E-01            NaN
         13   -1    0    0    0    0  0.00000000000E+00  0.00000000000E+00  0.74505805969E-08  0.10566000000E+00  0.10566000000E+00 0.  1.
     999900   -1    0    0    0    0 -0.00000000000E+00 -0.00000000000E+00 -0.74505805969E-08  0.93827000000E+00  0.93827000000E+00 0.  1.
     999902    2    1    2    0    0  0.79323369997E-03  0.11868294573E-01  0.16687791925E-02  0.10319187361E+01  0.10318488298E+01 0.  0.
     999903    2    3    3    0    0 -0.25727364491E-01  0.12684998190E+00  0.41470042625E-01  0.14315089742E+00  0.44939957785E-01 0.  0.
         14    1    1    2    0    0 -0.79323369997E-03 -0.11868294573E-01 -0.16687791925E-02  0.12011263871E-01  0.00000000000E+00 0. -1.
     999901    1    3    3    0    0  0.26520598191E-01 -0.11498168733E+00 -0.39801263432E-01  0.88876783871E+00  0.88000000000E+00 0. -1.
        -11    1    4    4    0    0 -0.27067625886E-01  0.68000313356E-01  0.38559692945E-02  0.73292759586E-01  0.51100000000E-03 0.  1.
         11    1    4    4    0    0  0.13402613944E-02  0.58849668545E-01  0.37614073330E-01  0.69858137836E-01  0.51100000000E-03 0. -1.
</event>
<event>
 8    1  0.2825007E+004  0.1043930E+01  0.7957747E-01            NaN
         13   -1    0    0    0    0  0.00000000000E+00  0.00000000000E+00  0.74505805969E-08  0.10566000000E+00  0.10566000000E+00 0. -1.
     999900   -1    0    0    0    0 -0.00000000000E+00 -0.00000000000E+00 -0.74505805969E-08  0.93827000000E+00  0.93827000000E+00 0.  1.
     999902    2    1    2    0    0 -0.12392210964E-01 -0.59436841621E-02  0.23280045519E-02  0.10299903487E+01  0.10298960163E+01 0.  0.
     999903    2    3    3    0    0 -0.20063915293E-01 -0.13114041389E-01  0.13105175621E+00  0.14056352576E+00  0.44821905266E-01 0.  0.
         14    1    1    2    0    0  0.12392210964E-01  0.59436841621E-02 -0.23280045519E-02  0.13939651329E-01  0.00000000000E+00 0. -1.
     999901    1    3    3    0    0  0.76717043298E-02  0.71703572264E-02 -0.12872375165E+00  0.88942682291E+00  0.88000000000E+00 0.  1.
        -11    1    4    4    0    0 -0.26164690204E-01  0.45540680023E-02  0.10614869730E+00  0.10942183333E+00  0.51100000000E-03 0.  1.
         11    1    4    4    0    0  0.61007749105E-02 -0.17668109391E-01  0.24903058906E-01  0.31141692437E-01  0.51100000000E-03 0. -1.
</event>
<event>
 8    1  0.2825007E+004  0.1043930E+01  0.7957747E-01            NaN
         13   -1    0    0    0    0  0.00000000000E+00  0.00000000000E+00  0.74505805969E-08  0.10566000000E+00  0.10566000000E+00 0. -1.
     999900   -1    0    0    0    0 -0.00000000000E+00 -0.00000000000E+00 -0.74505805969E-08  0.93827000000E+00  0.93827000000E+00 0. -1.
     999902    2    1    2    0    0  0.12077113257E-01  0.40161713003E-02  0.20321874478E-02  0.10310413972E+01  0.10309608366E+01 0.  0.
     999903    2    3    3    0    0 -0.11546295295E+00  0.53866311595E-01  0.38383889473E-01  0.13970927547E+00  0.42568599354E-01 0.  0.
         14    1    1    2    0    0 -0.12077113257E-01 -0.40161713003E-02 -0.20321874478E-02  0.12888602809E-01  0.00000000000E+00 0. -1.
     999901    1    3    3    0    0  0.12754006621E+00 -0.49850140295E-01 -0.36351702026E-01  0.89133212172E+00  0.88000000000E+00 0. -1.
        -11    1    4    4    0    0 -0.69767008771E-01  0.27227040137E-01  0.93633868540E-03  0.74899166075E-01  0.51100000000E-03 0. -1.
         11    1    4    4    0    0 -0.45695944181E-01  0.26639271458E-01  0.37447550788E-01  0.64810109393E-01  0.51100000000E-03 0.  1.
</event>
<event>
 8    1  0.2825007E+004  0.1043930E+01  0.7957747E-01            NaN
         13   -1    0    0    0    0  0.00000000000E+00  0.00000000000E+00  0.74505805969E-08  0.10566000000E+00  0.10566000000E+00 0.  1.
     999900   -1    0    0    0    0 -0.00000000000E+00 -0.00000000000E+00 -0.74505805969E-08  0.93827000000E+00  0.93827000000E+00 0. -1.
     999902    2    1    2    0    0 -0.97112314468E-02 -0.92593262975E-02  0.67478504718E-03  0.10304950279E+01  0.10304074457E+01 0.  0.
     999903    2    3    3    0    0 -0.89210061875E-02 -0.13247774406E+00 -0.17963522163E-01  0.14171452104E+00  0.46156043187E-01 0.  0.
         14    1    1    2    0    0  0.97112314468E-02  0.92593262975E-02 -0.67478504718E-03  0.13434972071E-01  0.00000000000E+00 0.  1.
     999901    1    3    3    0    0 -0.79022525928E-03  0.12321841776E+00  0.18638307210E-01  0.88878050689E+00  0.88000000000E+00 0.  1.
        -11    1    4    4    0    0 -0.20453327138E-02 -0.11469873185E+00 -0.30734658938E-01  0.11876389542E+00  0.51100000000E-03 0. -1.
         11    1    4    4    0    0 -0.68756734738E-02 -0.17779012206E-01  0.12771136776E-01  0.22950625618E-01  0.51100000000E-03 0.  1.
</event>
<event>
 8    1  0.2825007E+004  0.1043930E+01  0.7957747E-01            NaN
         13   -1    0    0    0    0  0.00000000000E+00  0.00000000000E+00  0.74505805969E-08  0.10566000000E+00  0.10566000000E+00 0.  1.
     999900   -1    0    0    0    0 -0.00000000000E+00 -0.00000000000E+00 -0.74505805969E-08  0.93827000000E+00  0.93827000000E+00 0. -1.
     999902    2    1    2    0    0  0.16937439414E-02  0.14153866253E-01 -0.12673533561E-02  0.10296189245E+01  0.10295194620E+01 0.  0.
     999903    2    3    3    0    0  0.76542282375E-03 -0.12986993395E+00 -0.10701510265E-01  0.13786070604E+00  0.44991847386E-01 0.  0.
         14    1    1    2    0    0 -0.16937439414E-02 -0.14153866253E-01  0.12673533561E-02  0.14311075535E-01  0.00000000000E+00 0.  1.
     999901    1    3    3    0    0  0.92832111765E-03  0.14402380021E+00  0.94341569091E-02  0.89175821842E+00  0.88000000000E+00 0. -1.
        -11    1    4    4    0    0 -0.20022677388E-01 -0.70953322688E-01 -0.14991983995E-01  0.75234980663E-01  0.51100000000E-03 0. -1.
         11    1    4    4    0    0  0.20788100211E-01 -0.58916611266E-01  0.42904737294E-02  0.62625725380E-01  0.51100000000E-03 0.  1.
</event>
<event>
 8    1  0.2825007E+004  0.1043930E+01  0.7957747E-01            NaN
         13   -1    0    0    0    0  0.00000000000E+00  0.00000000000E+00  0.74505805969E-08  0.10566000000E+00  0.10566000000E+00 0. -1.
     999900   -1    0    0    0    0 -0.00000000000E+00 -0.00000000000E+00 -0.74505805969E-08  0.93827000000E+00  0.93827000000E+00 0.  1.
     999902    2    1    2    0    0 -0.12833493429E-01 -0.54548826725E-02 -0.53618944692E-03  0.10299750081E+01  0.10298804667E+01 0.  0.
     999903    2    3    3    0    0  0.55808973629E-02 -0.85906170646E-01 -0.10165840602E+00  0.14034744438E+00  0.44180958108E-01 0.  0.
         14    1    1    2    0    0  0.12833493429E-01  0.54548826725E-02  0.53618944692E-03  0.13954991856E-01  0.00000000000E+00 0.  1.
     999901    1    3    3    0    0 -0.18414390792E-01  0.80451287973E-01  0.10112221657E+00  0.88962756376E+00  0.88000000000E+00 0. -1.
        -11    1    4    4    0    0  0.15482027991E-01 -0.15335969240E-01 -0.93175254832E-02  0.23705749205E-01  0.51100000000E-03 0. -1.
         11    1    4    4    0    0 -0.99011306285E-02 -0.70570201406E-01 -0.92340880536E-01  0.11664169517E+00  0.51100000000E-03 0.  1.
</event>
<event>
 8    1  0.2825007E+004  0.1043930E+01  0.7957747E-01            NaN
         13   -1    0    0    0    0  0.00000000000E+00  0.00000000000E+00  0.74505805969E-08  0.10566000000E+00  0.10566000000E+00 0. -1.
     999900   -1    0    0    0    0 -0.00000000000E+00 -0.00000000000E+00 -0.74505805969E-08  0.93827000000E+00  0.93827000000E+00 0. -1.
     999902    2    1    2    0    0  0.11538400302E-01 -0.54365413975E-02 -0.65253096134E-02  0.10296027417E+01  0.10295030527E+01 0.  0.
     999903    2    3    3    0    0 -0.12009843797E+00  0.47365169621E-01 -0.20802103955E-01  0.13813198802E+00  0.44504207545E-01 0.  0.
         14    1    1    2    0    0 -0.11538400302E-01  0.54365413975E-02  0.65253096134E-02  0.14327258267E-01  0.00000000000E+00 0.  1.
     999901    1    3    3    0    0  0.13163683827E+00 -0.52801711018E-01  0.14276794342E-01  0.89147075372E+00  0.88000000000E+00 0. -1.
        -11    1    4    4    0    0 -0.66694914610E-01  0.36536809451E-01 -0.31989187203E-01  0.82502844185E-01  0.51100000000E-03 0. -1.
         11    1    4    4    0    0 -0.53403523356E-01  0.10828360170E-01  0.11187083248E-01  0.55629143832E-01  0.51100000000E-03 0.  1.
</event>
<event>
 8    1  0.2825007E+004  0.1043930E+01  0.7957747E-01            NaN
         13   -1    0    0    0    0  0.00000000000E+00  0.00000000000E+00  0.74505805969E-08  0.10566000000E+00  0.10566000000E+00 0.  1.
     999900   -1    0    0    0    0 -0.00000000000E+00 -0.00000000000E+00 -0.74505805969E-08  0.93827000000E+00  0.93827000000E+00 0. -1.
     999902    2    1    2    0    0 -0.12482925768E-01 -0.64205949257E-02 -0.51619728152E-02  0.10289736155E+01  0.10288649124E+01 0.  0.
     999903    2    3    3    0    0  0.12408787856E+00 -0.25299489921E-01 -0.31631751002E-01  0.13784587691E+00  0.44306346200E-01 0.  0.
         14    1    1    2    0    0  0.12482925768E-01  0.64205949257E-02  0.51619728152E-02  0.14956384532E-01  0.00000000000E+00 0.  1.
     999901    1    3    3    0    0 -0.13657080433E+00  0.18878894995E-01  0.26469778187E-01  0.89112773856E+00  0.88000000000E+00 0.  1.
        -11    1    4    4    0    0  0.94812648309E-01 -0.25556288990E-01 -0.50961874909E-02  0.98330028141E-01  0.51100000000E-03 0.  1.
         11    1    4    4    0    0  0.29275230252E-01  0.25679906894E-03 -0.26535563511E-01  0.39515848769E-01  0.51100000000E-03 0. -1.
</event>
<event>
 8    1  0.2825007E+004  0.1043930E+01  0.7957747E-01            NaN
         13   -1    0    0    0    0  0.00000000000E+00  0.00000000000E+00  0.74505805969E-08  0.10566000000E+00  0.10566000000E+00 0. -1.
     999900   -1    0    0    0    0 -0.00000000000E+00 -0.00000000000E+00 -0.74505805969E-08  0.93827000000E+00  0.93827000000E+00 0.  1.
     999902    2    1    2    0    0  0.86430310797E-02 -0.73677619214E-02  0.46533849876E-03  0.10325632748E+01  0.10325007090E+01 0.  0.
     999903    2    3    3    0    0 -0.58174438175E-01 -0.91282643138E-01  0.80227931889E-01  0.14246869960E+00  0.46303597217E-01 0.  0.
         14    1    1    2    0    0 -0.86430310797E-02  0.73677619214E-02 -0.46533849876E-03  0.11366725205E-01  0.00000000000E+00 0.  1.
     999901    1    3    3    0    0  0.66817469254E-01  0.83914881216E-01 -0.79762593391E-01  0.89009457519E+00  0.88000000000E+00 0.  1.
        -11    1    4    4    0    0 -0.21270467853E-01 -0.41532394085E-01  0.80515108033E-02  0.47354624994E-01  0.51100000000E-03 0. -1.
         11    1    4    4    0    0 -0.36903970321E-01 -0.49750249053E-01  0.72176421086E-01  0.95114074606E-01  0.51100000000E-03 0.  1.
</event>
<event>
 8    1  0.2825007E+004  0.1043930E+01  0.7957747E-01            NaN
         13   -1    0    0    0    0  0.00000000000E+00  0.00000000000E+00  0.74505805969E-08  0.10566000000E+00  0.10566000000E+00 0. -1.
     999900   -1    0    0    0    0 -0.00000000000E+00 -0.00000000000E+00 -0.74505805969E-08  0.93827000000E+00  0.93827000000E+00 0.  1.
     999902    2    1    2    0    0  0.14519175533E-01 -0.30918349222E-04  0.19409514264E-02  0.10292816313E+01  0.10291773908E+01 0.  0.
     999903    2    3    3    0    0  0.58524244546E-01 -0.11949272956E+00  0.94936745272E-02  0.14008839351E+00  0.42790519082E-01 0.  0.
         14    1    1    2    0    0 -0.14519175533E-01  0.30918349222E-04 -0.19409514264E-02  0.14648368733E-01  0.00000000000E+00 0.  1.
     999901    1    3    3    0    0 -0.44005069013E-01  0.11946181121E+00 -0.75527231008E-02  0.88919323775E+00  0.88000000000E+00 0. -1.
        -11    1    4    4    0    0  0.54337894518E-01 -0.71041457387E-01 -0.42719386302E-02  0.89543319287E-01  0.51100000000E-03 0.  1.
         11    1    4    4    0    0  0.41863500280E-02 -0.48451272176E-01  0.13765613157E-01  0.50545074228E-01  0.51100000000E-03 0. -1.
</event>
<event>
 8    1  0.2825007E+004  0.1043930E+01  0.7957747E-01            NaN
         13   -1    0    0    0    0  0.00000000000E+00  0.00000000000E+00  0.74505805969E-08  0.10566000000E+00  0.10566000000E+00 0. -1.
     999900   -1    0    0    0    0 -0.00000000000E+00 -0.00000000000E+00 -0.74505805969E-08  0.93827000000E+00  0.93827000000E+00 0. -1.
     999902    2    1    2    0    0 -0.16167968969E-01 -0.13699067488E-01  0.76121198420E-03  0.10227251158E+01  0.10225052642E+01 0.  0.
     999903    2    3    3    0    0  0.11520616614E+00 -0.41502884599E-01 -0.22049093848E-01  0.13224629758E+00  0.44810384263E-01 0.  0.
         14    1    1    2    0    0  0.16167968969E-01  0.13699067488E-01 -0.76121198420E-03  0.21204884209E-01  0.00000000000E+00 0. -1.
     999901    1    3    3    0    0 -0.13137413511E+00  0.27803817111E-01  0.22810305832E-01  0.89047881821E+00  0.88000000000E+00 0.  1.
        -11    1    4    4    0    0  0.95028671884E-01 -0.35192584970E-01 -0.35277792790E-01  0.10730214491E+00  0.51100000000E-03 0. -1.
         11    1    4    4    0    0  0.20177494259E-01 -0.63102996286E-02  0.13228698942E-01  0.24944152675E-01  0.51100000000E-03 0.  1.
</event>
<event>
 8    1  0.2825007E+004  0.1043930E+01  0.7957747E-01            NaN
         13   -1    0    0    0    0  0.00000000000E+00  0.00000000000E+00  0.74505805969E-08  0.10566000000E+00  0.10566000000E+00 0. -1.
     999900   -1    0    0    0    0 -0.00000000000E+00 -0.00000000000E+00 -0.74505805969E-08  0.93827000000E+00  0.93827000000E+00 0.  1.
     999902    2    1    2    0    0 -0.87304762152E-02 -0.45143666789E-02 -0.10286825369E-01  0.10297025794E+01  0.10296042844E+01 0.  0.
     999903    2    3    3    0    0  0.11129911180E+00 -0.51309910211E-01  0.47171647207E-01  0.13846837841E+00  0.43910458274E-01 0.  0.
         14    1    1    2    0    0  0.87304762152E-02  0.45143666789E-02  0.10286825369E-01  0.14227420624E-01  0.00000000000E+00 0. -1.
     999901    1    3    3    0    0 -0.12002958802E+00  0.46795543532E-01 -0.57458472576E-01  0.89123420096E+00  0.88000000000E+00 0.  1.
        -11    1    4    4    0    0  0.38368544817E-01 -0.36423405995E-02  0.31854949709E-01  0.50004108015E-01  0.51100000000E-03 0.  1.
         11    1    4    4    0    0  0.72930566988E-01 -0.47667569611E-01  0.15316697498E-01  0.88464270398E-01  0.51100000000E-03 0. -1.
</event>
<event>
 7    1  0.2825007E+004  0.1043930E+01  0.7957747E-01            NaN
         13   -1    0    0    0    0  0.00000000000E+00  0.00000000000E+00  0.74505805969E-08  0.10566000000E+00  0.10566000000E+00 0.  1.
     999900   -1    0    0    0    0 -0.00000000000E+00 -0.00000000000E+00 -0.74505805969E-08  0.93827000000E+00  0.93827000000E+00 0.  1.
     999903    2    1    2    0    0 -0.89244354673E-01  0.24818721243E-01 -0.49890561716E-01  0.11412851367E+00  0.44223587821E-01 0.  0.
         14    1    1    2    0    0  0.97001534219E-02  0.78606373628E-03 -0.40109234726E-01  0.41273012767E-01  0.00000000000E+00 0. -1.
     999901    1    1    2    0    0  0.79544201251E-01 -0.25604784979E-01  0.89999796442E-01  0.88852847356E+00  0.88000000000E+00 0.  1.
        -11    1    3    3    0    0 -0.40680967882E-01  0.18796023127E-01 -0.47243825032E-01  0.65118904766E-01  0.51100000000E-03 0. -1.
         11    1    3    3    0    0 -0.48563386791E-01  0.60226981154E-02 -0.26467366842E-02  0.49009608908E-01  0.51100000000E-03 0.  1.
</event>
<event>
 8    1  0.2825007E+004  0.1043930E+01  0.7957747E-01            NaN
         13   -1    0    0    0    0  0.00000000000E+00  0.00000000000E+00  0.74505805969E-08  0.10566000000E+00  0.10566000000E+00 0. -1.
     999900   -1    0    0    0    0 -0.00000000000E+00 -0.00000000000E+00 -0.74505805969E-08  0.93827000000E+00  0.93827000000E+00 0.  1.
     999902    2    1    2    0    0 -0.78124257539E-02  0.10658662966E-01 -0.43474142360E-02  0.10300180949E+01  0.10299241403E+01 0.  0.
     999903    2    3    3    0    0 -0.10395717798E+00  0.31214825869E-01 -0.78743429931E-01  0.14142305984E+00  0.44927651739E-01 0.  0.
         14    1    1    2    0    0  0.78124257539E-02 -0.10658662966E-01  0.43474142360E-02  0.13911905079E-01  0.00000000000E+00 0.  1.
     999901    1    3    3    0    0  0.96144752225E-01 -0.20556162902E-01  0.74396015695E-01  0.88859503508E+00  0.88000000000E+00 0. -1.
        -11    1    4    4    0    0 -0.73196585460E-01  0.37594330781E-01 -0.71883070130E-01  0.10926349217E+00  0.51100000000E-03 0. -1.
         11    1    4    4    0    0 -0.30760592519E-01 -0.63795049122E-02 -0.68603598016E-02  0.32159567669E-01  0.51100000000E-03 0.  1.
</event>
<event>
 8    1  0.2825007E+004  0.1043930E+01  0.7957747E-01            NaN
         13   -1    0    0    0    0  0.00000000000E+00  0.00000000000E+00  0.74505805969E-08  0.10566000000E+00  0.10566000000E+00 0.  1.
     999900   -1    0    0    0    0 -0.00000000000E+00 -0.00000000000E+00 -0.74505805969E-08  0.93827000000E+00  0.93827000000E+00 0. -1.
     999902    2    1    2    0    0 -0.83045687805E-02 -0.65607896931E-02 -0.93028455009E-02  0.10298391250E+01  0.10297427206E+01 0.  0.
     999903    2    3    3    0    0  0.19419712013E-01 -0.86145681658E-01 -0.10079132020E+00  0.14109139263E+00  0.44155262028E-01 0.  0.
         14    1    1    2    0    0  0.83045687805E-02  0.65607896931E-02  0.93028455009E-02  0.14090875006E-01  0.00000000000E+00 0. -1.
     999901    1    3    3    0    0 -0.27724280793E-01  0.79584891965E-01  0.91488474697E-01  0.88874773236E+00  0.88000000000E+00 0.  1.
        -11    1    4    4    0    0  0.51166325994E-02 -0.30400949083E-02 -0.31167692727E-01  0.31734969625E-01  0.51100000000E-03 0.  1.
         11    1    4    4    0    0  0.14303079413E-01 -0.83105586750E-01 -0.69623627471E-01  0.10935642301E+00  0.51100000000E-03 0. -1.
</event>
<event>
 8    1  0.2825007E+004  0.1043930E+01  0.7957747E-01            NaN
         13   -1    0    0    0    0  0.00000000000E+00  0.00000000000E+00  0.74505805969E-08  0.10566000000E+00  0.10566000000E+00 0. -1.
     999900   -1    0    0    0    0 -0.00000000000E+00 -0.00000000000E+00 -0.74505805969E-08  0.93827000000E+00  0.93827000000E+00 0.  1.
     999902    2    1    2    0    0 -0.64723598129E-02  0.64731707016E-02  0.24385109840E-02  0.10344568951E+01  0.10344135189E+01 0.  0.
     999903    2    3    3    0    0 -0.93798145160E-01 -0.59668069766E-01 -0.79811183589E-01  0.14385851832E+00  0.44351749490E-01 0.  0.
         14    1    1    2    0    0  0.64723598129E-02 -0.64731707016E-02 -0.24385109840E-02  0.94731048922E-02  0.00000000000E+00 0. -1.
     999901    1    3    3    0    0  0.87325785347E-01  0.66141240467E-01  0.82249694573E-01  0.89059837679E+00  0.88000000000E+00 0. -1.
        -11    1    4    4    0    0 -0.58603109074E-01 -0.25454749510E-01 -0.21007094214E-01  0.67259406733E-01  0.51100000000E-03 0. -1.
         11    1    4    4    0    0 -0.35195036086E-01 -0.34213320256E-01 -0.58804089374E-01  0.76599111589E-01  0.51100000000E-03 0.  1.
</event>
<event>
 8    1  0.2825007E+004  0.1043930E+01  0.7957747E-01            NaN
         13   -1    0    0    0    0  0.00000000000E+00  0.00000000000E+00  0.74505805969E-08  0.10566000000E+00  0.10566000000E+00 0. -1.
     999900   -1    0    0    0    0 -0.00000000000E+00 -0.00000000000E+00 -0.74505805969E-08  0.93827000000E+00  0.93827000000E+00 0. -1.
     999902    2    1    2    0    0 -0.16149054261E-02 -0.11851833366E-01 -0.75567063127E-02  0.10297815837E+01  0.10296843849E+01 0.  0.
     999903    2    3    3    0    0  0.32943505754E-01 -0.24270954416E-01  0.12466066570E+00  0.13914700554E+00  0.46338469742E-01 0.  0.
         14    1    1    2    0    0  0.16149054261E-02  0.11851833366E-01  0.75567063127E-02  0.14148416306E-01  0.00000000000E+00 0. -1.
     999901    1    3    3    0    0 -0.34558411180E-01  0.12419121050E-01 -0.13221737201E+00  0.89063457816E+00  0.88000000000E+00 0. -1.
        -11    1    4    4    0    0  0.22394279246E-01  0.24720240219E-02  0.18486279893E-01  0.29148212827E-01  0.51100000000E-03 0.  1.
         11    1    4    4    0    0  0.10549226508E-01 -0.26742978438E-01  0.10617438580E+00  0.10999879271E+00  0.51100000000E-03 0. -1.
</event>
<event>
 8    1  0.2825007E+004  0.1043930E+01  0.7957747E-01            NaN
         13   -1    0    0    0    0  0.00000000000E+00  0.00000000000E+00  0.74505805969E-08  0.10566000000E+00  0.10566000000E+00 0. -1.
     999900   -1    0    0    0    0 -0.00000000000E+00 -0.00000000000E+00 -0.74505805969E-08  0.93827000000E+00  0.93827000000E+00 0.  1.
     999902    2    1    2    0    0 -0.23969053724E-02  0.63204628972E-02 -0.13255850123E-01  0.10290501153E+01  0.10289425294E+01 0.  0.
     999903    2    3    3    0    0 -0.30709533718E-01  0.12794669802E+00  0.15099779339E-01  0.13978154634E+00  0.44692777572E-01 0.  0.
         14    1    1    2    0    0  0.23969053724E-02 -0.63204628972E-02  0.13255850123E-01  0.14879884714E-01  0.00000000000E+00 0. -1.
     999901    1    3    3    0    0  0.28312628345E-01 -0.12162623512E+00 -0.28355629462E-01  0.88926856895E+00  0.88000000000E+00 0.  1.
        -11    1    4    4    0    0 -0.33189031161E-01  0.62312643101E-01  0.21460184960E-01  0.73791448956E-01  0.51100000000E-03 0.  1.
         11    1    4    4    0    0  0.24794974430E-02  0.65634054914E-01 -0.63604056209E-02  0.65990097384E-01  0.51100000000E-03 0. -1.
</event>
<event>
 8    1  0.2825007E+004  0.1043930E+01  0.7957747E-01            NaN
         13   -1    0    0    0    0  0.00000000000E+00  0.00000000000E+00  0.74505805969E-08  0.10566000000E+00  0.10566000000E+00 0.  1.
     999900   -1    0    0    0    0 -0.00000000000E+00 -0.00000000000E+00 -0.74505805969E-08  0.93827000000E+00  0.93827000000E+00 0.  1.
     999902    2    1    2    0    0 -0.10821305126E-01 -0.70332384521E-02 -0.39928852190E-02  0.10304203657E+01  0.10303318008E+01 0.  0.
     999903    2    3    3    0    0 -0.12140994955E+00 -0.60169386053E-01 -0.22153289260E-02  0.14190674271E+00  0.42093765297E-01 0.  0.
         14    1    1    2    0    0  0.10821305126E-01  0.70332384521E-02  0.39928852190E-02  0.13509634345E-01  0.00000000000E+00 0.  1.
     999901    1    3    3    0    0  0.11058864442E+00  0.53136147601E-01 -0.17775562930E-02  0.88851362295E+00  0.88000000000E+00 0. -1.
        -11    1    4    4    0    0 -0.55004170477E-01 -0.23618206819E-01  0.19664787961E-01  0.63009868035E-01  0.51100000000E-03 0. -1.
         11    1    4    4    0    0 -0.66405779069E-01 -0.36551179234E-01 -0.21880116887E-01  0.78896874673E-01  0.51100000000E-03 0.  1.
</event>
<event>
 8    1  0.2825007E+004  0.1043930E+01  0.7957747E-01            NaN
         13   -1    0    0    0    0  0.00000000000E+00  0.00000000000E+00  0.74505805969E-08  0.10566000000E+00  0.10566000000E+00 0.  1.
     999900   -1    0    0    0    0 -0.00000000000E+00 -0.00000000000E+00 -0.74505805969E-08  0.93827000000E+00  0.93827000000E+00 0.  1.
     999902    2    1    2    0    0  0.71393688669E-02  0.12199860987E-01  0.46003756248E-02  0.10290649184E+01  0.10289575480E+01 0.  0.
     999903    2    3    3    0    0  0.11017258001E+00  0.66605979577E-01 -0.32708004643E-01  0.14060119735E+00  0.46092615736E-01 0.  0.
         14    1    1    2    0    0 -0.71393688669E-02 -0.12199860987E-01 -0.46003756248E-02  0.14865081628E-01  0.00000000000E+00 0. -1.
     999901    1    3    3    0    0 -0.10303321115E+00 -0.54406118590E-01  0.37308380268E-01  0.88846372102E+00  0.88000000000E+00 0. -1.
        -11    1    4    4    0    0  0.39733201233E-01  0.42527126487E-01 -0.31431116643E-01  0.66147259821E-01  0.51100000000E-03 0.  1.
         11    1    4    4    0    0  0.70439378781E-01  0.24078853090E-01 -0.12768880009E-02  0.74453937526E-01  0.51100000000E-03 0. -1.
</event>
<event>
 8    1  0.2825007E+004  0.1043930E+01  0.7957747E-01            NaN
         13   -1    0    0    0    0  0.00000000000E+00  0.00000000000E+00  0.74505805969E-08  0.10566000000E+00  0.10566000000E+00 0.  1.
     999900   -1    0    0    0    0 -0.00000000000E+00 -0.00000000000E+00 -0.74505805969E-08  0.93827000000E+00  0.93827000000E+00 0.  1.
     999902    2    1    2    0    0  0.30381555352E-02  0.11213226151E-01  0.56349514068E-02  0.10310180092E+01  0.10309371541E+01 0.  0.
     999903    2    3    3    0    0 -0.15041159067E-01 -0.11967537394E+00 -0.53054156690E-01  0.13922033108E+00  0.44934679809E-01 0.  0.
         14    1    1    2    0    0 -0.30381555352E-02 -0.11213226151E-01 -0.56349514068E-02  0.12911990827E-01  0.00000000000E+00 0. -1.
     999901    1    3    3    0    0  0.18079314602E-01  0.13088860009E+00  0.58689108096E-01  0.89179767810E+00  0.88000000000E+00 0. -1.
        -11    1    4    4    0    0 -0.11821023314E-01 -0.35499754219E-02 -0.29235263631E-02  0.12694370606E-01  0.51100000000E-03 0. -1.
         11    1    4    4    0    0 -0.32201357528E-02 -0.11612539852E+00 -0.50130630326E-01  0.12652596047E+00  0.51100000000E-03 0.  1.
</event>
<event>
 8    1  0.2825007E+004  0.1043930E+01  0.7957747E-01            NaN
         13   -1    0    0    0    0  0.00000000000E+00  0.00000000000E+00  0.74505805969E-08  0.10566000000E+00  0.10566000000E+00 0. -1.
     999900   -1    0    0    0    0 -0.00000000000E+00 -0.00000000000E+00 -0.74505805969E-08  0.93827000000E+00  0.93827000000E+00 0. -1.
     999902    2    1    2    0    0 -0.72097078880E-02 -0.12117170935E-01 -0.26318466843E-02  0.10295866274E+01  0.10294867124E+01 0.  0.
     999903    2    3    3    0    0  0.77417254136E-01 -0.71443552475E-01 -0.84439829373E-01  0.13976985514E+00  0.36165110151E-01 0.  0.
         14    1    1    2    0    0  0.72097078880E-02  0.12117170935E-01  0.26318466843E-02  0.14343372555E-01  0.00000000000E+00 0.  1.
     999901    1    3    3    0    0 -0.84626962024E-01  0.59326381541E-01  0.81807982689E-01  0.88981677231E+00  0.88000000000E+00 0.  1.
        -11    1    4    4    0    0  0.50368550116E-01 -0.58057528541E-01 -0.76751652110E-01  0.10862202670E+00  0.51100000000E-03 0.  1.
         11    1    4    4    0    0  0.27048704020E-01 -0.13386023935E-01 -0.76881772631E-02  0.31147828441E-01  0.51100000000E-03 0. -1.
</event>
<event>
 8    1  0.2825007E+004  0.1043930E+01  0.7957747E-01            NaN
         13   -1    0    0    0    0  0.00000000000E+00  0.00000000000E+00  0.74505805969E-08  0.10566000000E+00  0.10566000000E+00 0. -1.
     999900   -1    0    0    0    0 -0.00000000000E+00 -0.00000000000E+00 -0.74505805969E-08  0.93827000000E+00  0.93827000000E+00 0.  1.
     999902    2    1    2    0    0 -0.56789840493E-02 -0.77704177383E-02  0.10561300310E-01  0.10296411471E+01  0.10295419955E+01 0.  0.
     999903    2    3    3    0    0  0.79232052920E-01 -0.94725565820E-01  0.49559513797E-01  0.14043254247E+00  0.44883210074E-01 0.  0.
         14    1    1    2    0    0  0.56789840493E-02  0.77704177383E-02 -0.10561300310E-01  0.14288852854E-01  0.00000000000E+00 0.  1.
     999901    1    3    3    0    0 -0.84911036969E-01  0.86955148082E-01 -0.38998213488E-01  0.88920860468E+00  0.88000000000E+00 0.  1.
        -11    1    4    4    0    0  0.54449888790E-01 -0.36432032995E-01  0.38908761131E-01  0.76198662922E-01  0.51100000000E-03 0. -1.
         11    1    4    4    0    0  0.24782164130E-01 -0.58293532825E-01  0.10650752666E-01  0.64233879546E-01  0.51100000000E-03 0.  1.
</event>
<event>
 8    1  0.2825007E+004  0.1043930E+01  0.7957747E-01            NaN
         13   -1    0    0    0    0  0.00000000000E+00  0.00000000000E+00  0.74505805969E-08  0.10566000000E+00  0.10566000000E+00 0.  1.
     999900   -1    0    0    0    0 -0.00000000000E+00 -0.00000000000E+00 -0.74505805969E-08  0.93827000000E+00  0.93827000000E+00 0. -1.
     999902    2    1    2    0    0  0.10343588983E-01  0.63609248417E-02 -0.69607721726E-02  0.10299334452E+01  0.10298383358E+01 0.  0.
     999903    2    3    3    0    0 -0.84938347045E-01  0.66980304189E-01 -0.75777019421E-01  0.14005197420E+00  0.46599515636E-01 0.  0.
         14    1    1    2    0    0 -0.10343588983E-01 -0.63609248417E-02  0.69607721726E-02  0.13996554830E-01  0.00000000000E+00 0.  1.
     999901    1    3    3    0    0  0.95281936028E-01 -0.60619379348E-01  0.68816247248E-01  0.88988147097E+00  0.88000000000E+00 0. -1.
        -11    1    4    4    0    0 -0.39023151465E-01  0.58094434154E-02 -0.37857017631E-01  0.54680626258E-01  0.51100000000E-03 0. -1.
         11    1    4    4    0    0 -0.45915195580E-01  0.61170860774E-01 -0.37920001790E-01  0.85371347944E-01  0.51100000000E-03 0.  1.
</event>
<event>
 8    1  0.2825007E+004  0.1043930E+01  0.7957747E-01            NaN
         13   -1    0    0    0    0  0.00000000000E+00  0.00000000000E+00  0.74505805969E-08  0.10566000000E+00  0.10566000000E+00 0.  1.
     999900   -1    0    0    0    0 -0.00000000000E+00 -0.00000000000E+00 -0.74505805969E-08  0.93827000000E+00  0.93827000000E+00 0. -1.
     999902    2    1    2    0    0 -0.32907403236E-02  0.11898986201E-01  0.47004444044E-02  0.10307198137E+01  0.10306351563E+01 0.  0.
     999903    2    3    3    0    0  0.50112348985E-01  0.82742921097E-01  0.93625322227E-01  0.14180002713E+00  0.44541084623E-01 0.  0.
         14    1    1    2    0    0  0.32907403236E-02 -0.11898986201E-01 -0.47004444044E-02  0.13210186301E-01  0.00000000000E+00 0. -1.
     999901    1    3    3    0    0 -0.53403089309E-01 -0.70843934895E-01 -0.88924877823E-01  0.88891978657E+00  0.88000000000E+00 0. -1.
        -11    1    4    4    0    0  0.41679725379E-01  0.38446189430E-01  0.30994752402E-01  0.64623871648E-01  0.51100000000E-03 0.  1.
         11    1    4    4    0    0  0.84326236063E-02  0.44296731667E-01  0.62630569826E-01  0.77176155482E-01  0.51100000000E-03 0. -1.
</event>
<event>
 8    1  0.2825007E+004  0.1043930E+01  0.7957747E-01            NaN
         13   -1    0    0    0    0  0.00000000000E+00  0.00000000000E+00  0.74505805969E-08  0.10566000000E+00  0.10566000000E+00 0. -1.
     999900   -1    0    0    0    0 -0.00000000000E+00 -0.00000000000E+00 -0.74505805969E-08  0.93827000000E+00  0.93827000000E+00 0.  1.
     999902    2    1    2    0    0 -0.12589710381E-01 -0.32770971026E-02 -0.59943741671E-02  0.10296061495E+01  0.10295065081E+01 0.  0.
     999903    2    3    3    0    0 -0.99978564509E-01  0.50783158895E-01  0.71292669728E-01  0.14026222820E+00  0.44902174950E-01 0.  0.
         14    1    1    2    0    0  0.12589710381E-01  0.32770971026E-02  0.59943741671E-02  0.14323850549E-01  0.00000000000E+00 0.  1.
     999901    1    3    3    0    0  0.87388854128E-01 -0.54060255998E-01 -0.77287043895E-01  0.88934392125E+00  0.88000000000E+00 0. -1.
        -11    1    4    4    0    0 -0.78379546637E-01  0.29735742042E-01  0.71373049538E-01  0.11009968668E+00  0.51100000000E-03 0. -1.
         11    1    4    4    0    0 -0.21599017872E-01  0.21047416854E-01 -0.80379810852E-04  0.30162541524E-01  0.51100000000E-03 0.  1.
</event>
<event>
 8    1  0.2825007E+004  0.1043930E+01  0.7957747E-01            NaN
         13   -1    0    0    0    0  0.00000000000E+00  0.00000000000E+00  0.74505805969E-08  0.10566000000E+00  0.10566000000E+00 0. -1.
     999900   -1    0    0    0    0 -0.00000000000E+00 -0.00000000000E+00 -0.74505805969E-08  0.93827000000E+00  0.93827000000E+00 0. -1.
     999902    2    1    2    0    0 -0.49122035525E-02 -0.34458658773E-02 -0.12905241072E-01  0.10296980296E+01  0.10295996713E+01 0.  0.
     999903    2    3    3    0    0  0.32036983201E-01  0.95159318402E-01 -0.86468318228E-01  0.14037258233E+00  0.46325237641E-01 0.  0.
         14    1    1    2    0    0  0.49122035525E-02  0.34458658773E-02  0.12905241072E-01  0.14231970437E-01  0.00000000000E+00 0.  1.
     999901    1    3    3    0    0 -0.36949186754E-01 -0.98605184280E-01  0.73563077156E-01  0.88932544723E+00  0.88000000000E+00 0.  1.
        -11    1    4    4    0    0  0.13477934902E-01  0.46101451891E-01 -0.12394170657E-01  0.49607208982E-01  0.51100000000E-03 0.  1.
         11    1    4    4    0    0  0.18559048299E-01  0.49057866511E-01 -0.74074147571E-01  0.90765373352E-01  0.51100000000E-03 0. -1.
</event>
<event>
 8    1  0.2825007E+004  0.1043930E+01  0.7957747E-01            NaN
         13   -1    0    0    0    0  0.00000000000E+00  0.00000000000E+00  0.74505805969E-08  0.10566000000E+00  0.10566000000E+00 0. -1.
     999900   -1    0    0    0    0 -0.00000000000E+00 -0.00000000000E+00 -0.74505805969E-08  0.93827000000E+00  0.93827000000E+00 0.  1.
     999902    2    1    2    0    0 -0.65664706077E-02  0.96653396925E-02  0.48584631231E-02  0.10312752779E+01  0.10311976323E+01 0.  0.
     999903    2    3    3    0    0  0.11087052842E+00  0.42094894843E-02  0.73313328391E-01  0.14082186327E+00  0.46324498709E-01 0.  0.
         14    1    1    2    0    0  0.65664706077E-02 -0.96653396925E-02 -0.48584631231E-02  0.12654722104E-01  0.00000000000E+00 0. -1.
     999901    1    3    3    0    0 -0.11743699903E+00  0.54558502082E-02 -0.68454865268E-01  0.89045341463E+00  0.88000000000E+00 0.  1.
        -11    1    4    4    0    0  0.12500983560E-01  0.10946821270E-01 -0.20052476382E-02  0.16744838756E-01  0.51100000000E-03 0.  1.
         11    1    4    4    0    0  0.98369544861E-01 -0.67373317859E-02  0.75318576029E-01  0.12407702451E+00  0.51100000000E-03 0. -1.
</event>
<event>
 8    1  0.2825007E+004  0.1043930E+01  0.7957747E-01            NaN
         13   -1    0    0    0    0  0.00000000000E+00  0.00000000000E+00  0.74505805969E-08  0.10566000000E+00  0.10566000000E+00 0. -1.
     999900   -1    0    0    0    0 -0.00000000000E+00 -0.00000000000E+00 -0.74505805969E-08  0.93827000000E+00  0.93827000000E+00 0. -1.
     999902    2    1    2    0    0 -0.69136372596E-02 -0.10178753427E-01 -0.58803784905E-02  0.10302923956E+01  0.10302021337E+01 0.  0.
     999903    2    3    3    0    0 -0.92914990919E-02  0.71787433272E-01  0.11014353442E+00  0.13889705217E+00  0.43829503711E-01 0.  0.
         14    1    1    2    0    0  0.69136372596E-02  0.10178753427E-01  0.58803784905E-02  0.13637604360E-01  0.00000000000E+00 0. -1.
     999901    1    3    3    0    0  0.23778618322E-02 -0.81966186699E-01 -0.11602391291E+00  0.89139534347E+00  0.88000000000E+00 0. -1.
        -11    1    4    4    0    0  0.17514946704E-01  0.31418150517E-01  0.51511937957E-01  0.62830043873E-01  0.51100000000E-03 0. -1.
         11    1    4    4    0    0 -0.26806445796E-01  0.40369282754E-01  0.58631596467E-01  0.76067008299E-01  0.51100000000E-03 0.  1.
</event>
<event>
 8    1  0.2825007E+004  0.1043930E+01  0.7957747E-01            NaN
         13   -1    0    0    0    0  0.00000000000E+00  0.00000000000E+00  0.74505805969E-08  0.10566000000E+00  0.10566000000E+00 0.  1.
     999900   -1    0    0    0    0 -0.00000000000E+00 -0.00000000000E+00 -0.74505805969E-08  0.93827000000E+00  0.93827000000E+00 0. -1.
     999902    2    1    2    0    0  0.47559249016E-02 -0.13515576528E-01  0.84709994781E-03  0.10295770488E+01  0.10294769993E+01 0.  0.
     999903    2    3    3    0    0 -0.12746281781E+00 -0.23920710876E-01 -0.23470561516E-01  0.13930663401E+00  0.45127604515E-01 0.  0.
         14    1    1    2    0    0 -0.47559249016E-02  0.13515576528E-01 -0.84709994781E-03  0.14352951225E-01  0.00000000000E+00 0.  1.
     999901    1    3    3    0    0  0.13221874271E+00  0.10405134348E-01  0.24317661464E-01  0.89027041476E+00  0.88000000000E+00 0.  1.
        -11    1    4    4    0    0 -0.72184153999E-01 -0.31455958538E-01  0.94360383561E-04  0.78741980169E-01  0.51100000000E-03 0. -1.
         11    1    4    4    0    0 -0.55278663808E-01  0.75352476620E-02 -0.23564921900E-01  0.60564653841E-01  0.51100000000E-03 0.  1.
</event>
<event>
 8    1  0.2825007E+004  0.1043930E+01  0.7957747E-01            NaN
         13   -1    0    0    0    0  0.00000000000E+00  0.00000000000E+00  0.74505805969E-08  0.10566000000E+00  0.10566000000E+00 0.  1.
     999900   -1    0    0    0    0 -0.00000000000E+00 -0.00000000000E+00 -0.74505805969E-08  0.93827000000E+00  0.93827000000E+00 0.  1.
     999902    2    1    2    0    0 -0.46782956289E-02 -0.37708193950E-02 -0.12993215867E-01  0.10296146520E+01  0.10295151298E+01 0.  0.
     999903    2    3    3    0    0  0.91865100736E-01  0.60380018475E-01  0.70394888598E-01  0.13810495868E+00  0.45084319954E-01 0.  0.
         14    1    1    2    0    0  0.46782956289E-02  0.37708193950E-02  0.12993215867E-01  0.14315347969E-01  0.00000000000E+00 0.  1.
     999901    1    3    3    0    0 -0.96543396365E-01 -0.64150837870E-01 -0.83388104465E-01  0.89150969336E+00  0.88000000000E+00 0.  1.
        -11    1    4    4    0    0  0.67565028550E-01  0.20842388304E-01  0.30906742526E-01  0.77168167581E-01  0.51100000000E-03 0. -1.
         11    1    4    4    0    0  0.24300072186E-01  0.39537630171E-01  0.39488146072E-01  0.60936791095E-01  0.51100000000E-03 0.  1.
</event>
<event>
 8    1  0.2825007E+004  0.1043930E+01  0.7957747E-01            NaN
         13   -1    0    0    0    0  0.00000000000E+00  0.00000000000E+00  0.74505805969E-08  0.10566000000E+00  0.10566000000E+00 0.  1.
     999900   -1    0    0    0    0 -0.00000000000E+00 -0.00000000000E+00 -0.74505805969E-08  0.93827000000E+00  0.93827000000E+00 0.  1.
     999902    2    1    2    0    0 -0.14712094892E-01 -0.59090690969E-03 -0.15919084609E-01  0.10222456240E+01  0.10220156083E+01 0.  0.
     999903    2    3    3    0    0  0.83047868505E-01  0.87797510544E-01 -0.30614485602E-01  0.13230996477E+00  0.44309465445E-01 0.  0.
         14    1    1    2    0    0  0.14712094892E-01  0.59090690969E-03  0.15919084609E-01  0.21684375986E-01  0.00000000000E+00 0.  1.
     999901    1    3    3    0    0 -0.97759963397E-01 -0.88388417453E-01  0.14695400993E-01  0.88993565924E+00  0.88000000000E+00 0. -1.
        -11    1    4    4    0    0  0.59103709682E-01  0.59895184755E-01 -0.41686499268E-01  0.93907970893E-01  0.51100000000E-03 0.  1.
         11    1    4    4    0    0  0.23944158824E-01  0.27902325789E-01  0.11072013666E-01  0.38401993878E-01  0.51100000000E-03 0. -1.
</event>
<event>
 8    1  0.2825007E+004  0.1043930E+01  0.7957747E-01            NaN
         13   -1    0    0    0    0  0.00000000000E+00  0.00000000000E+00  0.74505805969E-08  0.10566000000E+00  0.10566000000E+00 0. -1.
     999900   -1    0    0    0    0 -0.00000000000E+00 -0.00000000000E+00 -0.74505805969E-08  0.93827000000E+00  0.93827000000E+00 0.  1.
     999902    2    1    2    0    0 -0.14314998292E-01  0.11818872811E-02 -0.66980336004E-02  0.10280813506E+01  0.10279591839E+01 0.  0.
     999903    2    3    3    0    0 -0.18903346632E-01 -0.71212388558E-01 -0.10868001912E+00  0.13922685774E+00  0.46305837218E-01 0.  0.
         14    1    1    2    0    0  0.14314998292E-01 -0.11818872811E-02  0.66980336004E-02  0.15848649398E-01  0.00000000000E+00 0. -1.
     999901    1    3    3    0    0  0.45883483404E-02  0.72394275839E-01  0.10198198552E+00  0.88885449286E+00  0.88000000000E+00 0.  1.
        -11    1    4    4    0    0  0.53598674295E-03 -0.38064611744E-01 -0.87320337226E-01  0.95259143200E-01  0.51100000000E-03 0.  1.
         11    1    4    4    0    0 -0.19439333375E-01 -0.33147776814E-01 -0.21359681898E-01  0.43967714537E-01  0.51100000000E-03 0. -1.
</event>
<event>
 8    1  0.2825007E+004  0.1043930E+01  0.7957747E-01            NaN
         13   -1    0    0    0    0  0.00000000000E+00  0.00000000000E+00  0.74505805969E-08  0.10566000000E+00  0.10566000000E+00 0. -1.
     999900   -1    0    0    0    0 -0.00000000000E+00 -0.00000000000E+00 -0.74505805969E-08  0.93827000000E+00  0.93827000000E+00 0. -1.
     999902    2    1    2    0    0  0.13889202708E-01 -0.46335875584E-03 -0.14328037402E-02  0.10299594030E+01  0.10298646485E+01 0.  0.
     999903    2    3    3    0    0  0.11517715600E+00  0.14745605096E-01 -0.67518575735E-01  0.14155752813E+00  0.44682944911E-01 0.  0.
         14    1    1    2    0    0 -0.13889202708E-01  0.46335875584E-03  0.14328037402E-02  0.13970596972E-01  0.00000000000E+00 0. -1.
     999901    1    3    3    0    0 -0.10128795330E+00 -0.15208963852E-01  0.66085771995E-01  0.88840187490E+00  0.88000000000E+00 0. -1.
        -11    1    4    4    0    0  0.59583429433E-01 -0.69799477829E-02 -0.14499066036E-01  0.61720246038E-01  0.51100000000E-03 0. -1.
         11    1    4    4    0    0  0.55593726570E-01  0.21725552879E-01 -0.53019509699E-01  0.79837282090E-01  0.51100000000E-03 0.  1.
</event>
<event>
 8    1  0.2825007E+004  0.1043930E+01  0.7957747E-01            NaN
         13   -1    0    0    0    0  0.00000000000E+00  0.00000000000E+00  0.74505805969E-08  0.10566000000E+00  0.10566000000E+00 0. -1.
     999900   -1    0    0    0    0 -0.00000000000E+00 -0.00000000000E+00 -0.74505805969E-08  0.93827000000E+00  0.93827000000E+00 0. -1.
     999902    2    1    2    0    0 -0.24452778841E-02  0.23999639714E-02 -0.13379079841E-01  0.10301191713E+01  0.10300265861E+01 0.  0.
     999903    2    3    3    0    0  0.12764019383E+00 -0.34285871288E-01 -0.11475235573E-01  0.13979804664E+00  0.44093908427E-01 0.  0.
         14    1    1    2    0    0  0.24452778841E-02 -0.23999639714E-02  0.13379079841E-01  0.13810828664E-01  0.00000000000E+00 0. -1.
     999901    1    3    3    0    0 -0.13008547172E+00  0.36685835259E-01 -0.19038442681E-02  0.89032112470E+00  0.88000000000E+00 0. -1.
        -11    1    4    4    0    0  0.32664184032E-01  0.62921169370E-02 -0.14913379244E-01  0.36458327656E-01  0.51100000000E-03 0.  1.
         11    1    4    4    0    0  0.94976009802E-01 -0.40577988224E-01  0.34381436710E-02  0.10333971898E+00  0.51100000000E-03 0. -1.
</event>
<event>
 8    1  0.2825007E+004  0.1043930E+01  0.7957747E-01            NaN
         13   -1    0    0    0    0  0.00000000000E+00  0.00000000000E+00  0.74505805969E-08  0.10566000000E+00  0.10566000000E+00 0. -1.
     999900   -1    0    0    0    0 -0.00000000000E+00 -0.00000000000E+00 -0.74505805969E-08  0.93827000000E+00  0.93827000000E+00 0. -1.
     999902    2    1    2    0    0 -0.12202501909E-01  0.22976154366E-02  0.13513435647E-03  0.10315123371E+01  0.10314375906E+01 0.  0.
     999903    2    3    3    0    0 -0.59040756789E-01  0.65847490602E-01 -0.10164939379E+00  0.14213474640E+00  0.45254656047E-01 0.  0.
         14    1    1    2    0    0  0.12202501909E-01 -0.22976154366E-02 -0.13513435647E-03  0.12417662857E-01  0.00000000000E+00 0.  1.
     999901    1    3    3    0    0  0.46838254880E-01 -0.63549875165E-01  0.10178452815E+00  0.88937759075E+00  0.88000000000E+00 0.  1.
        -11    1    4    4    0    0 -0.52327682953E-01  0.27396429781E-01 -0.71918751632E-01  0.93066206140E-01  0.51100000000E-03 0. -1.
         11    1    4    4    0    0 -0.67130738359E-02  0.38451060821E-01 -0.29730642160E-01  0.49068540256E-01  0.51100000000E-03 0.  1.
</event>
<event>
 8    1  0.2825007E+004  0.1043930E+01  0.7957747E-01            NaN
         13   -1    0    0    0    0  0.00000000000E+00  0.00000000000E+00  0.74505805969E-08  0.10566000000E+00  0.10566000000E+00 0. -1.
     999900   -1    0    0    0    0 -0.00000000000E+00 -0.00000000000E+00 -0.74505805969E-08  0.93827000000E+00  0.93827000000E+00 0.  1.
     999902    2    1    2    0    0  0.75627637738E-02  0.91041879333E-02 -0.29277810613E-02  0.10317376444E+01  0.10316656015E+01 0.  0.
     999903    2    3    3    0    0  0.11269698598E+00 -0.70826909404E-01  0.16007047009E-01  0.14168106599E+00  0.45828344525E-01 0.  0.
         14    1    1    2    0    0 -0.75627637738E-02 -0.91041879333E-02  0.29277810613E-02  0.12192355628E-01  0.00000000000E+00 0.  1.
     999901    1    3    3    0    0 -0.10513422221E+00  0.79931097337E-01 -0.18934828070E-01  0.89005657838E+00  0.88000000000E+00 0. -1.
        -11    1    4    4    0    0  0.17311496166E-01 -0.12463554255E-02  0.16001991350E-01  0.23612838658E-01  0.51100000000E-03 0. -1.
         11    1    4    4    0    0  0.95385489816E-01 -0.69580553978E-01  0.50556590379E-05  0.11806822733E+00  0.51100000000E-03 0.  1.
</event>
<event>
 7    1  0.2825007E+004  0.1043930E+01  0.7957747E-01            NaN
         13   -1    0    0    0    0  0.00000000000E+00  0.00000000000E+00  0.74505805969E-08  0.10566000000E+00  0.10566000000E+00 0. -1.
     999900   -1    0    0    0    0 -0.00000000000E+00 -0.00000000000E+00 -0.74505805969E-08  0.93827000000E+00  0.93827000000E+00 0. -1.
     999903    2    1    2    0    0 -0.14185809981E-01  0.89087271998E-01 -0.53823413873E-01  0.11348466347E+00  0.42942167218E-01 0.  0.
         14    1    1    2    0    0 -0.84279653617E-02  0.13415605223E-01 -0.36329138073E-01  0.39633512799E-01  0.00000000000E+00 0.  1.
     999901    1    1    2    0    0  0.22613775343E-01 -0.10250287722E+00  0.90152551946E-01  0.89081182373E+00  0.88000000000E+00 0.  1.
        -11    1    3    3    0    0  0.14056807334E-01  0.21333316684E-01 -0.72939176823E-02  0.26573795162E-01  0.51100000000E-03 0. -1.
         11    1    3    3    0    0 -0.28242617315E-01  0.67753955314E-01 -0.46529496191E-01  0.86910868309E-01  0.51100000000E-03 0.  1.
</event>
<event>
 7    1  0.2825007E+004  0.1043930E+01  0.7957747E-01            NaN
         13   -1    0    0    0    0  0.00000000000E+00  0.00000000000E+00  0.74505805969E-08  0.10566000000E+00  0.10566000000E+00 0.  1.
     999900   -1    0    0    0    0 -0.00000000000E+00 -0.00000000000E+00 -0.74505805969E-08  0.93827000000E+00  0.93827000000E+00 0.  1.
     999903    2    1    2    0    0  0.75066447566E-02 -0.68000590309E-02 -0.10180647594E+00  0.11194853448E+00  0.45445850319E-01 0.  0.
         14    1    1    2    0    0 -0.17270701529E-01 -0.99779288404E-02  0.45838247287E-01  0.49989810058E-01  0.00000000000E+00 0.  1.
     999901    1    1    2    0    0  0.97640567726E-02  0.16777987871E-01  0.55968228652E-01  0.88199165546E+00  0.88000000000E+00 0. -1.
        -11    1    3    3    0    0  0.77143019439E-02 -0.24478703864E-01 -0.79130649994E-01  0.83190373763E-01  0.51100000000E-03 0.  1.
         11    1    3    3    0    0 -0.20765718730E-03  0.17678644833E-01 -0.22675825946E-01  0.28758160720E-01  0.51100000000E-03 0. -1.
</event>
<event>
 8    1  0.2825007E+004  0.1043930E+01  0.7957747E-01            NaN
         13   -1    0    0    0    0  0.00000000000E+00  0.00000000000E+00  0.74505805969E-08  0.10566000000E+00  0.10566000000E+00 0. -1.
     999900   -1    0    0    0    0 -0.00000000000E+00 -0.00000000000E+00 -0.74505805969E-08  0.93827000000E+00  0.93827000000E+00 0.  1.
     999902    2    1    2    0    0 -0.10439565517E-01 -0.56307930431E-02  0.76048359816E-02  0.10298401494E+01  0.10297437592E+01 0.  0.
     999903    2    3    3    0    0  0.19064604841E-01  0.12369332056E+00 -0.38990178052E-01  0.13868005285E+00  0.45259544468E-01 0.  0.
         14    1    1    2    0    0  0.10439565517E-01  0.56307930431E-02 -0.76048359816E-02  0.14089850559E-01  0.00000000000E+00 0.  1.
     999901    1    3    3    0    0 -0.29504170357E-01 -0.12932411360E+00  0.46595014034E-01  0.89116009659E+00  0.88000000000E+00 0. -1.
        -11    1    4    4    0    0 -0.11513736419E-01  0.69603649987E-01 -0.15376624957E-01  0.72207589171E-01  0.51100000000E-03 0.  1.
         11    1    4    4    0    0  0.30578341260E-01  0.54089670569E-01 -0.23613553095E-01  0.66472463677E-01  0.51100000000E-03 0. -1.
</event>
<event>
 8    1  0.2825007E+004  0.1043930E+01  0.7957747E-01            NaN
         13   -1    0    0    0    0  0.00000000000E+00  0.00000000000E+00  0.74505805969E-08  0.10566000000E+00  0.10566000000E+00 0.  1.
     999900   -1    0    0    0    0 -0.00000000000E+00 -0.00000000000E+00 -0.74505805969E-08  0.93827000000E+00  0.93827000000E+00 0. -1.
     999902    2    1    2    0    0 -0.19337600152E-01 -0.14079473650E-01 -0.13841309732E-01  0.10162938604E+01  0.10159180353E+01 0.  0.
     999903    2    3    3    0    0 -0.83351681166E-02 -0.71958028667E-01  0.95155363197E-01  0.12761435946E+00  0.44535925713E-01 0.  0.
         14    1    1    2    0    0  0.19337600152E-01  0.14079473650E-01  0.13841309732E-01  0.27636139618E-01  0.00000000000E+00 0. -1.
     999901    1    3    3    0    0 -0.11002432035E-01  0.57878555017E-01 -0.10899667293E+00  0.88867950092E+00  0.88000000000E+00 0. -1.
        -11    1    4    4    0    0 -0.15863488664E-01 -0.68213642084E-01  0.62428283148E-01  0.93820588875E-01  0.51100000000E-03 0. -1.
         11    1    4    4    0    0  0.75283205475E-02 -0.37443865830E-02  0.32727080049E-01  0.33793770590E-01  0.51100000000E-03 0.  1.
</event>
<event>
 8    1  0.2825007E+004  0.1043930E+01  0.7957747E-01            NaN
         13   -1    0    0    0    0  0.00000000000E+00  0.00000000000E+00  0.74505805969E-08  0.10566000000E+00  0.10566000000E+00 0. -1.
     999900   -1    0    0    0    0 -0.00000000000E+00 -0.00000000000E+00 -0.74505805969E-08  0.93827000000E+00  0.93827000000E+00 0.  1.
     999902    2    1    2    0    0  0.10231196557E-01  0.90133066213E-02  0.32388430778E-02  0.10299154653E+01  0.10298201097E+01 0.  0.
     999903    2    3    3    0    0 -0.58289358350E-01  0.97197825676E-01 -0.68786395468E-01  0.13993838083E+00  0.44789682001E-01 0.  0.
         14    1    1    2    0    0 -0.10231196557E-01 -0.90133066213E-02 -0.32388430778E-02  0.14014534731E-01  0.00000000000E+00 0.  1.
     999901    1    3    3    0    0  0.68520554907E-01 -0.88184519055E-01  0.72025238546E-01  0.88997708444E+00  0.88000000000E+00 0.  1.
        -11    1    4    4    0    0 -0.81295731099E-02  0.15597112714E-01 -0.33536228421E-01  0.37872148364E-01  0.51100000000E-03 0.  1.
         11    1    4    4    0    0 -0.50159785240E-01  0.81600712962E-01 -0.35250167046E-01  0.10206623246E+00  0.51100000000E-03 0. -1.
</event>
<event>
 8    1  0.2825007E+004  0.1043930E+01  0.7957747E-01            NaN
         13   -1    0    0    0    0  0.00000000000E+00  0.00000000000E+00  0.74505805969E-08  0.10566000000E+00  0.10566000000E+00 0.  1.
     999900   -1    0    0    0    0 -0.00000000000E+00 -0.00000000000E+00 -0.74505805969E-08  0.93827000000E+00  0.93827000000E+00 0. -1.
     999902    2    1    2    0    0  0.43014968460E-02  0.11537377003E-01  0.60075418752E-02  0.10302294707E+01  0.10301383683E+01 0.  0.
     999903    2    3    3    0    0  0.82903604968E-01 -0.24933362638E-01  0.10179044278E+00  0.14080113164E+00  0.44373236772E-01 0.  0.
         14    1    1    2    0    0 -0.43014968460E-02 -0.11537377003E-01 -0.60075418752E-02  0.13700529282E-01  0.00000000000E+00 0. -1.
     999901    1    3    3    0    0 -0.78602108122E-01  0.36470739641E-01 -0.95782900900E-01  0.88942833908E+00  0.88000000000E+00 0. -1.
        -11    1    4    4    0    0  0.51046067025E-01 -0.12853925814E-01  0.28234137116E-01  0.59735684371E-01  0.51100000000E-03 0. -1.
         11    1    4    4    0    0  0.31857537943E-01 -0.12079436824E-01  0.73556305659E-01  0.81065447269E-01  0.51100000000E-03 0.  1.
</event>
<event>
 8    1  0.2825007E+004  0.1043930E+01  0.7957747E-01            NaN
         13   -1    0    0    0    0  0.00000000000E+00  0.00000000000E+00  0.74505805969E-08  0.10566000000E+00  0.10566000000E+00 0.  1.
     999900   -1    0    0    0    0 -0.00000000000E+00 -0.00000000000E+00 -0.74505805969E-08  0.93827000000E+00  0.93827000000E+00 0. -1.
     999902    2    1    2    0    0 -0.11817298242E-01 -0.17627404516E-02 -0.13891646834E-02  0.10319014685E+01  0.10318313598E+01 0.  0.
     999903    2    3    3    0    0 -0.49365004599E-01 -0.11293203859E+00  0.55216045901E-01  0.14231021800E+00  0.44864656501E-01 0.  0.
         14    1    1    2    0    0  0.11817298242E-01  0.17627404516E-02  0.13891646834E-02  0.12028531504E-01  0.00000000000E+00 0. -1.
     999901    1    3    3    0    0  0.37547706357E-01  0.11116929813E+00 -0.56605210584E-01  0.88959125050E+00  0.88000000000E+00 0.  1.
        -11    1    4    4    0    0 -0.15820002789E-02 -0.58569534328E-01  0.20910155290E-01  0.62212448847E-01  0.51100000000E-03 0.  1.
         11    1    4    4    0    0 -0.47783004320E-01 -0.54362504258E-01  0.34305890611E-01  0.80097769149E-01  0.51100000000E-03 0. -1.
</event>
<event>
 8    1  0.2825007E+004  0.1043930E+01  0.7957747E-01            NaN
         13   -1    0    0    0    0  0.00000000000E+00  0.00000000000E+00  0.74505805969E-08  0.10566000000E+00  0.10566000000E+00 0.  1.
     999900   -1    0    0    0    0 -0.00000000000E+00 -0.00000000000E+00 -0.74505805969E-08  0.93827000000E+00  0.93827000000E+00 0. -1.
     999902    2    1    2    0    0 -0.68755684501E-02 -0.11942446604E-01  0.23816335864E-02  0.10299454496E+01  0.10298505044E+01 0.  0.
     999903    2    3    3    0    0  0.35299646882E-01  0.11929395104E+00  0.41196449073E-01  0.13836913160E+00  0.44404474304E-01 0.  0.
         14    1    1    2    0    0  0.68755684501E-02  0.11942446604E-01 -0.23816335864E-02  0.13984550438E-01  0.00000000000E+00 0.  1.
     999901    1    3    3    0    0 -0.42175215332E-01 -0.13123639764E+00 -0.38814815487E-01  0.89157631796E+00  0.88000000000E+00 0. -1.
        -11    1    4    4    0    0  0.13964435716E-01  0.77662065701E-01  0.46002985496E-01  0.91339683103E-01  0.51100000000E-03 0. -1.
         11    1    4    4    0    0  0.21335211166E-01  0.41631885338E-01 -0.48065364226E-02  0.47029448494E-01  0.51100000000E-03 0.  1.
</event>
<event>
 8    1  0.2825007E+004  0.1043930E+01  0.7957747E-01            NaN
         13   -1    0    0    0    0  0.00000000000E+00  0.00000000000E+00  0.74505805969E-08  0.10566000000E+00  0.10566000000E+00 0. -1.
     999900   -1    0    0    0    0 -0.00000000000E+00 -0.00000000000E+00 -0.74505805969E-08  0.93827000000E+00  0.93827000000E+00 0.  1.
     999902    2    1    2    0    0 -0.13375047824E-01  0.30024651102E-03  0.24308605328E-02  0.10303325320E+01  0.10302428041E+01 0.  0.
     999903    2    3    3    0    0  0.22477159281E-01  0.11034620103E+00  0.70242821029E-01  0.14016740418E+00  0.45070395120E-01 0.  0.
         14    1    1    2    0    0  0.13375047824E-01 -0.30024651102E-03 -0.24308605328E-02  0.13597467970E-01  0.00000000000E+00 0. -1.
     999901    1    3    3    0    0 -0.35852207105E-01 -0.11004595452E+00 -0.67811960496E-01  0.89016512785E+00  0.88000000000E+00 0. -1.
        -11    1    4    4    0    0  0.12433664902E-01  0.85515029518E-01  0.29318046401E-01  0.91253631501E-01  0.51100000000E-03 0.  1.
         11    1    4    4    0    0  0.10043494379E-01  0.24831171512E-01  0.40924774627E-01  0.48913772675E-01  0.51100000000E-03 0. -1.
</event>
<event>
 8    1  0.2825007E+004  0.1043930E+01  0.7957747E-01            NaN
         13   -1    0    0    0    0  0.00000000000E+00  0.00000000000E+00  0.74505805969E-08  0.10566000000E+00  0.10566000000E+00 0.  1.
     999900   -1    0    0    0    0 -0.00000000000E+00 -0.00000000000E+00 -0.74505805969E-08  0.93827000000E+00  0.93827000000E+00 0.  1.
     999902    2    1    2    0    0 -0.49264352985E-02  0.11099342792E-01 -0.73254315773E-02  0.10297480705E+01  0.10296504075E+01 0.  0.
     999903    2    3    3    0    0 -0.40196044509E-02  0.61409862408E-01  0.11712580656E+00  0.13956826770E+00  0.44424299280E-01 0.  0.
         14    1    1    2    0    0  0.49264352985E-02 -0.11099342792E-01  0.73254315773E-02  0.14181929451E-01  0.00000000000E+00 0.  1.
     999901    1    3    3    0    0 -0.90683084757E-03 -0.50310519616E-01 -0.12445123813E+00  0.89017980285E+00  0.88000000000E+00 0.  1.
        -11    1    4    4    0    0  0.16403341091E-01  0.14537906884E-01  0.54343123999E-01  0.58599117591E-01  0.51100000000E-03 0.  1.
         11    1    4    4    0    0 -0.20422945542E-01  0.46871955524E-01  0.62782682558E-01  0.80969150109E-01  0.51100000000E-03 0. -1.
</event>
<event>
 7    1  0.2825007E+004  0.1043930E+01  0.7957747E-01            NaN
         13   -1    0    0    0    0  0.00000000000E+00  0.00000000000E+00  0.74505805969E-08  0.10566000000E+00  0.10566000000E+00 0. -1.
     999900   -1    0    0    0    0 -0.00000000000E+00 -0.00000000000E+00 -0.74505805969E-08  0.93827000000E+00  0.93827000000E+00 0. -1.
     999902    2    1    2    0    0 -0.12725735997E-01 -0.62222077823E-02 -0.35584465144E-02  0.10293244268E+01  0.10292207989E+01 0.  0.
         14    1    1    2    0    0  0.12725735997E-01  0.62222077823E-02  0.35584465144E-02  0.14605573181E-01  0.00000000000E+00 0.  1.
     999901    1    3    3    0    0  0.79465119993E-01 -0.96472939319E-01  0.42672333064E-01  0.88985541597E+00  0.88000000000E+00 0. -1.
        -11    1    3    3    0    0 -0.16117700114E-01  0.28687248699E-01 -0.18495663921E-01  0.37750353637E-01  0.51100000000E-03 0. -1.
         11    1    3    3    0    0 -0.76073155876E-01  0.61563482838E-01 -0.27735115657E-01  0.10171865722E+00  0.51100000000E-03 0.  1.
</event>
<event>
 8    1  0.2825007E+004  0.1043930E+01  0.7957747E-01            NaN
         13   -1    0    0    0    0  0.00000000000E+00  0.00000000000E+00  0.74505805969E-08  0.10566000000E+00  0.10566000000E+00 0. -1.
     999900   -1    0    0    0    0 -0.00000000000E+00 -0.00000000000E+00 -0.74505805969E-08  0.93827000000E+00  0.93827000000E+00 0.  1.
     999902    2    1    2    0    0  0.14699839486E-02  0.15227416621E-01  0.10983366364E-02  0.10285924183E+01  0.10284780608E+01 0.  0.
     999903    2    3    3    0    0 -0.12932855386E+00 -0.12609879634E-01  0.15630229108E-01  0.13837090177E+00  0.44914568738E-01 0.  0.
         14    1    1    2    0    0 -0.14699839486E-02 -0.15227416621E-01 -0.10983366364E-02  0.15337581724E-01  0.00000000000E+00 0.  1.
     999901    1    3    3    0    0  0.13079853781E+00  0.27837296255E-01 -0.14531892472E-01  0.89022151651E+00  0.88000000000E+00 0. -1.
        -11    1    4    4    0    0 -0.19152800860E-01 -0.13148248787E-01 -0.99245998720E-02  0.25267865571E-01  0.51100000000E-03 0. -1.
         11    1    4    4    0    0 -0.11017575300E+00  0.53836915290E-03  0.25554828980E-01  0.11310303620E+00  0.51100000000E-03 0.  1.
</event>
<event>
 8    1  0.2825007E+004  0.1043930E+01  0.7957747E-01            NaN
         13   -1    0    0    0    0  0.00000000000E+00  0.00000000000E+00  0.74505805969E-08  0.10566000000E+00  0.10566000000E+00 0. -1.
     999900   -1    0    0    0    0 -0.00000000000E+00 -0.00000000000E+00 -0.74505805969E-08  0.93827000000E+00  0.93827000000E+00 0.  1.
     999902    2    1    2    0    0  0.57905567900E-02  0.13470093684E-01  0.19653709129E-02  0.10291368714E+01  0.10290305454E+01 0.  0.
     999903    2    3    3    0    0 -0.77417967587E-01  0.99028425313E-01  0.44620894884E-01  0.14005679603E+00  0.42716637618E-01 0.  0.
         14    1    1    2    0    0 -0.57905567900E-02 -0.13470093684E-01 -0.19653709129E-02  0.14793128628E-01  0.00000000000E+00 0.  1.
     999901    1    3    3    0    0  0.83208524377E-01 -0.85558331629E-01 -0.42655523971E-01  0.88908007534E+00  0.88000000000E+00 0. -1.
        -11    1    4    4    0    0 -0.18410462372E-01  0.56724449202E-01  0.14023137127E-01  0.61265959210E-01  0.51100000000E-03 0. -1.
         11    1    4    4    0    0 -0.59007505215E-01  0.42303976111E-01  0.30597757757E-01  0.78790836823E-01  0.51100000000E-03 0.  1.
</event>
<event>
 8    1  0.2825007E+004  0.1043930E+01  0.7957747E-01            NaN
         13   -1    0    0    0    0  0.00000000000E+00  0.00000000000E+00  0.74505805969E-08  0.10566000000E+00  0.10566000000E+00 0.  1.
     999900   -1    0    0    0    0 -0.00000000000E+00 -0.00000000000E+00 -0.74505805969E-08  0.93827000000E+00  0.93827000000E+00 0.  1.
     999902    2    1    2    0    0 -0.28537984770E-02  0.13021707894E-01  0.25175564489E-02  0.10303636028E+01  0.10302742872E+01 0.  0.
     999903    2    3    3    0    0  0.63638802640E-01  0.10382682523E+00 -0.56268773844E-01  0.14125018599E+00  0.44221412156E-01 0.  0.
         14    1    1    2    0    0  0.28537984770E-02 -0.13021707894E-01 -0.25175564489E-02  0.13566397190E-01  0.00000000000E+00 0.  1.
     999901    1    3    3    0    0 -0.66492601117E-01 -0.90805117340E-01  0.58786330293E-01  0.88911341682E+00  0.88000000000E+00 0. -1.
        -11    1    4    4    0    0  0.17327742116E-01  0.13532868951E-01 -0.28579241975E-01  0.36061383525E-01  0.51100000000E-03 0.  1.
         11    1    4    4    0    0  0.46311060524E-01  0.90293956283E-01 -0.27689531869E-01  0.10518880247E+00  0.51100000000E-03 0. -1.
</event>
<event>
 8    1  0.2825007E+004  0.1043930E+01  0.7957747E-01            NaN
         13   -1    0    0    0    0  0.00000000000E+00  0.00000000000E+00  0.74505805969E-08  0.10566000000E+00  0.10566000000E+00 0.  1.
     999900   -1    0    0    0    0 -0.00000000000E+00 -0.00000000000E+00 -0.74505805969E-08  0.93827000000E+00  0.93827000000E+00 0.  1.
     999902    2    1    2    0    0  0.13560449363E-01  0.32464341608E-02  0.28141317550E-02  0.10297052167E+01  0.10296069585E+01 0.  0.
     999903    2    3    3    0    0  0.80740006898E-01 -0.53882509640E-01  0.91416034786E-01  0.14087052659E+00  0.45446015077E-01 0.  0.
         14    1    1    2    0    0 -0.13560449363E-01 -0.32464341608E-02 -0.28141317550E-02  0.14224783275E-01  0.00000000000E+00 0. -1.
     999901    1    3    3    0    0 -0.67179557535E-01  0.57128943800E-01 -0.88601903031E-01  0.88883469014E+00  0.88000000000E+00 0.  1.
        -11    1    4    4    0    0  0.43125714425E-01 -0.11426983863E-01  0.18040668099E-01  0.48126188623E-01  0.51100000000E-03 0. -1.
         11    1    4    4    0    0  0.37614292472E-01 -0.42455525777E-01  0.73375366687E-01  0.92744337965E-01  0.51100000000E-03 0.  1.
</event>
<event>
 8    1  0.2825007E+004  0.1043930E+01  0.7957747E-01            NaN
         13   -1    0    0    0    0  0.00000000000E+00  0.00000000000E+00  0.74505805969E-08  0.10566000000E+00  0.10566000000E+00 0.  1.
     999900   -1    0    0    0    0 -0.00000000000E+00 -0.00000000000E+00 -0.74505805969E-08  0.93827000000E+00  0.93827000000E+00 0. -1.
     999902    2    1    2    0    0 -0.20175476537E-02  0.12551393005E-01  0.67630074538E-02  0.10295304780E+01  0.10294297736E+01 0.  0.
     999903    2    3    3    0    0 -0.13061074246E+00  0.92168342538E-02 -0.19597759927E-01  0.13978769543E+00  0.44859909934E-01 0.  0.
         14    1    1    2    0    0  0.20175476537E-02 -0.12551393005E-01 -0.67630074538E-02  0.14399522031E-01  0.00000000000E+00 0.  1.
     999901    1    3    3    0    0  0.12859319480E+00  0.33345587514E-02  0.26360767380E-01  0.88974278254E+00  0.88000000000E+00 0.  1.
        -11    1    4    4    0    0 -0.31683890498E-01 -0.91997567633E-02  0.10716280753E-01  0.34692999810E-01  0.51100000000E-03 0.  1.
         11    1    4    4    0    0 -0.98926851959E-01  0.18416591017E-01 -0.30314040680E-01  0.10509469562E+00  0.51100000000E-03 0. -1.
</event>
<event>
 8    1  0.2825007E+004  0.1043930E+01  0.7957747E-01            NaN
         13   -1    0    0    0    0  0.00000000000E+00  0.00000000000E+00  0.74505805969E-08  0.10566000000E+00  0.10566000000E+00 0.  1.
     999900   -1    0    0    0    0 -0.00000000000E+00 -0.00000000000E+00 -0.74505805969E-08  0.93827000000E+00  0.93827000000E+00 0. -1.
     999902    2    1    2    0    0  0.34206687587E-02 -0.83051491491E-02  0.10780217125E-01  0.10298982660E+01  0.10298026747E+01 0.  0.
     999903    2    3    3    0    0 -0.91776117812E-01  0.45365927582E-01 -0.81072470335E-01  0.13839395933E+00  0.45817238545E-01 0.  0.
         14    1    1    2    0    0 -0.34206687587E-02  0.83051491491E-02 -0.10780217125E-01  0.14031733978E-01  0.00000000000E+00 0. -1.
     999901    1    3    3    0    0  0.95196786570E-01 -0.53671076731E-01  0.91852687461E-01  0.89150430669E+00  0.88000000000E+00 0.  1.
        -11    1    4    4    0    0 -0.41324058190E-01  0.37090315420E-01 -0.63439069061E-01  0.84309820825E-01  0.51100000000E-03 0.  1.
         11    1    4    4    0    0 -0.50452059622E-01  0.82756121616E-02 -0.17633401274E-01  0.54084138509E-01  0.51100000000E-03 0. -1.
</event>
<event>
 8    1  0.2825007E+004  0.1043930E+01  0.7957747E-01            NaN
         13   -1    0    0    0    0  0.00000000000E+00  0.00000000000E+00  0.74505805969E-08  0.10566000000E+00  0.10566000000E+00 0. -1.
     999900   -1    0    0    0    0 -0.00000000000E+00 -0.00000000000E+00 -0.74505805969E-08  0.93827000000E+00  0.93827000000E+00 0. -1.
     999902    2    1    2    0    0 -0.29081370710E-02 -0.11356211787E-01  0.38989161253E-02  0.10315759580E+01  0.10315019800E+01 0.  0.
     999903    2    3    3    0    0  0.63370896172E-01 -0.86479238284E-01  0.82405552573E-01  0.14241923876E+00  0.44699388575E-01 0.  0.
         14    1    1    2    0    0  0.29081370710E-02  0.11356211787E-01 -0.38989161253E-02  0.12354042024E-01  0.00000000000E+00 0.  1.
     999901    1    3    3    0    0 -0.66279033243E-01  0.75123026497E-01 -0.78506636448E-01  0.88915671921E+00  0.88000000000E+00 0. -1.
        -11    1    4    4    0    0  0.12582938310E-01 -0.92881040784E-02 -0.37408082018E-02  0.16088939707E-01  0.51100000000E-03 0. -1.
         11    1    4    4    0    0  0.50787957861E-01 -0.77191134205E-01  0.86146360775E-01  0.12633029906E+00  0.51100000000E-03 0.  1.
</event>
<event>
 8    1  0.2825007E+004  0.1043930E+01  0.7957747E-01            NaN
         13   -1    0    0    0    0  0.00000000000E+00  0.00000000000E+00  0.74505805969E-08  0.10566000000E+00  0.10566000000E+00 0.  1.
     999900   -1    0    0    0    0 -0.00000000000E+00 -0.00000000000E+00 -0.74505805969E-08  0.93827000000E+00  0.93827000000E+00 0.  1.
     999902    2    1    2    0    0 -0.93002209438E-02 -0.95799626682E-02  0.11453560317E-01  0.10263386999E+01  0.10261879327E+01 0.  0.
     999903    2    3    3    0    0 -0.11277753032E+00  0.63816211996E-01  0.73504175006E-02  0.13723162663E+00  0.44578138720E-01 0.  0.
         14    1    1    2    0    0  0.93002209438E-02  0.95799626682E-02 -0.11453560317E-01  0.17591300073E-01  0.00000000000E+00 0. -1.
     999901    1    3    3    0    0  0.10347730937E+00 -0.73396174665E-01  0.41031428161E-02  0.88910707330E+00  0.88000000000E+00 0. -1.
        -11    1    4    4    0    0 -0.34974417201E-01  0.43640742686E-01  0.99737723711E-02  0.56810751950E-01  0.51100000000E-03 0. -1.
         11    1    4    4    0    0 -0.77803113115E-01  0.20175469310E-01 -0.26233548704E-02  0.80420874678E-01  0.51100000000E-03 0.  1.
</event>
<event>
 8    1  0.2825007E+004  0.1043930E+01  0.7957747E-01            NaN
         13   -1    0    0    0    0  0.00000000000E+00  0.00000000000E+00  0.74505805969E-08  0.10566000000E+00  0.10566000000E+00 0. -1.
     999900   -1    0    0    0    0 -0.00000000000E+00 -0.00000000000E+00 -0.74505805969E-08  0.93827000000E+00  0.93827000000E+00 0. -1.
     999902    2    1    2    0    0  0.81424560784E-02  0.19632968997E-02 -0.11378357874E-01  0.10298012650E+01  0.10297043382E+01 0.  0.
     999903    2    3    3    0    0 -0.47934642734E-01  0.98526486552E-02  0.12136086903E+00  0.13804648632E+00  0.43972345801E-01 0.  0.
         14    1    1    2    0    0 -0.81424560784E-02 -0.19632968997E-02  0.11378357874E-01  0.14128735032E-01  0.00000000000E+00 0. -1.
     999901    1    3    3    0    0  0.56077098813E-01 -0.78893517555E-02 -0.13273922690E+00  0.89175477865E+00  0.88000000000E+00 0. -1.
        -11    1    4    4    0    0 -0.67330145231E-02 -0.10146797624E-01  0.61376931625E-01  0.62575393273E-01  0.51100000000E-03 0.  1.
         11    1    4    4    0    0 -0.41201628211E-01  0.19999446279E-01  0.59983937401E-01  0.75471093048E-01  0.51100000000E-03 0. -1.
</event>
<event>
 7    1  0.2825007E+004  0.1043930E+01  0.7957747E-01            NaN
         13   -1    0    0    0    0  0.00000000000E+00  0.00000000000E+00  0.74505805969E-08  0.10566000000E+00  0.10566000000E+00 0.  1.
     999900   -1    0    0    0    0 -0.00000000000E+00 -0.00000000000E+00 -0.74505805969E-08  0.93827000000E+00  0.93827000000E+00 0. -1.
     999903    2    1    2    0    0  0.74245422232E-01  0.51075046240E-01  0.67002715022E-01  0.12095095582E+00  0.44930243967E-01 0.  0.
         14    1    1    2    0    0  0.14157477231E-01  0.28466259342E-01 -0.92191183153E-02  0.33102178553E-01  0.00000000000E+00 0. -1.
     999901    1    1    2    0    0 -0.88402899463E-01 -0.79541305583E-01 -0.57783596706E-01  0.88987686563E+00  0.88000000000E+00 0. -1.
        -11    1    3    3    0    0  0.58915793390E-01  0.15202659060E-01  0.48290906345E-01  0.77681814538E-01  0.51100000000E-03 0.  1.
         11    1    3    3    0    0  0.15329628842E-01  0.35872387180E-01  0.18711808677E-01  0.43269141283E-01  0.51100000000E-03 0. -1.
</event>
<event>
 8    1  0.2825007E+004  0.1043930E+01  0.7957747E-01            NaN
         13   -1    0    0    0    0  0.00000000000E+00  0.00000000000E+00  0.74505805969E-08  0.10566000000E+00  0.10566000000E+00 0.  1.
     999900   -1    0    0    0    0 -0.00000000000E+00 -0.00000000000E+00 -0.74505805969E-08  0.93827000000E+00  0.93827000000E+00 0. -1.
     999902    2    1    2    0    0  0.79529372110E-02  0.72669697692E-02  0.86208174322E-02  0.10301322990E+01  0.10300398909E+01 0.  0.
     999903    2    3    3    0    0 -0.89893438508E-01 -0.86556342680E-01  0.41024298036E-01  0.13916276374E+00  0.45939645581E-01 0.  0.
         14    1    1    2    0    0 -0.79529372110E-02 -0.72669697692E-02 -0.86208174322E-02  0.13797701008E-01  0.00000000000E+00 0. -1.
     999901    1    3    3    0    0  0.97846375719E-01  0.93823312449E-01 -0.32403480604E-01  0.89096953526E+00  0.88000000000E+00 0.  1.
        -11    1    4    4    0    0 -0.30468043096E-01 -0.45846896970E-01  0.38327498034E-01  0.67078296329E-01  0.51100000000E-03 0.  1.
         11    1    4    4    0    0 -0.59425395413E-01 -0.40709445710E-01  0.26968000014E-02  0.72084467406E-01  0.51100000000E-03 0. -1.
</event>
<event>
 8    1  0.2825007E+004  0.1043930E+01  0.7957747E-01            NaN
         13   -1    0    0    0    0  0.00000000000E+00  0.00000000000E+00  0.74505805969E-08  0.10566000000E+00  0.10566000000E+00 0. -1.
     999900   -1    0    0    0    0 -0.00000000000E+00 -0.00000000000E+00 -0.74505805969E-08  0.93827000000E+00  0.93827000000E+00 0. -1.
     999902    2    1    2    0    0  0.94157195523E-02  0.51371658039E-02  0.83447780948E-02  0.10303402403E+01  0.10302506148E+01 0.  0.
     999903    2    3    3    0    0  0.51703052201E-01 -0.82265323221E-01  0.91733417851E-01  0.14108151595E+00  0.45256879937E-01 0.  0.
         14    1    1    2    0    0 -0.94157195523E-02 -0.51371658039E-02 -0.83447780948E-02  0.13589759698E-01  0.00000000000E+00 0. -1.
     999901    1    3    3    0    0 -0.42287332649E-01  0.87402489025E-01 -0.83388639756E-01  0.88925872435E+00  0.88000000000E+00 0. -1.
        -11    1    4    4    0    0  0.93785771442E-02 -0.31757601483E-01  0.71899449783E-02  0.33888927262E-01  0.51100000000E-03 0.  1.
         11    1    4    4    0    0  0.42324475057E-01 -0.50507721738E-01  0.84543472872E-01  0.10719258869E+00  0.51100000000E-03 0. -1.
</event>
<event>
 8    1  0.2825007E+004  0.1043930E+01  0.7957747E-01            NaN
         13   -1    0    0    0    0  0.00000000000E+00  0.00000000000E+00  0.74505805969E-08  0.10566000000E+00  0.10566000000E+00 0.  1.
     999900   -1    0    0    0    0 -0.00000000000E+00 -0.00000000000E+00 -0.74505805969E-08  0.93827000000E+00  0.93827000000E+00 0. -1.
     999902    2    1    2    0    0 -0.84742805592E-03  0.10851667307E-01  0.83927233711E-02  0.10301853784E+01  0.10300936847E+01 0.  0.
     999903    2    3    3    0    0 -0.76464587354E-01 -0.10546489457E+00  0.19195875360E-01  0.13925092208E+00  0.45306297157E-01 0.  0.
         14    1    1    2    0    0  0.84742805592E-03 -0.10851667307E-01 -0.83927233711E-02  0.13744621611E-01  0.00000000000E+00 0. -1.
     999901    1    3    3    0    0  0.75617159298E-01  0.11631656188E+00 -0.10803151989E-01  0.89093445631E+00  0.88000000000E+00 0. -1.
        -11    1    4    4    0    0 -0.36538745778E-01 -0.34190373039E-01 -0.12566392412E-01  0.51596869002E-01  0.51100000000E-03 0.  1.
         11    1    4    4    0    0 -0.39925841576E-01 -0.71274521536E-01  0.31762267772E-01  0.87654053076E-01  0.51100000000E-03 0. -1.
</event>
<event>
 8    1  0.2825007E+004  0.1043930E+01  0.7957747E-01            NaN
         13   -1    0    0    0    0  0.00000000000E+00  0.00000000000E+00  0.74505805969E-08  0.10566000000E+00  0.10566000000E+00 0. -1.
     999900   -1    0    0    0    0 -0.00000000000E+00 -0.00000000000E+00 -0.74505805969E-08  0.93827000000E+00  0.93827000000E+00 0. -1.
     999902    2    1    2    0    0  0.11361448112E-01  0.13225189607E-02 -0.90535949557E-02  0.10293423634E+01  0.10292389917E+01 0.  0.
     999903    2    3    3    0    0 -0.51251448717E-01  0.11009345992E+00  0.49968577557E-01  0.13848035990E+00  0.43962147628E-01 0.  0.
         14    1    1    2    0    0 -0.11361448112E-01 -0.13225189607E-02  0.90535949557E-02  0.14587636588E-01  0.00000000000E+00 0. -1.
     999901    1    3    3    0    0  0.62612896828E-01 -0.10877094096E+00 -0.59022172513E-01  0.89086200351E+00  0.88000000000E+00 0. -1.
        -11    1    4    4    0    0 -0.36178267066E-01  0.96607742380E-01  0.24638987369E-01  0.10606254624E+00  0.51100000000E-03 0.  1.
         11    1    4    4    0    0 -0.15073181651E-01  0.13485717537E-01  0.25329590188E-01  0.32417813663E-01  0.51100000000E-03 0. -1.
</event>
<event>
 8    1  0.2825007E+004  0.1043930E+01  0.7957747E-01            NaN
         13   -1    0    0    0    0  0.00000000000E+00  0.00000000000E+00  0.74505805969E-08  0.10566000000E+00  0.10566000000E+00 0. -1.
     999900   -1    0    0    0    0 -0.00000000000E+00 -0.00000000000E+00 -0.74505805969E-08  0.93827000000E+00  0.93827000000E+00 0. -1.
     999902    2    1    2    0    0  0.40724400608E-02 -0.12181825906E-01 -0.63451853023E-02  0.10296036946E+01  0.10295040189E+01 0.  0.
     999903    2    3    3    0    0 -0.66173831094E-01 -0.16040224325E-01  0.11215502915E+00  0.13887830105E+00  0.45521063484E-01 0.  0.
         14    1    1    2    0    0 -0.40724400608E-02  0.12181825906E-01  0.63451853023E-02  0.14326305419E-01  0.00000000000E+00 0. -1.
     999901    1    3    3    0    0  0.70246271154E-01  0.38583984193E-02 -0.11850021446E+00  0.89072539353E+00  0.88000000000E+00 0.  1.
        -11    1    4    4    0    0 -0.45720833565E-02 -0.19541476966E-01  0.30936492310E-01  0.36879546440E-01  0.51100000000E-03 0. -1.
         11    1    4    4    0    0 -0.61601747737E-01  0.35012526406E-02  0.81218536844E-01  0.10199875461E+00  0.51100000000E-03 0.  1.
</event>
<event>
 7    1  0.2825007E+004  0.1043930E+01  0.7957747E-01            NaN
         13   -1    0    0    0    0  0.00000000000E+00  0.00000000000E+00  0.74505805969E-08  0.10566000000E+00  0.10566000000E+00 0. -1.
     999900   -1    0    0    0    0 -0.00000000000E+00 -0.00000000000E+00 -0.74505805969E-08  0.93827000000E+00  0.93827000000E+00 0. -1.
     999903    2    1    2    0    0  0.10249093075E+00 -0.27055619266E-01 -0.85117183670E-02  0.11536444411E+00  0.44722569204E-01 0.  0.
         14    1    1    2    0    0  0.35522814314E-01  0.67549716995E-02 -0.95322401164E-02  0.37394699907E-01  0.00000000000E+00 0.  1.
     999901    1    1    2    0    0 -0.13801374506E+00  0.20300647566E-01  0.18043958483E-01  0.89117085598E+00  0.88000000000E+00 0.  1.
        -11    1    3    3    0    0  0.55997643888E-01 -0.37032194525E-01 -0.49363727484E-03  0.67138843832E-01  0.51100000000E-03 0.  1.
         11    1    3    3    0    0  0.46493286858E-01  0.99765752593E-02 -0.80180810922E-02  0.48225600278E-01  0.51100000000E-03 0. -1.
</event>
<event>
 8    1  0.2825007E+004  0.1043930E+01  0.7957747E-01            NaN
         13   -1    0    0    0    0  0.00000000000E+00  0.00000000000E+00  0.74505805969E-08  0.10566000000E+00  0.10566000000E+00 0. -1.
     999900   -1    0    0    0    0 -0.00000000000E+00 -0.00000000000E+00 -0.74505805969E-08  0.93827000000E+00  0.93827000000E+00 0. -1.
     999902    2    1    2    0    0  0.11905379566E-01  0.44014398733E-02 -0.70628173227E-02  0.10294043632E+01  0.10293018745E+01 0.  0.
     999903    2    3    3    0    0 -0.72412106993E-01 -0.49928507596E-01  0.95959982486E-01  0.13773464913E+00  0.45012734000E-01 0.  0.
         14    1    1    2    0    0 -0.11905379566E-01 -0.44014398733E-02  0.70628173227E-02  0.14525636788E-01  0.00000000000E+00 0.  1.
     999901    1    3    3    0    0  0.84317486559E-01  0.54329947470E-01 -0.10302279981E+00  0.89166971408E+00  0.88000000000E+00 0. -1.
        -11    1    4    4    0    0 -0.46756080389E-01 -0.12722986339E-01  0.27550353202E-01  0.55743058019E-01  0.51100000000E-03 0.  1.
         11    1    4    4    0    0 -0.25656026604E-01 -0.37205521257E-01  0.68409629284E-01  0.81991591111E-01  0.51100000000E-03 0. -1.
</event>
<event>
 8    1  0.2825007E+004  0.1043930E+01  0.7957747E-01            NaN
         13   -1    0    0    0    0  0.00000000000E+00  0.00000000000E+00  0.74505805969E-08  0.10566000000E+00  0.10566000000E+00 0.  1.
     999900   -1    0    0    0    0 -0.00000000000E+00 -0.00000000000E+00 -0.74505805969E-08  0.93827000000E+00  0.93827000000E+00 0. -1.
     999902    2    1    2    0    0 -0.95018345580E-02  0.19876469488E-02 -0.71890962674E-02  0.10318503185E+01  0.10317796088E+01 0.  0.
     999903    2    3    3    0    0  0.29795905744E-01  0.58804232931E-01 -0.11788393275E+00  0.14222917235E+00  0.44573333474E-01 0.  0.
         14    1    1    2    0    0  0.95018345580E-02 -0.19876469488E-02  0.71890962674E-02  0.12079681515E-01  0.00000000000E+00 0. -1.
     999901    1    3    3    0    0 -0.39297740302E-01 -0.56816585982E-01  0.11069483648E+00  0.88962114614E+00  0.88000000000E+00 0.  1.
        -11    1    4    4    0    0  0.29426871788E-01  0.25630524481E-01 -0.33063100119E-01  0.51149724133E-01  0.51100000000E-03 0. -1.
         11    1    4    4    0    0  0.36903395652E-03  0.33173708450E-01 -0.84820832626E-01  0.91079448213E-01  0.51100000000E-03 0.  1.
</event>
<event>
 8    1  0.2825007E+004  0.1043930E+01  0.7957747E-01            NaN
         13   -1    0    0    0    0  0.00000000000E+00  0.00000000000E+00  0.74505805969E-08  0.10566000000E+00  0.10566000000E+00 0. -1.
     999900   -1    0    0    0    0 -0.00000000000E+00 -0.00000000000E+00 -0.74505805969E-08  0.93827000000E+00  0.93827000000E+00 0.  1.
     999902    2    1    2    0    0 -0.87050466807E-02 -0.10102415394E-01 -0.33553391209E-02  0.10301788206E+01  0.10300870388E+01 0.  0.
     999903    2    3    3    0    0  0.92384216418E-01  0.77251590535E-01  0.51718731128E-01  0.13839245902E+00  0.44440903251E-01 0.  0.
         14    1    1    2    0    0  0.87050466807E-02  0.10102415394E-01  0.33553391209E-02  0.13751179408E-01  0.00000000000E+00 0. -1.
     999901    1    3    3    0    0 -0.10108926310E+00 -0.87354005929E-01 -0.55074070249E-01  0.89178636157E+00  0.88000000000E+00 0.  1.
        -11    1    4    4    0    0  0.34970888690E-01  0.56177849326E-01  0.18123866947E-01  0.68612312924E-01  0.51100000000E-03 0. -1.
         11    1    4    4    0    0  0.57413327728E-01  0.21073741209E-01  0.33594864181E-01  0.69780146100E-01  0.51100000000E-03 0.  1.
</event>
<event>
 8    1  0.2825007E+004  0.1043930E+01  0.7957747E-01            NaN
         13   -1    0    0    0    0  0.00000000000E+00  0.00000000000E+00  0.74505805969E-08  0.10566000000E+00  0.10566000000E+00 0.  1.
     999900   -1    0    0    0    0 -0.00000000000E+00 -0.00000000000E+00 -0.74505805969E-08  0.93827000000E+00  0.93827000000E+00 0. -1.
     999902    2    1    2    0    0  0.10316228126E-01  0.59257750039E-02 -0.91826879219E-02  0.10289013231E+01  0.10287915588E+01 0.  0.
     999903    2    3    3    0    0 -0.84207957151E-01  0.31554482026E-01  0.93861707085E-01  0.13749243848E+00  0.44804968455E-01 0.  0.
         14    1    1    2    0    0 -0.10316228126E-01 -0.59257750039E-02  0.91826879219E-02  0.15028676908E-01  0.00000000000E+00 0.  1.
     999901    1    3    3    0    0  0.94524185277E-01 -0.25628707022E-01 -0.10304439501E+00  0.89140888461E+00  0.88000000000E+00 0. -1.
        -11    1    4    4    0    0 -0.71732968985E-01  0.66437342113E-02  0.73980275997E-01  0.10326228935E+00  0.51100000000E-03 0. -1.
         11    1    4    4    0    0 -0.12474988166E-01  0.24910747814E-01  0.19881431088E-01  0.34230149131E-01  0.51100000000E-03 0.  1.
</event>
<event>
 7    1  0.2825007E+004  0.1043930E+01  0.7957747E-01            NaN
         13   -1    0    0    0    0  0.00000000000E+00  0.00000000000E+00  0.74505805969E-08  0.10566000000E+00  0.10566000000E+00 0.  1.
     999900   -1    0    0    0    0 -0.00000000000E+00 -0.00000000000E+00 -0.74505805969E-08  0.93827000000E+00  0.93827000000E+00 0. -1.
     999903    2    1    2    0    0  0.90821828929E-01  0.30820541654E-01  0.56290860826E-01  0.11997880025E+00  0.45030446355E-01 0.  0.
         14    1    1    2    0    0 -0.60572645927E-02  0.18068941540E-01  0.28707298097E-01  0.34457017671E-01  0.00000000000E+00 0.  1.
     999901    1    1    2    0    0 -0.84764564336E-01 -0.48889483194E-01 -0.84998158922E-01  0.88949418208E+00  0.88000000000E+00 0. -1.
        -11    1    3    3    0    0  0.58261912585E-01  0.36117757538E-02  0.13921434031E-01  0.60013022159E-01  0.51100000000E-03 0. -1.
         11    1    3    3    0    0  0.32559916344E-01  0.27208765900E-01  0.42369426795E-01  0.59965778091E-01  0.51100000000E-03 0.  1.
</event>
<event>
 8    1  0.2825007E+004  0.1043930E+01  0.7957747E-01            NaN
         13   -1    0    0    0    0  0.00000000000E+00  0.00000000000E+00  0.74505805969E-08  0.10566000000E+00  0.10566000000E+00 0.  1.
     999900   -1    0    0    0    0 -0.00000000000E+00 -0.00000000000E+00 -0.74505805969E-08  0.93827000000E+00  0.93827000000E+00 0.  1.
     999902    2    1    2    0    0  0.12534388837E-01  0.36275795685E-02 -0.48294935135E-02  0.10300161851E+01  0.10299222045E+01 0.  0.
     999903    2    3    3    0    0  0.95895223872E-01 -0.29704916456E-01  0.88051380535E-01  0.14058550155E+00  0.43965459260E-01 0.  0.
         14    1    1    2    0    0 -0.12534388837E-01 -0.36275795685E-02  0.48294935135E-02  0.13913814885E-01  0.00000000000E+00 0.  1.
     999901    1    3    3    0    0 -0.83360835035E-01  0.33332496024E-01 -0.92880874049E-01  0.88943068357E+00  0.88000000000E+00 0.  1.
        -11    1    4    4    0    0  0.21710079532E-01 -0.11078181833E-01  0.57673781981E-03  0.24385393446E-01  0.51100000000E-03 0. -1.
         11    1    4    4    0    0  0.74185144340E-01 -0.18626734623E-01  0.87474642716E-01  0.11620010810E+00  0.51100000000E-03 0.  1.
</event>
<event>
 8    1  0.2825007E+004  0.1043930E+01  0.7957747E-01            NaN
         13   -1    0    0    0    0  0.00000000000E+00  0.00000000000E+00  0.74505805969E-08  0.10566000000E+00  0.10566000000E+00 0. -1.
     999900   -1    0    0    0    0 -0.00000000000E+00 -0.00000000000E+00 -0.74505805969E-08  0.93827000000E+00  0.93827000000E+00 0.  1.
     999902    2    1    2    0    0 -0.11504710278E-01 -0.58088964172E-02  0.45766257241E-02  0.10302534822E+01  0.10301627010E+01 0.  0.
     999903    2    3    3    0    0  0.94191491082E-01  0.75784618405E-01 -0.50384599828E-01  0.13848561725E+00  0.44992364972E-01 0.  0.
         14    1    1    2    0    0  0.11504710278E-01  0.58088964172E-02 -0.45766257241E-02  0.13676517802E-01  0.00000000000E+00 0.  1.
     999901    1    3    3    0    0 -0.10569620136E+00 -0.81593514822E-01  0.54961225552E-01  0.89176786495E+00  0.88000000000E+00 0.  1.
        -11    1    4    4    0    0  0.61801345021E-01  0.60205286707E-01 -0.14126711921E-01  0.87429445295E-01  0.51100000000E-03 0.  1.
         11    1    4    4    0    0  0.32390146061E-01  0.15579331698E-01 -0.36257887907E-01  0.51056171953E-01  0.51100000000E-03 0. -1.
</event>
<event>
 8    1  0.2825007E+004  0.1043930E+01  0.7957747E-01            NaN
         13   -1    0    0    0    0  0.00000000000E+00  0.00000000000E+00  0.74505805969E-08  0.10566000000E+00  0.10566000000E+00 0. -1.
     999900   -1    0    0    0    0 -0.00000000000E+00 -0.00000000000E+00 -0.74505805969E-08  0.93827000000E+00  0.93827000000E+00 0.  1.
     999902    2    1    2    0    0 -0.11763361421E-01 -0.12111173973E-02  0.57867505184E-02  0.10307645164E+01  0.10306804346E+01 0.  0.
     999903    2    3    3    0    0  0.44220443315E-01 -0.12468615381E+00  0.14578110046E-01  0.14033902314E+00  0.44502084951E-01 0.  0.
         14    1    1    2    0    0  0.11763361421E-01  0.12111173973E-02 -0.57867505184E-02  0.13165483616E-01  0.00000000000E+00 0.  1.
     999901    1    3    3    0    0 -0.55983804737E-01  0.12347503641E+00 -0.87913595273E-02  0.89042549324E+00  0.88000000000E+00 0. -1.
        -11    1    4    4    0    0  0.14341599564E-01 -0.32762757150E-01  0.24225929141E-01  0.43199959466E-01  0.51100000000E-03 0. -1.
         11    1    4    4    0    0  0.29878843751E-01 -0.91923396662E-01 -0.96478190959E-02  0.97139063677E-01  0.51100000000E-03 0.  1.
</event>
<event>
 8    1  0.2825007E+004  0.1043930E+01  0.7957747E-01            NaN
         13   -1    0    0    0    0  0.00000000000E+00  0.00000000000E+00  0.74505805969E-08  0.10566000000E+00  0.10566000000E+00 0.  1.
     999900   -1    0    0    0    0 -0.00000000000E+00 -0.00000000000E+00 -0.74505805969E-08  0.93827000000E+00  0.93827000000E+00 0.  1.
     999902    2    1    2    0    0 -0.92592287431E-02 -0.68047553416E-03 -0.10428766532E-01  0.10299673521E+01  0.10298727062E+01 0.  0.
     999903    2    3    3    0    0  0.46747375093E-01  0.45665838241E-01  0.11429720010E+00  0.13820433024E+00  0.42022625903E-01 0.  0.
         14    1    1    2    0    0  0.92592287431E-02  0.68047553416E-03  0.10428766532E-01  0.13962647859E-01  0.00000000000E+00 0.  1.
     999901    1    3    3    0    0 -0.56006603836E-01 -0.46346313775E-01 -0.12472596663E+00  0.89176302190E+00  0.88000000000E+00 0.  1.
        -11    1    4    4    0    0  0.43937467417E-01  0.14495214393E-01  0.71981263623E-01  0.85569712616E-01  0.51100000000E-03 0. -1.
         11    1    4    4    0    0  0.28099076760E-02  0.31170623848E-01  0.42315936472E-01  0.52634617627E-01  0.51100000000E-03 0.  1.
</event>
<event>
 8    1  0.2825007E+004  0.1043930E+01  0.7957747E-01            NaN
         13   -1    0    0    0    0  0.00000000000E+00  0.00000000000E+00  0.74505805969E-08  0.10566000000E+00  0.10566000000E+00 0.  1.
     999900   -1    0    0    0    0 -0.00000000000E+00 -0.00000000000E+00 -0.74505805969E-08  0.93827000000E+00  0.93827000000E+00 0. -1.
     999902    2    1    2    0    0 -0.52954051021E-02  0.33388990647E-02 -0.12362764933E-01  0.10300726006E+01  0.10299793857E+01 0.  0.
     999903    2    3    3    0    0  0.53943195357E-01  0.11392312424E+00  0.39148264487E-01  0.13968421970E+00  0.45724698562E-01 0.  0.
         14    1    1    2    0    0  0.52954051021E-02 -0.33388990647E-02  0.12362764933E-01  0.13857399430E-01  0.00000000000E+00 0.  1.
     999901    1    3    3    0    0 -0.59238600460E-01 -0.11058422517E+00 -0.51511029420E-01  0.89038838087E+00  0.88000000000E+00 0.  1.
        -11    1    4    4    0    0  0.12712425949E-01  0.55212297633E-01 -0.25245589415E-02  0.56715413269E-01  0.51100000000E-03 0.  1.
         11    1    4    4    0    0  0.41230769409E-01  0.58710826605E-01  0.41672823429E-01  0.82968806429E-01  0.51100000000E-03 0. -1.
</event>
<event>
 8    1  0.2825007E+004  0.1043930E+01  0.7957747E-01            NaN
         13   -1    0    0    0    0  0.00000000000E+00  0.00000000000E+00  0.74505805969E-08  0.10566000000E+00  0.10566000000E+00 0. -1.
     999900   -1    0    0    0    0 -0.00000000000E+00 -0.00000000000E+00 -0.74505805969E-08  0.93827000000E+00  0.93827000000E+00 0. -1.
     999902    2    1    2    0    0 -0.87090176727E-02 -0.10621694379E-01  0.13427068925E-02  0.10301289043E+01  0.10300364505E+01 0.  0.
     999903    2    3    3    0    0 -0.51657390110E-01 -0.30507408895E-01  0.11998667638E+00  0.14090654976E+00  0.43112240811E-01 0.  0.
         14    1    1    2    0    0  0.87090176727E-02  0.10621694379E-01 -0.13427068925E-02  0.13801095685E-01  0.00000000000E+00 0.  1.
     999901    1    3    3    0    0  0.42948372437E-01  0.19885714516E-01 -0.11864396949E+00  0.88922235455E+00  0.88000000000E+00 0.  1.
        -11    1    4    4    0    0 -0.25501546985E-01 -0.92170268629E-02  0.95365189089E-01  0.99146673639E-01  0.51100000000E-03 0. -1.
         11    1    4    4    0    0 -0.26155843125E-01 -0.21290382032E-01  0.24621487290E-01  0.41759876126E-01  0.51100000000E-03 0.  1.
</event>
<event>
 8    1  0.2825007E+004  0.1043930E+01  0.7957747E-01            NaN
         13   -1    0    0    0    0  0.00000000000E+00  0.00000000000E+00  0.74505805969E-08  0.10566000000E+00  0.10566000000E+00 0. -1.
     999900   -1    0    0    0    0 -0.00000000000E+00 -0.00000000000E+00 -0.74505805969E-08  0.93827000000E+00  0.93827000000E+00 0.  1.
     999902    2    1    2    0    0  0.44180088865E-02  0.88189890434E-02  0.89028077048E-02  0.10306426618E+01  0.10305570062E+01 0.  0.
     999903    2    3    3    0    0 -0.13091295490E+00  0.13182743008E-01 -0.12736391351E-01  0.14002390668E+00  0.46178916245E-01 0.  0.
         14    1    1    2    0    0 -0.44180088865E-02 -0.88189890434E-02 -0.89028077048E-02  0.13287338157E-01  0.00000000000E+00 0. -1.
     999901    1    3    3    0    0  0.13533096378E+00 -0.43637539646E-02  0.21639199055E-01  0.89061875516E+00  0.88000000000E+00 0. -1.
        -11    1    4    4    0    0 -0.98853273849E-01 -0.10641874322E-01 -0.70550727929E-02  0.99675746362E-01  0.51100000000E-03 0. -1.
         11    1    4    4    0    0 -0.32059681046E-01  0.23824617330E-01 -0.56813185578E-02  0.40348160321E-01  0.51100000000E-03 0.  1.
</event>
<event>
 8    1  0.2825007E+004  0.1043930E+01  0.7957747E-01            NaN
         13   -1    0    0    0    0  0.00000000000E+00  0.00000000000E+00  0.74505805969E-08  0.10566000000E+00  0.10566000000E+00 0.  1.
     999900   -1    0    0    0    0 -0.00000000000E+00 -0.00000000000E+00 -0.74505805969E-08  0.93827000000E+00  0.93827000000E+00 0.  1.
     999902    2    1    2    0    0  0.54513065201E-02 -0.10829159070E-01 -0.46921839877E-02  0.10309298454E+01  0.10308478754E+01 0.  0.
     999903    2    3    3    0    0 -0.54176294019E-01  0.11457815193E+00  0.34938766850E-01  0.13916022456E+00  0.45624850003E-01 0.  0.
         14    1    1    2    0    0 -0.54513065201E-02  0.10829159070E-01  0.46921839877E-02  0.13000154596E-01  0.00000000000E+00 0.  1.
     999901    1    3    3    0    0  0.59627600539E-01 -0.12540731100E+00 -0.39630950838E-01  0.89176962084E+00  0.88000000000E+00 0.  1.
        -11    1    4    4    0    0 -0.56410871292E-02  0.43959500846E-01  0.29610524999E-01  0.53303882507E-01  0.51100000000E-03 0. -1.
         11    1    4    4    0    0 -0.48535206890E-01  0.70618651081E-01  0.53282418505E-02  0.85856342052E-01  0.51100000000E-03 0.  1.
</event>
<event>
 8    1  0.2825007E+004  0.1043930E+01  0.7957747E-01            NaN
         13   -1    0    0    0    0  0.00000000000E+00  0.00000000000E+00  0.74505805969E-08  0.10566000000E+00  0.10566000000E+00 0.  1.
     999900   -1    0    0    0    0 -0.00000000000E+00 -0.00000000000E+00 -0.74505805969E-08  0.93827000000E+00  0.93827000000E+00 0. -1.
     999902    2    1    2    0    0 -0.81101143867E-02 -0.34258653176E-02  0.10910199838E-01  0.10299106217E+01  0.10298151998E+01 0.  0.
     999903    2    3    3    0    0 -0.99836834300E-01 -0.80290713067E-01 -0.36380789645E-01  0.14055218230E+00  0.44915053238E-01 0.  0.
         14    1    1    2    0    0  0.81101143867E-02  0.34258653176E-02 -0.10910199838E-01  0.14019378340E-01  0.00000000000E+00 0. -1.
     999901    1    3    3    0    0  0.91726719914E-01  0.76864847749E-01  0.47290989484E-01  0.88935843936E+00  0.88000000000E+00 0.  1.
        -11    1    4    4    0    0 -0.77477875584E-01 -0.61089662827E-01 -0.69693458395E-02  0.98912087289E-01  0.51100000000E-03 0. -1.
         11    1    4    4    0    0 -0.22358958716E-01 -0.19201050240E-01 -0.29411443806E-01  0.41640095016E-01  0.51100000000E-03 0.  1.
</event>
<event>
 8    1  0.2825007E+004  0.1043930E+01  0.7957747E-01            NaN
         13   -1    0    0    0    0  0.00000000000E+00  0.00000000000E+00  0.74505805969E-08  0.10566000000E+00  0.10566000000E+00 0.  1.
     999900   -1    0    0    0    0 -0.00000000000E+00 -0.00000000000E+00 -0.74505805969E-08  0.93827000000E+00  0.93827000000E+00 0.  1.
     999902    2    1    2    0    0 -0.66033038786E-02  0.55112560608E-02  0.13218936612E-01  0.10281592089E+01  0.10280382488E+01 0.  0.
     999903    2    3    3    0    0 -0.67627150115E-01  0.43172172432E-01  0.10642401353E+00  0.14033634328E+00  0.43942583946E-01 0.  0.
         14    1    1    2    0    0  0.66033038786E-02 -0.55112560608E-02 -0.13218936612E-01  0.15770791059E-01  0.00000000000E+00 0. -1.
     999901    1    3    3    0    0  0.61023846237E-01 -0.37660916372E-01 -0.93205076916E-01  0.88782286566E+00  0.88000000000E+00 0.  1.
        -11    1    4    4    0    0 -0.25810518663E-02  0.17355466295E-01  0.73337051491E-02  0.19024152840E-01  0.51100000000E-03 0. -1.
         11    1    4    4    0    0 -0.65046098249E-01  0.25816706137E-01  0.99090308379E-01  0.12131219044E+00  0.51100000000E-03 0.  1.
</event>
<event>
 8    1  0.2825007E+004  0.1043930E+01  0.7957747E-01            NaN
         13   -1    0    0    0    0  0.00000000000E+00  0.00000000000E+00  0.74505805969E-08  0.10566000000E+00  0.10566000000E+00 0.  1.
     999900   -1    0    0    0    0 -0.00000000000E+00 -0.00000000000E+00 -0.74505805969E-08  0.93827000000E+00  0.93827000000E+00 0. -1.
     999902    2    1    2    0    0 -0.80309377399E-02  0.73223246311E-02  0.92199542250E-02  0.10296779842E+01  0.10295793467E+01 0.  0.
     999903    2    3    3    0    0  0.85904583650E-01 -0.97209618359E-01 -0.12402421007E-01  0.13826431119E+00  0.46194072226E-01 0.  0.
         14    1    1    2    0    0  0.80309377399E-02 -0.73223246311E-02 -0.92199542250E-02  0.14252015819E-01  0.00000000000E+00 0. -1.
     999901    1    3    3    0    0 -0.93935521390E-01  0.10453194299E+00  0.21622375232E-01  0.89141367299E+00  0.88000000000E+00 0.  1.
        -11    1    4    4    0    0  0.54016258161E-01 -0.63189215897E-01  0.14562468356E-01  0.84397628859E-01  0.51100000000E-03 0.  1.
         11    1    4    4    0    0  0.31888325488E-01 -0.34020402462E-01 -0.26964889362E-01  0.53866682332E-01  0.51100000000E-03 0. -1.
</event>
<event>
 8    1  0.2825007E+004  0.1043930E+01  0.7957747E-01            NaN
         13   -1    0    0    0    0  0.00000000000E+00  0.00000000000E+00  0.74505805969E-08  0.10566000000E+00  0.10566000000E+00 0. -1.
     999900   -1    0    0    0    0 -0.00000000000E+00 -0.00000000000E+00 -0.74505805969E-08  0.93827000000E+00  0.93827000000E+00 0. -1.
     999902    2    1    2    0    0  0.12772926006E-01 -0.18887010184E-02  0.50798698480E-02  0.10300548457E+01  0.10299613901E+01 0.  0.
     999903    2    3    3    0    0 -0.67962575530E-01 -0.10832890223E+00 -0.32422000720E-01  0.13918216792E+00  0.44344413478E-01 0.  0.
         14    1    1    2    0    0 -0.12772926006E-01  0.18887010184E-02 -0.50798698480E-02  0.13875154340E-01  0.00000000000E+00 0. -1.
     999901    1    3    3    0    0  0.80735501535E-01  0.10644020121E+00  0.37501870568E-01  0.89087267774E+00  0.88000000000E+00 0.  1.
        -11    1    4    4    0    0 -0.14093938168E-01 -0.45668867461E-01  0.57797684763E-02  0.48145107674E-01  0.51100000000E-03 0. -1.
         11    1    4    4    0    0 -0.53868637362E-01 -0.62660034766E-01 -0.38201769196E-01  0.91037060250E-01  0.51100000000E-03 0.  1.
</event>
<event>
 8    1  0.2825007E+004  0.1043930E+01  0.7957747E-01            NaN
         13   -1    0    0    0    0  0.00000000000E+00  0.00000000000E+00  0.74505805969E-08  0.10566000000E+00  0.10566000000E+00 0.  1.
     999900   -1    0    0    0    0 -0.00000000000E+00 -0.00000000000E+00 -0.74505805969E-08  0.93827000000E+00  0.93827000000E+00 0. -1.
     999902    2    1    2    0    0  0.14241757249E-02 -0.13548697144E-02 -0.13331139848E-01  0.10304547175E+01  0.10303666054E+01 0.  0.
     999903    2    3    3    0    0  0.43271319235E-03  0.13232476439E+00  0.84617676030E-02  0.14009178119E+00  0.45211449139E-01 0.  0.
         14    1    1    2    0    0 -0.14241757249E-02  0.13548697144E-02  0.13331139848E-01  0.13475282486E-01  0.00000000000E+00 0.  1.
     999901    1    3    3    0    0  0.99146253259E-03 -0.13367963410E+00 -0.21792907451E-01  0.89036293633E+00  0.88000000000E+00 0.  1.
        -11    1    4    4    0    0  0.15071345091E-01  0.10463078310E+00  0.18236338462E-01  0.10727334887E+00  0.51100000000E-03 0.  1.
         11    1    4    4    0    0 -0.14638631899E-01  0.27693981288E-01 -0.97745708593E-02  0.32818432320E-01  0.51100000000E-03 0. -1.
</event>
<event>
 8    1  0.2825007E+004  0.1043930E+01  0.7957747E-01            NaN
         13   -1    0    0    0    0  0.00000000000E+00  0.00000000000E+00  0.74505805969E-08  0.10566000000E+00  0.10566000000E+00 0. -1.
     999900   -1    0    0    0    0 -0.00000000000E+00 -0.00000000000E+00 -0.74505805969E-08  0.93827000000E+00  0.93827000000E+00 0.  1.
     999902    2    1    2    0    0  0.57636094873E-02  0.76472433408E-02  0.86676019522E-02  0.10310138532E+01  0.10309329457E+01 0.  0.
     999903    2    3    3    0    0  0.13405859472E+00 -0.61222373304E-02 -0.21488917502E-02  0.14153861554E+00  0.44937438137E-01 0.  0.
         14    1    1    2    0    0 -0.57636094873E-02 -0.76472433408E-02 -0.86676019522E-02  0.12916146818E-01  0.00000000000E+00 0.  1.
     999901    1    3    3    0    0 -0.12829498523E+00  0.13769480671E-01  0.10816493702E-01  0.88947523764E+00  0.88000000000E+00 0. -1.
        -11    1    4    4    0    0  0.26048066318E-01  0.14854106609E-01  0.80086155633E-02  0.31041025858E-01  0.51100000000E-03 0.  1.
         11    1    4    4    0    0  0.10801052840E+00 -0.20976343940E-01 -0.10157507313E-01  0.11049758969E+00  0.51100000000E-03 0. -1.
</event>
<event>
 8    1  0.2825007E+004  0.1043930E+01  0.7957747E-01            NaN
         13   -1    0    0    0    0  0.00000000000E+00  0.00000000000E+00  0.74505805969E-08  0.10566000000E+00  0.10566000000E+00 0. -1.
     999900   -1    0    0    0    0 -0.00000000000E+00 -0.00000000000E+00 -0.74505805969E-08  0.93827000000E+00  0.93827000000E+00 0.  1.
     999902    2    1    2    0    0 -0.37099742132E-02 -0.21217573217E-01  0.67687260766E-02  0.10213520246E+01  0.10211024401E+01 0.  0.
     999903    2    3    3    0    0  0.57780563459E-01 -0.71699700680E-01  0.86764201978E-01  0.13414922499E+00  0.44593129843E-01 0.  0.
         14    1    1    2    0    0  0.37099742132E-02  0.21217573217E-01 -0.67687260766E-02  0.22577975431E-01  0.00000000000E+00 0.  1.
     999901    1    3    3    0    0 -0.61490537672E-01  0.50482127463E-01 -0.79995475901E-01  0.88720279958E+00  0.88000000000E+00 0. -1.
        -11    1    4    4    0    0  0.90604855027E-02 -0.30385361084E-01  0.53334202664E-01  0.62049664468E-01  0.51100000000E-03 0. -1.
         11    1    4    4    0    0  0.48720077956E-01 -0.41314339596E-01  0.33429999314E-01  0.72099560522E-01  0.51100000000E-03 0.  1.
</event>
<event>
 8    1  0.2825007E+004  0.1043930E+01  0.7957747E-01            NaN
         13   -1    0    0    0    0  0.00000000000E+00  0.00000000000E+00  0.74505805969E-08  0.10566000000E+00  0.10566000000E+00 0.  1.
     999900   -1    0    0    0    0 -0.00000000000E+00 -0.00000000000E+00 -0.74505805969E-08  0.93827000000E+00  0.93827000000E+00 0.  1.
     999902    2    1    2    0    0  0.11428977559E-01  0.66344889225E-02 -0.55004733489E-02  0.10296159098E+01  0.10295164052E+01 0.  0.
     999903    2    3    3    0    0 -0.73704762082E-01  0.10884232583E+00  0.10618639871E-01  0.13947321261E+00  0.45397991993E-01 0.  0.
         14    1    1    2    0    0 -0.11428977559E-01 -0.66344889225E-02  0.55004733489E-02  0.14314090204E-01  0.00000000000E+00 0. -1.
     999901    1    3    3    0    0  0.85133739641E-01 -0.10220783690E+00 -0.16119113220E-01  0.89014269719E+00  0.88000000000E+00 0. -1.
        -11    1    4    4    0    0 -0.38080844364E-01  0.58323786767E-01  0.28284964180E-01  0.75180550210E-01  0.51100000000E-03 0. -1.
         11    1    4    4    0    0 -0.35623917718E-01  0.50518539060E-01 -0.17666324309E-01  0.64292662396E-01  0.51100000000E-03 0.  1.
</event>
<event>
 8    1  0.2825007E+004  0.1043930E+01  0.7957747E-01            NaN
         13   -1    0    0    0    0  0.00000000000E+00  0.00000000000E+00  0.74505805969E-08  0.10566000000E+00  0.10566000000E+00 0. -1.
     999900   -1    0    0    0    0 -0.00000000000E+00 -0.00000000000E+00 -0.74505805969E-08  0.93827000000E+00  0.93827000000E+00 0.  1.
     999902    2    1    2    0    0  0.53541168810E-02 -0.10528398789E-01 -0.54804417402E-02  0.10309089021E+01  0.10308266661E+01 0.  0.
     999903    2    3    3    0    0 -0.10708399477E+00  0.27281660611E-01 -0.73734393898E-01  0.14033013999E+00  0.45216328984E-01 0.  0.
         14    1    1    2    0    0 -0.53541168810E-02  0.10528398789E-01  0.54804417402E-02  0.13021097892E-01  0.00000000000E+00 0. -1.
     999901    1    3    3    0    0  0.11243811165E+00 -0.37810059400E-01  0.68253952158E-01  0.89057876211E+00  0.88000000000E+00 0.  1.
        -11    1    4    4    0    0 -0.69300756544E-01  0.39219580272E-01 -0.52398299448E-01  0.95323728632E-01  0.51100000000E-03 0. -1.
         11    1    4    4    0    0 -0.37783238222E-01 -0.11937919661E-01 -0.21336094450E-01  0.45006411363E-01  0.51100000000E-03 0.  1.
</event>
<event>
 8    1  0.2825007E+004  0.1043930E+01  0.7957747E-01            NaN
         13   -1    0    0    0    0  0.00000000000E+00  0.00000000000E+00  0.74505805969E-08  0.10566000000E+00  0.10566000000E+00 0. -1.
     999900   -1    0    0    0    0 -0.00000000000E+00 -0.00000000000E+00 -0.74505805969E-08  0.93827000000E+00  0.93827000000E+00 0.  1.
     999902    2    1    2    0    0  0.10701810180E-01  0.76877769651E-02  0.53792632754E-02  0.10296973920E+01  0.10295990249E+01 0.  0.
     999903    2    3    3    0    0 -0.50019269884E-01  0.12283841017E+00 -0.39912333409E-02  0.14007133347E+00  0.44864753902E-01 0.  0.
         14    1    1    2    0    0 -0.10701810180E-01 -0.76877769651E-02 -0.53792632754E-02  0.14232607954E-01  0.00000000000E+00 0.  1.
     999901    1    3    3    0    0  0.60721080064E-01 -0.11515063321E+00  0.93704966163E-02  0.88962605858E+00  0.88000000000E+00 0. -1.
        -11    1    4    4    0    0 -0.25294835512E-01  0.10847075267E+00 -0.43783206366E-02  0.11146821835E+00  0.51100000000E-03 0. -1.
         11    1    4    4    0    0 -0.24724434372E-01  0.14367657499E-01  0.38708729565E-03  0.28603115121E-01  0.51100000000E-03 0.  1.
</event>
<event>
 8    1  0.2825007E+004  0.1043930E+01  0.7957747E-01            NaN
         13   -1    0    0    0    0  0.00000000000E+00  0.00000000000E+00  0.74505805969E-08  0.10566000000E+00  0.10566000000E+00 0.  1.
     999900   -1    0    0    0    0 -0.00000000000E+00 -0.00000000000E+00 -0.74505805969E-08  0.93827000000E+00  0.93827000000E+00 0.  1.
     999902    2    1    2    0    0 -0.83925051193E-02  0.10537136868E-01 -0.27625805535E-02  0.10301787365E+01  0.10300869536E+01 0.  0.
     999903    2    3    3    0    0 -0.32608359504E-01 -0.36379387145E-01 -0.12353992511E+00  0.14036148856E+00  0.45304188065E-01 0.  0.
         14    1    1    2    0    0  0.83925051193E-02 -0.10537136868E-01  0.27625805535E-02  0.13751263464E-01  0.00000000000E+00 0. -1.
     999901    1    3    3    0    0  0.24215854385E-01  0.46916524012E-01  0.12077734456E+00  0.88981724797E+00  0.88000000000E+00 0. -1.
        -11    1    4    4    0    0 -0.20512853983E-01  0.66291994295E-02 -0.47519825269E-01  0.52183506764E-01  0.51100000000E-03 0.  1.
         11    1    4    4    0    0 -0.12095505522E-01 -0.43008586574E-01 -0.76020099844E-01  0.88177981800E-01  0.51100000000E-03 0. -1.
</event>
<event>
 8    1  0.2825007E+004  0.1043930E+01  0.7957747E-01            NaN
         13   -1    0    0    0    0  0.00000000000E+00  0.00000000000E+00  0.74505805969E-08  0.10566000000E+00  0.10566000000E+00 0. -1.
     999900   -1    0    0    0    0 -0.00000000000E+00 -0.00000000000E+00 -0.74505805969E-08  0.93827000000E+00  0.93827000000E+00 0.  1.
     999902    2    1    2    0    0  0.53190105805E-02  0.42960244595E-02  0.10590937137E-01  0.10313238250E+01  0.10312467776E+01 0.  0.
     999903    2    3    3    0    0 -0.62677120656E-01 -0.72841159430E-01 -0.91150388578E-01  0.13951391452E+00  0.43834724199E-01 0.  0.
         14    1    1    2    0    0 -0.53190105805E-02 -0.42960244595E-02 -0.10590937137E-01  0.12606175041E-01  0.00000000000E+00 0.  1.
     999901    1    3    3    0    0  0.67996131236E-01  0.77137183889E-01  0.10174132572E+00  0.89180991044E+00  0.88000000000E+00 0. -1.
        -11    1    4    4    0    0 -0.62792085744E-01 -0.47121828772E-01 -0.58290098297E-01  0.97781948535E-01  0.51100000000E-03 0. -1.
         11    1    4    4    0    0  0.11496508825E-03 -0.25719330658E-01 -0.32860290282E-01  0.41731965984E-01  0.51100000000E-03 0.  1.
</event>
<event>
 8    1  0.2825007E+004  0.1043930E+01  0.7957747E-01            NaN
         13   -1    0    0    0    0  0.00000000000E+00  0.00000000000E+00  0.74505805969E-08  0.10566000000E+00  0.10566000000E+00 0.  1.
     999900   -1    0    0    0    0 -0.00000000000E+00 -0.00000000000E+00 -0.74505805969E-08  0.93827000000E+00  0.93827000000E+00 0. -1.
     999902    2    1    2    0    0 -0.64550738138E-02 -0.19446044489E-02  0.14176828262E-01  0.10282318497E+01  0.10281120098E+01 0.  0.
     999903    2    3    3    0    0  0.67803172772E-02  0.27213002767E-01 -0.12430595901E+00  0.13682687772E+00  0.49830741516E-01 0.  0.
         14    1    1    2    0    0  0.64550738138E-02  0.19446044489E-02 -0.14176828262E-01  0.15698150336E-01  0.00000000000E+00 0. -1.
     999901    1    3    3    0    0 -0.13235391091E-01 -0.29157607215E-01  0.13848278727E+00  0.89140497194E+00  0.88000000000E+00 0.  1.
        -11    1    4    4    0    0  0.24603359367E-01  0.11171322053E-01 -0.95971453704E-01  0.99704086052E-01  0.51100000000E-03 0.  1.
         11    1    4    4    0    0 -0.17823042089E-01  0.16041680713E-01 -0.28334505304E-01  0.37122791668E-01  0.51100000000E-03 0. -1.
</event>
<event>
 8    1  0.2825007E+004  0.1043930E+01  0.7957747E-01            NaN
         13   -1    0    0    0    0  0.00000000000E+00  0.00000000000E+00  0.74505805969E-08  0.10566000000E+00  0.10566000000E+00 0.  1.
     999900   -1    0    0    0    0 -0.00000000000E+00 -0.00000000000E+00 -0.74505805969E-08  0.93827000000E+00  0.93827000000E+00 0.  1.
     999902    2    1    2    0    0  0.10162637375E-01 -0.74755390140E-02 -0.37287426888E-02  0.10307745295E+01  0.10306905764E+01 0.  0.
     999903    2    3    3    0    0  0.61742004447E-01  0.11313426820E+00  0.37655298035E-01  0.14008951474E+00  0.39946375474E-01 0.  0.
         14    1    1    2    0    0 -0.10162637375E-01  0.74755390140E-02  0.37287426888E-02  0.13155470497E-01  0.00000000000E+00 0.  1.
     999901    1    3    3    0    0 -0.51579367072E-01 -0.12060980722E+00 -0.41384040724E-01  0.89068501477E+00  0.88000000000E+00 0.  1.
        -11    1    4    4    0    0  0.57021785175E-01  0.92628585869E-01  0.16094614839E-01  0.10995834053E+00  0.51100000000E-03 0.  1.
         11    1    4    4    0    0  0.47202192716E-02  0.20505682335E-01  0.21560683196E-01  0.30131174203E-01  0.51100000000E-03 0. -1.
</event>
<event>
 8    1  0.2825007E+004  0.1043930E+01  0.7957747E-01            NaN
         13   -1    0    0    0    0  0.00000000000E+00  0.00000000000E+00  0.74505805969E-08  0.10566000000E+00  0.10566000000E+00 0. -1.
     999900   -1    0    0    0    0 -0.00000000000E+00 -0.00000000000E+00 -0.74505805969E-08  0.93827000000E+00  0.93827000000E+00 0.  1.
     999902    2    1    2    0    0 -0.68918280499E-02  0.11721212981E-01 -0.27039028718E-02  0.10300665510E+01  0.10299732541E+01 0.  0.
     999903    2    3    3    0    0  0.87283766844E-02 -0.96927129635E-01 -0.88616026082E-01  0.13909553796E+00  0.44985726443E-01 0.  0.
         14    1    1    2    0    0  0.68918280499E-02 -0.11721212981E-01  0.27039028718E-02  0.13863449006E-01  0.00000000000E+00 0.  1.
     999901    1    3    3    0    0 -0.15620204734E-01  0.10864834262E+00  0.85912123210E-01  0.89097101303E+00  0.88000000000E+00 0.  1.
        -11    1    4    4    0    0  0.26134170474E-01 -0.73590890318E-01 -0.64243171883E-01  0.10112398459E+00  0.51100000000E-03 0.  1.
         11    1    4    4    0    0 -0.17405793790E-01 -0.23336239317E-01 -0.24372854199E-01  0.37971553375E-01  0.51100000000E-03 0. -1.
</event>
<event>
 8    1  0.2825007E+004  0.1043930E+01  0.7957747E-01            NaN
         13   -1    0    0    0    0  0.00000000000E+00  0.00000000000E+00  0.74505805969E-08  0.10566000000E+00  0.10566000000E+00 0.  1.
     999900   -1    0    0    0    0 -0.00000000000E+00 -0.00000000000E+00 -0.74505805969E-08  0.93827000000E+00  0.93827000000E+00 0. -1.
     999902    2    1    2    0    0  0.17705875665E-02 -0.85012076557E-02 -0.11147435959E-01  0.10297995067E+01  0.10297025557E+01 0.  0.
     999903    2    3    3    0    0  0.60162082169E-01 -0.11202886453E+00  0.38912074166E-01  0.14039886756E+00  0.45030543837E-01 0.  0.
         14    1    1    2    0    0 -0.17705875665E-02  0.85012076557E-02  0.11147435959E-01  0.14130493282E-01  0.00000000000E+00 0.  1.
     999901    1    3    3    0    0 -0.58391494602E-01  0.10352765687E+00 -0.50059510125E-01  0.88940063916E+00  0.88000000000E+00 0. -1.
        -11    1    4    4    0    0  0.18907214922E-01 -0.80448252243E-01  0.28426234583E-01  0.87394027248E-01  0.51100000000E-03 0.  1.
         11    1    4    4    0    0  0.41254867247E-01 -0.31580612285E-01  0.10485839583E-01  0.53004840313E-01  0.51100000000E-03 0. -1.
</event>
<event>
 8    1  0.2825007E+004  0.1043930E+01  0.7957747E-01            NaN
         13   -1    0    0    0    0  0.00000000000E+00  0.00000000000E+00  0.74505805969E-08  0.10566000000E+00  0.10566000000E+00 0. -1.
     999900   -1    0    0    0    0 -0.00000000000E+00 -0.00000000000E+00 -0.74505805969E-08  0.93827000000E+00  0.93827000000E+00 0. -1.
     999902    2    1    2    0    0 -0.82907812705E-02 -0.15372133863E-01 -0.74083076653E-03  0.10264489135E+01  0.10263000457E+01 0.  0.
     999903    2    3    3    0    0  0.80325461390E-02 -0.12874473795E+00 -0.22399326502E-01  0.13876153117E+00  0.45970679334E-01 0.  0.
         14    1    1    2    0    0  0.82907812705E-02  0.15372133863E-01  0.74083076653E-03  0.17481086459E-01  0.00000000000E+00 0.  1.
     999901    1    3    3    0    0 -0.16323327410E-01  0.11337260409E+00  0.21658495735E-01  0.88768738237E+00  0.88000000000E+00 0.  1.
        -11    1    4    4    0    0 -0.16933430025E-01 -0.81082180183E-01 -0.90765826072E-02  0.83328905360E-01  0.51100000000E-03 0. -1.
         11    1    4    4    0    0  0.24965976164E-01 -0.47662557768E-01 -0.13322743895E-01  0.55432625814E-01  0.51100000000E-03 0.  1.
</event>
<event>
 8    1  0.2825007E+004  0.1043930E+01  0.7957747E-01            NaN
         13   -1    0    0    0    0  0.00000000000E+00  0.00000000000E+00  0.74505805969E-08  0.10566000000E+00  0.10566000000E+00 0. -1.
     999900   -1    0    0    0    0 -0.00000000000E+00 -0.00000000000E+00 -0.74505805969E-08  0.93827000000E+00  0.93827000000E+00 0. -1.
     999902    2    1    2    0    0 -0.17599366717E-02  0.32908950974E-02 -0.13693214006E-01  0.10297373442E+01  0.10296395324E+01 0.  0.
     999903    2    3    3    0    0  0.47129982553E-01  0.11688103967E+00 -0.43712175294E-01  0.14058376742E+00  0.44391763906E-01 0.  0.
         14    1    1    2    0    0  0.17599366717E-02 -0.32908950974E-02  0.13693214006E-01  0.14192655757E-01  0.00000000000E+00 0. -1.
     999901    1    3    3    0    0 -0.48889919225E-01 -0.11359014457E+00  0.30018961288E-01  0.88915357683E+00  0.88000000000E+00 0.  1.
        -11    1    4    4    0    0  0.36314030295E-01  0.33359501333E-01 -0.18515065366E-01  0.52674793706E-01  0.51100000000E-03 0.  1.
         11    1    4    4    0    0  0.10815952258E-01  0.83521538336E-01 -0.25197109928E-01  0.87908973711E-01  0.51100000000E-03 0. -1.
</event>
<event>
 8    1  0.2825007E+004  0.1043930E+01  0.7957747E-01            NaN
         13   -1    0    0    0    0  0.00000000000E+00  0.00000000000E+00  0.74505805969E-08  0.10566000000E+00  0.10566000000E+00 0. -1.
     999900   -1    0    0    0    0 -0.00000000000E+00 -0.00000000000E+00 -0.74505805969E-08  0.93827000000E+00  0.93827000000E+00 0. -1.
     999902    2    1    2    0    0  0.10495637740E-01 -0.32315051715E-02  0.15722158999E-02  0.10328361774E+01  0.10327765956E+01 0.  0.
     999903    2    3    3    0    0  0.34734242495E-01 -0.13060038730E+00  0.16194055702E-01  0.14321595488E+00  0.44560448029E-01 0.  0.
         14    1    1    2    0    0 -0.10495637740E-01  0.32315051715E-02 -0.15722158999E-02  0.11093822609E-01  0.00000000000E+00 0.  1.
     999901    1    3    3    0    0 -0.24238604755E-01  0.12736888213E+00 -0.14621839802E-01  0.88962022251E+00  0.88000000000E+00 0.  1.
        -11    1    4    4    0    0  0.94719896161E-03 -0.75438705934E-01 -0.37005069158E-02  0.75537079711E-01  0.51100000000E-03 0.  1.
         11    1    4    4    0    0  0.33787043533E-01 -0.55161681366E-01  0.19894562618E-01  0.67678875172E-01  0.51100000000E-03 0. -1.
</event>
<event>
 8    1  0.2825007E+004  0.1043930E+01  0.7957747E-01            NaN
         13   -1    0    0    0    0  0.00000000000E+00  0.00000000000E+00  0.74505805969E-08  0.10566000000E+00  0.10566000000E+00 0.  1.
     999900   -1    0    0    0    0 -0.00000000000E+00 -0.00000000000E+00 -0.74505805969E-08  0.93827000000E+00  0.93827000000E+00 0.  1.
     999902    2    1    2    0    0 -0.98101366154E-02 -0.52876499548E-02  0.84335474231E-02  0.10299542086E+01  0.10298593832E+01 0.  0.
     999903    2    3    3    0    0  0.96361372917E-01 -0.36134971494E-02 -0.89616500534E-01  0.13816443288E+00  0.41949038033E-01 0.  0.
         14    1    1    2    0    0  0.98101366154E-02  0.52876499548E-02 -0.84335474231E-02  0.13975791376E-01  0.00000000000E+00 0. -1.
     999901    1    3    3    0    0 -0.10617150953E+00 -0.16741528054E-02  0.98050047957E-01  0.89178977575E+00  0.88000000000E+00 0. -1.
        -11    1    4    4    0    0  0.85709009830E-01 -0.86204457989E-02 -0.56510309072E-01  0.10302437869E+00  0.51100000000E-03 0.  1.
         11    1    4    4    0    0  0.10652363086E-01  0.50069486495E-02 -0.33106191462E-01  0.35140054187E-01  0.51100000000E-03 0. -1.
</event>
<event>
 8    1  0.2825007E+004  0.1043930E+01  0.7957747E-01            NaN
         13   -1    0    0    0    0  0.00000000000E+00  0.00000000000E+00  0.74505805969E-08  0.10566000000E+00  0.10566000000E+00 0.  1.
     999900   -1    0    0    0    0 -0.00000000000E+00 -0.00000000000E+00 -0.74505805969E-08  0.93827000000E+00  0.93827000000E+00 0.  1.
     999902    2    1    2    0    0  0.10293963460E-02  0.73749292279E-02 -0.12806391088E-01  0.10291160576E+01  0.10290094300E+01 0.  0.
     999903    2    3    3    0    0  0.85962844715E-01  0.40778968836E-01 -0.93637746534E-01  0.14071117884E+00  0.44486776718E-01 0.  0.
         14    1    1    2    0    0 -0.10293963460E-02 -0.73749292279E-02  0.12806391088E-01  0.14813942441E-01  0.00000000000E+00 0.  1.
     999901    1    3    3    0    0 -0.84933448369E-01 -0.33404039608E-01  0.80831355446E-01  0.88840487872E+00  0.88000000000E+00 0. -1.
        -11    1    4    4    0    0  0.43624037784E-01  0.25996917084E-01 -0.20185908931E-01  0.54650054079E-01  0.51100000000E-03 0.  1.
         11    1    4    4    0    0  0.42338806932E-01  0.14782051752E-01 -0.73451837603E-01  0.86061124758E-01  0.51100000000E-03 0. -1.
</event>
<event>
 8    1  0.2825007E+004  0.1043930E+01  0.7957747E-01            NaN
         13   -1    0    0    0    0  0.00000000000E+00  0.00000000000E+00  0.74505805969E-08  0.10566000000E+00  0.10566000000E+00 0. -1.
     999900   -1    0    0    0    0 -0.00000000000E+00 -0.00000000000E+00 -0.74505805969E-08  0.93827000000E+00  0.93827000000E+00 0. -1.
     999902    2    1    2    0    0 -0.13963983377E-04  0.38739128225E-02 -0.15057037459E-01  0.10283825960E+01  0.10282650640E+01 0.  0.
     999903    2    3    3    0    0  0.44946751445E-01  0.12043487618E+00  0.25504668053E-01  0.13863365605E+00  0.45210979102E-01 0.  0.
         14    1    1    2    0    0  0.13963983377E-04 -0.38739128225E-02  0.15057037459E-01  0.15547404047E-01  0.00000000000E+00 0. -1.
     999901    1    3    3    0    0 -0.44960715428E-01 -0.11656096335E+00 -0.40561705512E-01  0.88974893991E+00  0.88000000000E+00 0. -1.
        -11    1    4    4    0    0  0.10248840810E-01  0.81549018136E-01  0.41094979861E-02  0.82294776211E-01  0.51100000000E-03 0.  1.
         11    1    4    4    0    0  0.34697910635E-01  0.38885858041E-01  0.21395170067E-01  0.56338879836E-01  0.51100000000E-03 0. -1.
</event>
<event>
 8    1  0.2825007E+004  0.1043930E+01  0.7957747E-01            NaN
         13   -1    0    0    0    0  0.00000000000E+00  0.00000000000E+00  0.74505805969E-08  0.10566000000E+00  0.10566000000E+00 0. -1.
     999900   -1    0    0    0    0 -0.00000000000E+00 -0.00000000000E+00 -0.74505805969E-08  0.93827000000E+00  0.93827000000E+00 0.  1.
     999902    2    1    2    0    0 -0.40941265594E-02 -0.10436642242E-01  0.46477394747E-02  0.10317938204E+01  0.10317224437E+01 0.  0.
     999903    2    3    3    0    0  0.63736326779E-01 -0.15912798623E-01 -0.11602785280E+00  0.14095513843E+00  0.45720366501E-01 0.  0.
         14    1    1    2    0    0  0.40941265594E-02  0.10436642242E-01 -0.46477394747E-02  0.12136179621E-01  0.00000000000E+00 0.  1.
     999901    1    3    3    0    0 -0.67830453338E-01  0.54761563809E-02  0.12067559227E+00  0.89083868195E+00  0.88000000000E+00 0. -1.
        -11    1    4    4    0    0  0.40854299322E-01  0.12983326430E-01 -0.56236327476E-01  0.70713691653E-01  0.51100000000E-03 0. -1.
         11    1    4    4    0    0  0.22882027457E-01 -0.28896125053E-01 -0.59791525323E-01  0.70241446775E-01  0.51100000000E-03 0.  1.
</event>
<event>
 8    1  0.2825007E+004  0.1043930E+01  0.7957747E-01            NaN
         13   -1    0    0    0    0  0.00000000000E+00  0.00000000000E+00  0.74505805969E-08  0.10566000000E+00  0.10566000000E+00 0. -1.
     999900   -1    0    0    0    0 -0.00000000000E+00 -0.00000000000E+00 -0.74505805969E-08  0.93827000000E+00  0.93827000000E+00 0. -1.
     999902    2    1    2    0    0  0.43159794334E-02  0.81546800924E-02 -0.97322800885E-02  0.10305194161E+01  0.10304321536E+01 0.  0.
     999903    2    3    3    0    0 -0.28777694551E-01  0.91316451853E-01 -0.94440377886E-01  0.14193259792E+00  0.45376505974E-01 0.  0.
         14    1    1    2    0    0 -0.43159794334E-02 -0.81546800924E-02  0.97322800885E-02  0.13410583940E-01  0.00000000000E+00 0. -1.
     999901    1    3    3    0    0  0.33093673984E-01 -0.83161771761E-01  0.84708097797E-01  0.88858681814E+00  0.88000000000E+00 0.  1.
        -11    1    4    4    0    0 -0.37714535314E-01  0.78959245735E-01 -0.91087759031E-01  0.12630989521E+00  0.51100000000E-03 0.  1.
         11    1    4    4    0    0  0.89368407628E-02  0.12357206119E-01 -0.33526188553E-02  0.15622702713E-01  0.51100000000E-03 0. -1.
</event>
<event>
 8    1  0.2825007E+004  0.1043930E+01  0.7957747E-01            NaN
         13   -1    0    0    0    0  0.00000000000E+00  0.00000000000E+00  0.74505805969E-08  0.10566000000E+00  0.10566000000E+00 0.  1.
     999900   -1    0    0    0    0 -0.00000000000E+00 -0.00000000000E+00 -0.74505805969E-08  0.93827000000E+00  0.93827000000E+00 0.  1.
     999902    2    1    2    0    0 -0.11101650350E-01 -0.69195928944E-02 -0.74745402576E-02  0.10288636083E+01  0.10287532884E+01 0.  0.
     999903    2    3    3    0    0  0.41933165947E-01  0.10461246048E-01  0.12252025474E+00  0.13756487499E+00  0.45222272558E-01 0.  0.
         14    1    1    2    0    0  0.11101650350E-01  0.69195928944E-02  0.74745402576E-02  0.15066391684E-01  0.00000000000E+00 0.  1.
     999901    1    3    3    0    0 -0.53034816297E-01 -0.17380838942E-01 -0.12999479499E+00  0.89129873333E+00  0.88000000000E+00 0.  1.
        -11    1    4    4    0    0  0.47515585719E-01  0.11700679736E-01  0.74075172720E-01  0.88780792556E-01  0.51100000000E-03 0.  1.
         11    1    4    4    0    0 -0.55824197716E-02 -0.12394336882E-02  0.48445082016E-01  0.48784082434E-01  0.51100000000E-03 0. -1.
</event>
<event>
 8    1  0.2825007E+004  0.1043930E+01  0.7957747E-01            NaN
         13   -1    0    0    0    0  0.00000000000E+00  0.00000000000E+00  0.74505805969E-08  0.10566000000E+00  0.10566000000E+00 0. -1.
     999900   -1    0    0    0    0 -0.00000000000E+00 -0.00000000000E+00 -0.74505805969E-08  0.93827000000E+00  0.93827000000E+00 0. -1.
     999902    2    1    2    0    0  0.43267682143E-02  0.11223921046E-01  0.61265571924E-02  0.10304306656E+01  0.10303422366E+01 0.  0.
     999903    2    3    3    0    0 -0.83897333238E-02  0.13119610980E+00  0.28607187244E-01  0.14191481642E+00  0.45151269143E-01 0.  0.
         14    1    1    2    0    0 -0.43267682143E-02 -0.11223921046E-01 -0.61265571924E-02  0.13499334423E-01  0.00000000000E+00 0. -1.
     999901    1    3    3    0    0  0.12716501538E-01 -0.11997218875E+00 -0.22480630051E-01  0.88851584916E+00  0.88000000000E+00 0. -1.
        -11    1    4    4    0    0  0.14128308328E-01  0.32403354163E-01  0.18992566523E-01  0.40131847221E-01  0.51100000000E-03 0. -1.
         11    1    4    4    0    0 -0.22518041651E-01  0.98792755633E-01  0.96146207204E-02  0.10178296919E+00  0.51100000000E-03 0.  1.
</event>
<event>
 8    1  0.2825007E+004  0.1043930E+01  0.7957747E-01            NaN
         13   -1    0    0    0    0  0.00000000000E+00  0.00000000000E+00  0.74505805969E-08  0.10566000000E+00  0.10566000000E+00 0.  1.
     999900   -1    0    0    0    0 -0.00000000000E+00 -0.00000000000E+00 -0.74505805969E-08  0.93827000000E+00  0.93827000000E+00 0.  1.
     999902    2    1    2    0    0  0.94589403091E-02  0.67732747701E-02  0.85913852848E-02  0.10294676107E+01  0.10293660189E+01 0.  0.
     999903    2    3    3    0    0  0.56668671187E-02 -0.10344088637E+00 -0.79297747991E-01  0.13824034402E+00  0.45717934370E-01 0.  0.
         14    1    1    2    0    0 -0.94589403091E-02 -0.67732747701E-02 -0.85913852848E-02  0.14462389291E-01  0.00000000000E+00 0. -1.
     999901    1    3    3    0    0  0.37920731904E-02  0.11021416114E+00  0.87889133276E-01  0.89122726669E+00  0.88000000000E+00 0. -1.
        -11    1    4    4    0    0 -0.19546284243E-01 -0.34121680891E-01 -0.30932496761E-01  0.50034256379E-01  0.51100000000E-03 0.  1.
         11    1    4    4    0    0  0.25213151362E-01 -0.69319205481E-01 -0.48365251230E-01  0.88206087645E-01  0.51100000000E-03 0. -1.
</event>
<event>
 8    1  0.2825007E+004  0.1043930E+01  0.7957747E-01            NaN
         13   -1    0    0    0    0  0.00000000000E+00  0.00000000000E+00  0.74505805969E-08  0.10566000000E+00  0.10566000000E+00 0. -1.
     999900   -1    0    0    0    0 -0.00000000000E+00 -0.00000000000E+00 -0.74505805969E-08  0.93827000000E+00  0.93827000000E+00 0. -1.
     999902    2    1    2    0    0  0.83680656212E-02  0.10523605714E-01  0.23055766920E-02  0.10302886480E+01  0.10301983361E+01 0.  0.
     999903    2    3    3    0    0  0.47682403894E-01 -0.10959562891E+00  0.56679743458E-01  0.13959745703E+00  0.44609899953E-01 0.  0.
         14    1    1    2    0    0 -0.83680656212E-02 -0.10523605714E-01 -0.23055766920E-02  0.13641351962E-01  0.00000000000E+00 0.  1.
     999901    1    3    3    0    0 -0.39314338273E-01  0.12011923463E+00 -0.54374166766E-01  0.89069119100E+00  0.88000000000E+00 0.  1.
        -11    1    4    4    0    0  0.35589443126E-01 -0.38015617066E-01  0.38489049095E-01  0.64756958114E-01  0.51100000000E-03 0. -1.
         11    1    4    4    0    0  0.12092960768E-01 -0.71580011847E-01  0.18190694364E-01  0.74840498920E-01  0.51100000000E-03 0.  1.
</event>
<event>
 8    1  0.2825007E+004  0.1043930E+01  0.7957747E-01            NaN
         13   -1    0    0    0    0  0.00000000000E+00  0.00000000000E+00  0.74505805969E-08  0.10566000000E+00  0.10566000000E+00 0.  1.
     999900   -1    0    0    0    0 -0.00000000000E+00 -0.00000000000E+00 -0.74505805969E-08  0.93827000000E+00  0.93827000000E+00 0.  1.
     999902    2    1    2    0    0  0.68082375970E-02  0.35221928051E-02 -0.11283532056E-01  0.10302890309E+01  0.10301987241E+01 0.  0.
     999903    2    3    3    0    0 -0.58893894365E-01 -0.43446853333E-01 -0.11159035822E+00  0.14091603786E+00  0.45263692090E-01 0.  0.
         14    1    1    2    0    0 -0.68082375970E-02 -0.35221928051E-02  0.11283532056E-01  0.13640969063E-01  0.00000000000E+00 0.  1.
     999901    1    3    3    0    0  0.65702131962E-01  0.46969046138E-01  0.10030682616E+00  0.88937299308E+00  0.88000000000E+00 0.  1.
        -11    1    4    4    0    0 -0.27041709699E-01 -0.37297315992E-01 -0.35387084557E-01  0.58093465364E-01  0.51100000000E-03 0. -1.
         11    1    4    4    0    0 -0.31852184666E-01 -0.61495373411E-02 -0.76203273659E-01  0.82822572496E-01  0.51100000000E-03 0.  1.
</event>
<event>
 8    1  0.2825007E+004  0.1043930E+01  0.7957747E-01            NaN
         13   -1    0    0    0    0  0.00000000000E+00  0.00000000000E+00  0.74505805969E-08  0.10566000000E+00  0.10566000000E+00 0.  1.
     999900   -1    0    0    0    0 -0.00000000000E+00 -0.00000000000E+00 -0.74505805969E-08  0.93827000000E+00  0.93827000000E+00 0.  1.
     999902    2    1    2    0    0 -0.15328331560E-02 -0.16883181520E-02  0.13517630486E-01  0.10302213775E+01  0.10301301667E+01 0.  0.
     999903    2    3    3    0    0 -0.79270189647E-01 -0.95647891766E-01 -0.46071911625E-01  0.13981562083E+00  0.44648679940E-01 0.  0.
         14    1    1    2    0    0  0.15328331560E-02  0.16883181520E-02 -0.13517630486E-01  0.13708622455E-01  0.00000000000E+00 0. -1.
     999901    1    3    3    0    0  0.77737356491E-01  0.93959573614E-01  0.59589542111E-01  0.89040575672E+00  0.88000000000E+00 0. -1.
        -11    1    4    4    0    0 -0.12194688944E-01 -0.85981909553E-02  0.84321165031E-02  0.17146458406E-01  0.51100000000E-03 0. -1.
         11    1    4    4    0    0 -0.67075500704E-01 -0.87049700811E-01 -0.54504028128E-01  0.12266916242E+00  0.51100000000E-03 0.  1.
</event>
<event>
 8    1  0.2825007E+004  0.1043930E+01  0.7957747E-01            NaN
         13   -1    0    0    0    0  0.00000000000E+00  0.00000000000E+00  0.74505805969E-08  0.10566000000E+00  0.10566000000E+00 0. -1.
     999900   -1    0    0    0    0 -0.00000000000E+00 -0.00000000000E+00 -0.74505805969E-08  0.93827000000E+00  0.93827000000E+00 0.  1.
     999902    2    1    2    0    0  0.18191520857E-01  0.12270450577E-02  0.76218331303E-04  0.10256969838E+01  0.10255349139E+01 0.  0.
     999903    2    3    3    0    0 -0.67373580806E-01  0.95728651972E-01  0.49546185790E-01  0.13513580229E+00  0.45865960517E-01 0.  0.
         14    1    1    2    0    0 -0.18191520857E-01 -0.12270450577E-02 -0.76218331303E-04  0.18233016204E-01  0.00000000000E+00 0.  1.
     999901    1    3    3    0    0  0.85565101663E-01 -0.94501606915E-01 -0.49469967458E-01  0.89056118151E+00  0.88000000000E+00 0.  1.
        -11    1    4    4    0    0 -0.25753593450E-01  0.45313072757E-01  0.46235944845E-01  0.69674571078E-01  0.51100000000E-03 0. -1.
         11    1    4    4    0    0 -0.41619987356E-01  0.50415579216E-01  0.33102409448E-02  0.65461231208E-01  0.51100000000E-03 0.  1.
</event>
<event>
 7    1  0.2825007E+004  0.1043930E+01  0.7957747E-01            NaN
         13   -1    0    0    0    0  0.00000000000E+00  0.00000000000E+00  0.74505805969E-08  0.10566000000E+00  0.10566000000E+00 0.  1.
     999900   -1    0    0    0    0 -0.00000000000E+00 -0.00000000000E+00 -0.74505805969E-08  0.93827000000E+00  0.93827000000E+00 0. -1.
     999903    2    1    2    0    0  0.88632202904E-01  0.21752766249E-01 -0.80772190182E-01  0.13024433160E+00  0.45941146863E-01 0.  0.
         14    1    1    2    0    0 -0.23832332319E-01  0.83484937883E-03  0.15841221014E-01  0.28629029332E-01  0.00000000000E+00 0.  1.
     999901    1    1    2    0    0 -0.64799870584E-01 -0.22587615628E-01  0.64930969169E-01  0.88505663907E+00  0.88000000000E+00 0.  1.
        -11    1    3    3    0    0  0.48439307868E-01  0.61364848859E-02 -0.70762981847E-01  0.85974901653E-01  0.51100000000E-03 0.  1.
         11    1    3    3    0    0  0.40192895036E-01  0.15616281363E-01 -0.10009208336E-01  0.44269429944E-01  0.51100000000E-03 0. -1.
</event>
<event>
 8    1  0.2825007E+004  0.1043930E+01  0.7957747E-01            NaN
         13   -1    0    0    0    0  0.00000000000E+00  0.00000000000E+00  0.74505805969E-08  0.10566000000E+00  0.10566000000E+00 0. -1.
     999900   -1    0    0    0    0 -0.00000000000E+00 -0.00000000000E+00 -0.74505805969E-08  0.93827000000E+00  0.93827000000E+00 0. -1.
     999902    2    1    2    0    0  0.15624521065E-02 -0.27445931561E-02 -0.13414281298E-01  0.10301489626E+01  0.10300567791E+01 0.  0.
     999903    2    3    3    0    0 -0.11903649481E+00  0.36439295439E-01  0.44208042491E-01  0.13919452198E+00  0.43854926510E-01 0.  0.
         14    1    1    2    0    0 -0.15624521065E-02  0.27445931561E-02  0.13414281298E-01  0.13781037367E-01  0.00000000000E+00 0. -1.
     999901    1    3    3    0    0  0.12059894692E+00 -0.39183888595E-01 -0.57622323789E-01  0.89095444065E+00  0.88000000000E+00 0. -1.
        -11    1    4    4    0    0 -0.79323164913E-01  0.19253658801E-01  0.49706507592E-01  0.95571260780E-01  0.51100000000E-03 0. -1.
         11    1    4    4    0    0 -0.39713329897E-01  0.17185636638E-01 -0.54984651009E-02  0.43623261199E-01  0.51100000000E-03 0.  1.
</event>
<event>
 8    1  0.2825007E+004  0.1043930E+01  0.7957747E-01            NaN
         13   -1    0    0    0    0  0.00000000000E+00  0.00000000000E+00  0.74505805969E-08  0.10566000000E+00  0.10566000000E+00 0.  1.
     999900   -1    0    0    0    0 -0.00000000000E+00 -0.00000000000E+00 -0.74505805969E-08  0.93827000000E+00  0.93827000000E+00 0. -1.
     999902    2    1    2    0    0  0.43539543968E-02  0.51668962155E-02  0.11425123780E-01  0.10306564478E+01  0.10305709709E+01 0.  0.
     999903    2    3    3    0    0  0.95747542754E-01 -0.91905758568E-01 -0.55365472806E-02  0.14045220908E+00  0.45627944049E-01 0.  0.
         14    1    1    2    0    0 -0.43539543968E-02 -0.51668962155E-02 -0.11425123780E-01  0.13273552229E-01  0.00000000000E+00 0. -1.
     999901    1    3    3    0    0 -0.91393588357E-01  0.97072654783E-01  0.16961671061E-01  0.89020423869E+00  0.88000000000E+00 0. -1.
        -11    1    4    4    0    0  0.65896619165E-01 -0.71256503957E-01  0.15815792377E-01  0.98337450562E-01  0.51100000000E-03 0.  1.
         11    1    4    4    0    0  0.29850923589E-01 -0.20649254611E-01 -0.21352339658E-01  0.42114758517E-01  0.51100000000E-03 0. -1.
</event>
<event>
 8    1  0.2825007E+004  0.1043930E+01  0.7957747E-01            NaN
         13   -1    0    0    0    0  0.00000000000E+00  0.00000000000E+00  0.74505805969E-08  0.10566000000E+00  0.10566000000E+00 0.  1.
     999900   -1    0    0    0    0 -0.00000000000E+00 -0.00000000000E+00 -0.74505805969E-08  0.93827000000E+00  0.93827000000E+00 0.  1.
     999902    2    1    2    0    0 -0.43570695327E-02 -0.13772665429E-01  0.79285604977E-02  0.10274517586E+01  0.10273196113E+01 0.  0.
     999903    2    3    3    0    0 -0.40841191320E-01 -0.11544492964E+00  0.50140394424E-01  0.13984250934E+00  0.45236418715E-01 0.  0.
         14    1    1    2    0    0  0.43570695327E-02  0.13772665429E-01 -0.79285604977E-02  0.16478241396E-01  0.00000000000E+00 0. -1.
     999901    1    3    3    0    0  0.36484121787E-01  0.10167226421E+00 -0.42211833927E-01  0.88760924926E+00  0.88000000000E+00 0.  1.
        -11    1    4    4    0    0 -0.15275258408E-01 -0.46310424078E-01  0.44325621091E-01  0.65901522773E-01  0.51100000000E-03 0. -1.
         11    1    4    4    0    0 -0.25565932911E-01 -0.69134505561E-01  0.58147733332E-02  0.73940986569E-01  0.51100000000E-03 0.  1.
</event>
<event>
 8    1  0.2825007E+004  0.1043930E+01  0.7957747E-01            NaN
         13   -1    0    0    0    0  0.00000000000E+00  0.00000000000E+00  0.74505805969E-08  0.10566000000E+00  0.10566000000E+00 0.  1.
     999900   -1    0    0    0    0 -0.00000000000E+00 -0.00000000000E+00 -0.74505805969E-08  0.93827000000E+00  0.93827000000E+00 0. -1.
     999902    2    1    2    0    0  0.96814784020E-03 -0.13458822487E-01 -0.44093635107E-02  0.10297342366E+01  0.10296363816E+01 0.  0.
     999903    2    3    3    0    0  0.36758628427E-01  0.20442478230E-01 -0.12565513652E+00  0.14005407259E+00  0.45352378488E-01 0.  0.
         14    1    1    2    0    0 -0.96814784020E-03  0.13458822487E-01  0.44093635107E-02  0.14195763436E-01  0.00000000000E+00 0.  1.
     999901    1    3    3    0    0 -0.35790480587E-01 -0.33901300717E-01  0.12124577301E+00  0.88968016397E+00  0.88000000000E+00 0.  1.
        -11    1    4    4    0    0  0.35217020250E-01  0.71369802953E-02 -0.41755657450E-01  0.55090571363E-01  0.51100000000E-03 0. -1.
         11    1    4    4    0    0  0.15416081772E-02  0.13305497935E-01 -0.83899479075E-01  0.84963501229E-01  0.51100000000E-03 0.  1.
</event>
<event>
 8    1  0.2825007E+004  0.1043930E+01  0.7957747E-01            NaN
         13   -1    0    0    0    0  0.00000000000E+00  0.00000000000E+00  0.74505805969E-08  0.10566000000E+00  0.10566000000E+00 0. -1.
     999900   -1    0    0    0    0 -0.00000000000E+00 -0.00000000000E+00 -0.74505805969E-08  0.93827000000E+00  0.93827000000E+00 0.  1.
     999902    2    1    2    0    0  0.49012088954E-02 -0.86891825837E-02  0.49526477303E-02  0.10327921159E+01  0.10327320573E+01 0.  0.
     999903    2    3    3    0    0 -0.12721079966E-01  0.73304926467E-01 -0.11047750387E+00  0.14130027697E+00  0.47170449350E-01 0.  0.
         14    1    1    2    0    0 -0.49012088954E-02  0.86891825837E-02 -0.49526477303E-02  0.11137884097E-01  0.00000000000E+00 0. -1.
     999901    1    3    3    0    0  0.17622288861E-01 -0.81994109051E-01  0.11543015160E+00  0.89149183893E+00  0.88000000000E+00 0. -1.
        -11    1    4    4    0    0 -0.22176250276E-01  0.35936076813E-01 -0.29196468316E-01  0.51340847054E-01  0.51100000000E-03 0.  1.
         11    1    4    4    0    0  0.94551703106E-02  0.37368849653E-01 -0.81281035550E-01  0.89959429918E-01  0.51100000000E-03 0. -1.
</event>
<event>
 8    1  0.2825007E+004  0.1043930E+01  0.7957747E-01            NaN
         13   -1    0    0    0    0  0.00000000000E+00  0.00000000000E+00  0.74505805969E-08  0.10566000000E+00  0.10566000000E+00 0. -1.
     999900   -1    0    0    0    0 -0.00000000000E+00 -0.00000000000E+00 -0.74505805969E-08  0.93827000000E+00  0.93827000000E+00 0. -1.
     999902    2    1    2    0    0 -0.12730358278E-01 -0.73216713860E-02 -0.14180126175E-01  0.10235156699E+01  0.10233120647E+01 0.  0.
     999903    2    3    3    0    0  0.11792153522E+00 -0.39853985065E-01  0.13462402290E-01  0.13284604651E+00  0.44418545722E-01 0.  0.
         14    1    1    2    0    0  0.12730358278E-01  0.73216713860E-02  0.14180126175E-01  0.20414330068E-01  0.00000000000E+00 0. -1.
     999901    1    3    3    0    0 -0.13065189350E+00  0.32532313679E-01 -0.27642528465E-01  0.89066962342E+00  0.88000000000E+00 0.  1.
        -11    1    4    4    0    0  0.57121074375E-02 -0.11773549362E-01  0.11074208519E-01  0.17150622474E-01  0.51100000000E-03 0.  1.
         11    1    4    4    0    0  0.11220942778E+00 -0.28080435703E-01  0.23881937710E-02  0.11569542404E+00  0.51100000000E-03 0. -1.
</event>
<event>
 8    1  0.2825007E+004  0.1043930E+01  0.7957747E-01            NaN
         13   -1    0    0    0    0  0.00000000000E+00  0.00000000000E+00  0.74505805969E-08  0.10566000000E+00  0.10566000000E+00 0.  1.
     999900   -1    0    0    0    0 -0.00000000000E+00 -0.00000000000E+00 -0.74505805969E-08  0.93827000000E+00  0.93827000000E+00 0. -1.
     999902    2    1    2    0    0 -0.21743077108E-02  0.22530564637E-02  0.13481793194E-01  0.10300893849E+01  0.10299963972E+01 0.  0.
     999903    2    3    3    0    0  0.54614310280E-01  0.11966117610E+00 -0.16659271940E-01  0.13996686669E+00  0.44851671939E-01 0.  0.
         14    1    1    2    0    0  0.21743077108E-02 -0.22530564637E-02 -0.13481793194E-01  0.13840615058E-01  0.00000000000E+00 0. -1.
     999901    1    3    3    0    0 -0.56788617990E-01 -0.11740811964E+00  0.30141065134E-01  0.89012251825E+00  0.88000000000E+00 0.  1.
        -11    1    4    4    0    0  0.53548634237E-01  0.65541442478E-01 -0.64715870003E-02  0.84883917617E-01  0.51100000000E-03 0. -1.
         11    1    4    4    0    0  0.10656760423E-02  0.54119733626E-01 -0.10187684940E-01  0.55082949074E-01  0.51100000000E-03 0.  1.
</event>
<event>
 8    1  0.2825007E+004  0.1043930E+01  0.7957747E-01            NaN
         13   -1    0    0    0    0  0.00000000000E+00  0.00000000000E+00  0.74505805969E-08  0.10566000000E+00  0.10566000000E+00 0.  1.
     999900   -1    0    0    0    0 -0.00000000000E+00 -0.00000000000E+00 -0.74505805969E-08  0.93827000000E+00  0.93827000000E+00 0.  1.
     999902    2    1    2    0    0 -0.20687251916E-03  0.12573755567E-01  0.21113448473E-02  0.10311785333E+01  0.10310996885E+01 0.  0.
     999903    2    3    3    0    0  0.10812762011E+00  0.79326895886E-01 -0.10681769600E-01  0.14193390567E+00  0.45241515611E-01 0.  0.
         14    1    1    2    0    0  0.20687251916E-03 -0.12573755567E-01 -0.21113448473E-02  0.12751466675E-01  0.00000000000E+00 0. -1.
     999901    1    3    3    0    0 -0.10833449263E+00 -0.66753140318E-01  0.12793114448E-01  0.88924462766E+00  0.88000000000E+00 0. -1.
        -11    1    4    4    0    0  0.34172012629E-01  0.47258194179E-01  0.88554756915E-02  0.58989354420E-01  0.51100000000E-03 0.  1.
         11    1    4    4    0    0  0.73955607483E-01  0.32068701706E-01 -0.19537245292E-01  0.82944551249E-01  0.51100000000E-03 0. -1.
</event>
<event>
 8    1  0.2825007E+004  0.1043930E+01  0.7957747E-01            NaN
         13   -1    0    0    0    0  0.00000000000E+00  0.00000000000E+00  0.74505805969E-08  0.10566000000E+00  0.10566000000E+00 0.  1.
     999900   -1    0    0    0    0 -0.00000000000E+00 -0.00000000000E+00 -0.74505805969E-08  0.93827000000E+00  0.93827000000E+00 0. -1.
     999902    2    1    2    0    0 -0.99080800361E-02  0.25540659096E-02 -0.95424838680E-02  0.10299388492E+01  0.10298438138E+01 0.  0.
     999903    2    3    3    0    0  0.82780311622E-01 -0.59873134688E-01  0.81698529070E-01  0.13819156673E+00  0.44552073064E-01 0.  0.
         14    1    1    2    0    0  0.99080800361E-02 -0.25540659096E-02  0.95424838680E-02  0.13991150812E-01  0.00000000000E+00 0.  1.
     999901    1    3    3    0    0 -0.92688391659E-01  0.62427200598E-01 -0.91241012938E-01  0.89174728245E+00  0.88000000000E+00 0. -1.
        -11    1    4    4    0    0  0.21267893183E-01 -0.41978706877E-01  0.39880229072E-01  0.61686537456E-01  0.51100000000E-03 0. -1.
         11    1    4    4    0    0  0.61512418439E-01 -0.17894427811E-01  0.41818299999E-01  0.76505029278E-01  0.51100000000E-03 0.  1.
</event>
<event>
 8    1  0.2825007E+004  0.1043930E+01  0.7957747E-01            NaN
         13   -1    0    0    0    0  0.00000000000E+00  0.00000000000E+00  0.74505805969E-08  0.10566000000E+00  0.10566000000E+00 0.  1.
     999900   -1    0    0    0    0 -0.00000000000E+00 -0.00000000000E+00 -0.74505805969E-08  0.93827000000E+00  0.93827000000E+00 0. -1.
     999902    2    1    2    0    0 -0.10670624972E-01 -0.88817992817E-02  0.61646014393E-03  0.10300329277E+01  0.10299391747E+01 0.  0.
     999903    2    3    3    0    0  0.97340624210E-01  0.84972241103E-01 -0.19508818589E-01  0.13824817917E+00  0.45127443544E-01 0.  0.
         14    1    1    2    0    0  0.10670624972E-01  0.88817992817E-02 -0.61646014393E-03  0.13897072313E-01  0.00000000000E+00 0.  1.
     999901    1    3    3    0    0 -0.10801124918E+00 -0.93854040385E-01  0.20125278733E-01  0.89178474852E+00  0.88000000000E+00 0.  1.
        -11    1    4    4    0    0  0.56243879097E-01  0.24891649366E-01  0.43051760165E-02  0.61658444722E-01  0.51100000000E-03 0.  1.
         11    1    4    4    0    0  0.41096745113E-01  0.60080591737E-01 -0.23813994606E-01  0.76589734446E-01  0.51100000000E-03 0. -1.
</event>
<event>
 8    1  0.2825007E+004  0.1043930E+01  0.7957747E-01            NaN
         13   -1    0    0    0    0  0.00000000000E+00  0.00000000000E+00  0.74505805969E-08  0.10566000000E+00  0.10566000000E+00 0. -1.
     999900   -1    0    0    0    0 -0.00000000000E+00 -0.00000000000E+00 -0.74505805969E-08  0.93827000000E+00  0.93827000000E+00 0.  1.
     999902    2    1    2    0    0 -0.88137759760E-02 -0.11757177371E-01  0.24881205731E-03  0.10292338857E+01  0.10291289598E+01 0.  0.
     999903    2    3    3    0    0 -0.14769188423E-01 -0.10482752586E+00  0.80935432231E-01  0.14063505198E+00  0.44952581108E-01 0.  0.
         14    1    1    2    0    0  0.88137759760E-02  0.11757177371E-01 -0.24881205731E-03  0.14696114253E-01  0.00000000000E+00 0. -1.
     999901    1    3    3    0    0  0.59554124473E-02  0.93070348493E-01 -0.80686620174E-01  0.88859883377E+00  0.88000000000E+00 0.  1.
        -11    1    4    4    0    0 -0.22352369308E-01 -0.21331150401E-01  0.26146665910E-01  0.40479076698E-01  0.51100000000E-03 0.  1.
         11    1    4    4    0    0  0.75831808849E-02 -0.83496375463E-01  0.54788766321E-01  0.10015597528E+00  0.51100000000E-03 0. -1.
</event>
<event>
 8    1  0.2825007E+004  0.1043930E+01  0.7957747E-01            NaN
         13   -1    0    0    0    0  0.00000000000E+00  0.00000000000E+00  0.74505805969E-08  0.10566000000E+00  0.10566000000E+00 0.  1.
     999900   -1    0    0    0    0 -0.00000000000E+00 -0.00000000000E+00 -0.74505805969E-08  0.93827000000E+00  0.93827000000E+00 0.  1.
     999902    2    1    2    0    0 -0.11683378610E-01 -0.65483612757E-02 -0.23588815637E-02  0.10303304892E+01  0.10302407342E+01 0.  0.
     999903    2    3    3    0    0  0.43232126247E-01 -0.97706638447E-01 -0.79684471333E-01  0.14055254445E+00  0.44607161345E-01 0.  0.
         14    1    1    2    0    0  0.11683378610E-01  0.65483612757E-02  0.23588815637E-02  0.13599510777E-01  0.00000000000E+00 0. -1.
     999901    1    3    3    0    0 -0.54915504857E-01  0.91158277172E-01  0.77325589769E-01  0.88977794477E+00  0.88000000000E+00 0. -1.
        -11    1    4    4    0    0  0.44593844505E-01 -0.51154878024E-01 -0.57570593576E-01  0.88994757594E-01  0.51100000000E-03 0. -1.
         11    1    4    4    0    0 -0.13617182581E-02 -0.46551760423E-01 -0.22113877757E-01  0.51557786856E-01  0.51100000000E-03 0.  1.
</event>
<event>
 8    1  0.2825007E+004  0.1043930E+01  0.7957747E-01            NaN
         13   -1    0    0    0    0  0.00000000000E+00  0.00000000000E+00  0.74505805969E-08  0.10566000000E+00  0.10566000000E+00 0. -1.
     999900   -1    0    0    0    0 -0.00000000000E+00 -0.00000000000E+00 -0.74505805969E-08  0.93827000000E+00  0.93827000000E+00 0. -1.
     999902    2    1    2    0    0 -0.12389858213E-01 -0.30521302615E-02  0.54459905222E-02  0.10300561794E+01  0.10299627419E+01 0.  0.
     999903    2    3    3    0    0 -0.83432008008E-01 -0.34182978325E-01 -0.97382245577E-01  0.14068012681E+00  0.46671408369E-01 0.  0.
         14    1    1    2    0    0  0.12389858213E-01  0.30521302615E-02 -0.54459905222E-02  0.13873820614E-01  0.00000000000E+00 0.  1.
     999901    1    3    3    0    0  0.71042149795E-01  0.31130848064E-01  0.10282823610E+00  0.88937605257E+00  0.88000000000E+00 0.  1.
        -11    1    4    4    0    0 -0.36265073619E-01 -0.40000388436E-01 -0.51141637658E-01  0.74370120768E-01  0.51100000000E-03 0. -1.
         11    1    4    4    0    0 -0.47166934390E-01  0.58174101109E-02 -0.46240607919E-01  0.66310006046E-01  0.51100000000E-03 0.  1.
</event>
<event>
 8    1  0.2825007E+004  0.1043930E+01  0.7957747E-01            NaN
         13   -1    0    0    0    0  0.00000000000E+00  0.00000000000E+00  0.74505805969E-08  0.10566000000E+00  0.10566000000E+00 0.  1.
     999900   -1    0    0    0    0 -0.00000000000E+00 -0.00000000000E+00 -0.74505805969E-08  0.93827000000E+00  0.93827000000E+00 0. -1.
     999902    2    1    2    0    0  0.33071225463E-02  0.92983588627E-02  0.10260215820E-01  0.10296938290E+01  0.10295954122E+01 0.  0.
     999903    2    3    3    0    0 -0.12448774944E+00  0.95611378066E-02 -0.46195951264E-01  0.13867256257E+00  0.38825231231E-01 0.  0.
         14    1    1    2    0    0 -0.33071225463E-02 -0.92983588627E-02 -0.10260215820E-01  0.14236171035E-01  0.00000000000E+00 0. -1.
     999901    1    3    3    0    0  0.12779487199E+00 -0.26277894389E-03  0.56456167084E-01  0.89102126639E+00  0.88000000000E+00 0.  1.
        -11    1    4    4    0    0 -0.11226968236E+00  0.12828521161E-01 -0.52419329756E-01  0.12456765144E+00  0.51100000000E-03 0.  1.
         11    1    4    4    0    0 -0.12218067084E-01 -0.32673833543E-02  0.62233784918E-02  0.14104911134E-01  0.51100000000E-03 0. -1.
</event>
<event>
 7    1  0.2825007E+004  0.1043930E+01  0.7957747E-01            NaN
         13   -1    0    0    0    0  0.00000000000E+00  0.00000000000E+00  0.74505805969E-08  0.10566000000E+00  0.10566000000E+00 0.  1.
     999900   -1    0    0    0    0 -0.00000000000E+00 -0.00000000000E+00 -0.74505805969E-08  0.93827000000E+00  0.93827000000E+00 0.  1.
     999903    2    1    2    0    0  0.11429086002E+00  0.10792015964E-01  0.18995324973E-01  0.12465965562E+00  0.44725150357E-01 0.  0.
         14    1    1    2    0    0 -0.19605079662E-03 -0.24342249868E-01 -0.20461295960E-01  0.31800128882E-01  0.00000000000E+00 0. -1.
     999901    1    1    2    0    0 -0.11409480923E+00  0.13550233903E-01  0.14659709875E-02  0.88747021550E+00  0.88000000000E+00 0. -1.
        -11    1    3    3    0    0  0.10204086384E+00  0.23797012677E-01  0.20338876898E-01  0.10673596742E+00  0.51100000000E-03 0. -1.
         11    1    3    3    0    0  0.12249996182E-01 -0.13004996713E-01 -0.13435519249E-02  0.17923688201E-01  0.51100000000E-03 0.  1.
</event>
<event>
 8    1  0.2825007E+004  0.1043930E+01  0.7957747E-01            NaN
         13   -1    0    0    0    0  0.00000000000E+00  0.00000000000E+00  0.74505805969E-08  0.10566000000E+00  0.10566000000E+00 0. -1.
     999900   -1    0    0    0    0 -0.00000000000E+00 -0.00000000000E+00 -0.74505805969E-08  0.93827000000E+00  0.93827000000E+00 0. -1.
     999902    2    1    2    0    0 -0.10212691456E-01 -0.92531093363E-02 -0.44937834965E-02  0.10294347184E+01  0.10293326606E+01 0.  0.
     999903    2    3    3    0    0  0.75834439914E-01  0.77268888987E-01  0.72687246319E-01  0.13766845059E+00  0.44134148082E-01 0.  0.
         14    1    1    2    0    0  0.10212691456E-01  0.92531093363E-02  0.44937834965E-02  0.14495281621E-01  0.00000000000E+00 0. -1.
     999901    1    3    3    0    0 -0.86047131370E-01 -0.86521998323E-01 -0.77181029815E-01  0.89176626779E+00  0.88000000000E+00 0. -1.
        -11    1    4    4    0    0  0.76145646824E-01  0.77001095917E-01  0.57774919546E-01  0.12274172376E+00  0.51100000000E-03 0. -1.
         11    1    4    4    0    0 -0.31120691033E-03  0.26779306976E-03  0.14912326772E-01  0.14926726823E-01  0.51100000000E-03 0.  1.
</event>
<event>
 8    1  0.2825007E+004  0.1043930E+01  0.7957747E-01            NaN
         13   -1    0    0    0    0  0.00000000000E+00  0.00000000000E+00  0.74505805969E-08  0.10566000000E+00  0.10566000000E+00 0. -1.
     999900   -1    0    0    0    0 -0.00000000000E+00 -0.00000000000E+00 -0.74505805969E-08  0.93827000000E+00  0.93827000000E+00 0.  1.
     999902    2    1    2    0    0  0.55815548324E-02  0.68079948062E-02 -0.10509139217E-01  0.10302207128E+01  0.10301294931E+01 0.  0.
     999903    2    3    3    0    0 -0.60743562715E-01  0.43538222494E-01  0.10825106129E+00  0.13901247899E+00  0.44953529496E-01 0.  0.
         14    1    1    2    0    0 -0.55815548324E-02 -0.68079948062E-02  0.10509139217E-01  0.13709287170E-01  0.00000000000E+00 0. -1.
     999901    1    3    3    0    0  0.66325117547E-01 -0.36730227688E-01 -0.11876020051E+00  0.89120823384E+00  0.88000000000E+00 0.  1.
        -11    1    4    4    0    0 -0.36713878105E-01  0.28118776236E-01  0.28549917987E-01  0.54350099914E-01  0.51100000000E-03 0. -1.
         11    1    4    4    0    0 -0.24029684610E-01  0.15419446258E-01  0.79701143305E-01  0.84662379074E-01  0.51100000000E-03 0.  1.
</event>
<event>
 8    1  0.2825007E+004  0.1043930E+01  0.7957747E-01            NaN
         13   -1    0    0    0    0  0.00000000000E+00  0.00000000000E+00  0.74505805969E-08  0.10566000000E+00  0.10566000000E+00 0. -1.
     999900   -1    0    0    0    0 -0.00000000000E+00 -0.00000000000E+00 -0.74505805969E-08  0.93827000000E+00  0.93827000000E+00 0.  1.
     999902    2    1    2    0    0 -0.45152831914E-02 -0.47989315388E-02 -0.14008802307E-01  0.10284489126E+01  0.10283323887E+01 0.  0.
     999903    2    3    3    0    0  0.27073908289E-01 -0.12812390313E+00  0.14763124575E-01  0.13882272735E+00  0.43647092911E-01 0.  0.
         14    1    1    2    0    0  0.45152831914E-02  0.47989315388E-02  0.14008802307E-01  0.15481087439E-01  0.00000000000E+00 0. -1.
     999901    1    3    3    0    0 -0.31589191481E-01  0.12332497159E+00 -0.28771926882E-01  0.88962618521E+00  0.88000000000E+00 0.  1.
        -11    1    4    4    0    0  0.16588999589E-01 -0.10498848597E-01  0.53562950729E-02  0.20356123087E-01  0.51100000000E-03 0.  1.
         11    1    4    4    0    0  0.10484908700E-01 -0.11762505453E+00  0.94068295019E-02  0.11846660426E+00  0.51100000000E-03 0. -1.
</event>
<event>
 8    1  0.2825007E+004  0.1043930E+01  0.7957747E-01            NaN
         13   -1    0    0    0    0  0.00000000000E+00  0.00000000000E+00  0.74505805969E-08  0.10566000000E+00  0.10566000000E+00 0.  1.
     999900   -1    0    0    0    0 -0.00000000000E+00 -0.00000000000E+00 -0.74505805969E-08  0.93827000000E+00  0.93827000000E+00 0.  1.
     999902    2    1    2    0    0  0.13407045802E-01  0.36704035487E-02 -0.23353766232E-02  0.10298347979E+01  0.10297383338E+01 0.  0.
     999903    2    3    3    0    0  0.20814180676E-01  0.11879193424E+00 -0.60695951801E-01  0.14038902143E+00  0.38474992087E-01 0.  0.
         14    1    1    2    0    0 -0.13407045802E-01 -0.36704035487E-02  0.23353766232E-02  0.14095202138E-01  0.00000000000E+00 0.  1.
     999901    1    3    3    0    0 -0.74071348739E-02 -0.11512153069E+00  0.58360575178E-01  0.88944577643E+00  0.88000000000E+00 0. -1.
        -11    1    4    4    0    0  0.44906969034E-02  0.78693029366E-01 -0.20817556854E-01  0.81525401096E-01  0.51100000000E-03 0. -1.
         11    1    4    4    0    0  0.16323483772E-01  0.40098904872E-01 -0.39878394947E-01  0.58863620335E-01  0.51100000000E-03 0.  1.
</event>
<event>
 8    1  0.2825007E+004  0.1043930E+01  0.7957747E-01            NaN
         13   -1    0    0    0    0  0.00000000000E+00  0.00000000000E+00  0.74505805969E-08  0.10566000000E+00  0.10566000000E+00 0. -1.
     999900   -1    0    0    0    0 -0.00000000000E+00 -0.00000000000E+00 -0.74505805969E-08  0.93827000000E+00  0.93827000000E+00 0.  1.
     999902    2    1    2    0    0  0.11391409337E-01  0.56060322351E-02  0.54415897114E-02  0.10301168648E+01  0.10300242485E+01 0.  0.
     999903    2    3    3    0    0 -0.35360524650E-01  0.83520027081E-01  0.95088189425E-01  0.14090775178E+00  0.50865205362E-01 0.  0.
         14    1    1    2    0    0 -0.11391409337E-01 -0.56060322351E-02 -0.54415897114E-02  0.13813135151E-01  0.00000000000E+00 0.  1.
     999901    1    3    3    0    0  0.46751933988E-01 -0.77913994845E-01 -0.89646599714E-01  0.88920911307E+00  0.88000000000E+00 0. -1.
        -11    1    4    4    0    0 -0.47195898294E-01  0.63945837154E-01  0.83435913786E-01  0.11523166117E+00  0.51100000000E-03 0. -1.
         11    1    4    4    0    0  0.11835373644E-01  0.19574189927E-01  0.11652275639E-01  0.25676090613E-01  0.51100000000E-03 0.  1.
</event>
<event>
 8    1  0.2825007E+004  0.1043930E+01  0.7957747E-01            NaN
         13   -1    0    0    0    0  0.00000000000E+00  0.00000000000E+00  0.74505805969E-08  0.10566000000E+00  0.10566000000E+00 0.  1.
     999900   -1    0    0    0    0 -0.00000000000E+00 -0.00000000000E+00 -0.74505805969E-08  0.93827000000E+00  0.93827000000E+00 0. -1.
     999902    2    1    2    0    0 -0.57601825244E-02 -0.83065539638E-02 -0.97309744817E-02  0.10298989485E+01  0.10298033665E+01 0.  0.
     999903    2    3    3    0    0 -0.96333687372E-02 -0.10239235672E+00  0.84632400278E-01  0.13985873237E+00  0.42671130016E-01 0.  0.
         14    1    1    2    0    0  0.57601825244E-02  0.83065539638E-02  0.97309744817E-02  0.14031051487E-01  0.00000000000E+00 0.  1.
     999901    1    3    3    0    0  0.38731862128E-02  0.94085802753E-01 -0.94363374760E-01  0.89004021614E+00  0.88000000000E+00 0. -1.
        -11    1    4    4    0    0  0.10097368770E-01 -0.25175898353E-01  0.40526759295E-01  0.48769478713E-01  0.51100000000E-03 0.  1.
         11    1    4    4    0    0 -0.19730737507E-01 -0.77216458363E-01  0.44105640983E-01  0.91089253660E-01  0.51100000000E-03 0. -1.
</event>
<event>
 8    1  0.2825007E+004  0.1043930E+01  0.7957747E-01            NaN
         13   -1    0    0    0    0  0.00000000000E+00  0.00000000000E+00  0.74505805969E-08  0.10566000000E+00  0.10566000000E+00 0. -1.
     999900   -1    0    0    0    0 -0.00000000000E+00 -0.00000000000E+00 -0.74505805969E-08  0.93827000000E+00  0.93827000000E+00 0.  1.
     999902    2    1    2    0    0 -0.81756440951E-02  0.11511536362E-01  0.14304011062E-01  0.10238312100E+01  0.10236339117E+01 0.  0.
     999903    2    3    3    0    0 -0.21571024654E-01  0.38621229384E-01  0.12092224414E+00  0.13688035497E+00  0.46444956495E-01 0.  0.
         14    1    1    2    0    0  0.81756440951E-02 -0.11511536362E-01 -0.14304011062E-01  0.20098789970E-01  0.00000000000E+00 0.  1.
     999901    1    3    3    0    0  0.13395380558E-01 -0.27109693022E-01 -0.10661823308E+00  0.88695085507E+00  0.88000000000E+00 0.  1.
        -11    1    4    4    0    0 -0.14173655184E-01  0.11575800367E-01  0.10058828604E+00  0.10224067716E+00  0.51100000000E-03 0. -1.
         11    1    4    4    0    0 -0.73973694693E-02  0.27045429017E-01  0.20333958096E-01  0.34639677808E-01  0.51100000000E-03 0.  1.
</event>
<event>
 8    1  0.2825007E+004  0.1043930E+01  0.7957747E-01            NaN
         13   -1    0    0    0    0  0.00000000000E+00  0.00000000000E+00  0.74505805969E-08  0.10566000000E+00  0.10566000000E+00 0. -1.
     999900   -1    0    0    0    0 -0.00000000000E+00 -0.00000000000E+00 -0.74505805969E-08  0.93827000000E+00  0.93827000000E+00 0. -1.
     999902    2    1    2    0    0  0.13015413424E-01  0.80488391567E-03 -0.38959952327E-02  0.10303201652E+01  0.10302302729E+01 0.  0.
     999903    2    3    3    0    0  0.60748202405E-01 -0.95222911232E-01 -0.70959845223E-01  0.14127724353E+00  0.46542593238E-01 0.  0.
         14    1    1    2    0    0 -0.13015413424E-01 -0.80488391567E-03  0.38959952327E-02  0.13609834810E-01  0.00000000000E+00 0.  1.
     999901    1    3    3    0    0 -0.47732788981E-01  0.96027795147E-01  0.67063849990E-01  0.88904292166E+00  0.88000000000E+00 0.  1.
        -11    1    4    4    0    0  0.57005710454E-01 -0.55224180625E-01 -0.32845422838E-01  0.85897870011E-01  0.51100000000E-03 0.  1.
         11    1    4    4    0    0  0.37424919510E-02 -0.39998730606E-01 -0.38114422385E-01  0.55379373515E-01  0.51100000000E-03 0. -1.
</event>
<event>
 8    1  0.2825007E+004  0.1043930E+01  0.7957747E-01            NaN
         13   -1    0    0    0    0  0.00000000000E+00  0.00000000000E+00  0.74505805969E-08  0.10566000000E+00  0.10566000000E+00 0. -1.
     999900   -1    0    0    0    0 -0.00000000000E+00 -0.00000000000E+00 -0.74505805969E-08  0.93827000000E+00  0.93827000000E+00 0. -1.
     999902    2    1    2    0    0 -0.12256293705E-01  0.30629183537E-02  0.72354929511E-03  0.10312760786E+01  0.10311984428E+01 0.  0.
     999903    2    3    3    0    0  0.95074368278E-02 -0.12986093991E+00  0.28198790006E-01  0.14060369159E+00  0.44944090387E-01 0.  0.
         14    1    1    2    0    0  0.12256293705E-01 -0.30629183537E-02 -0.72354929511E-03  0.12653921439E-01  0.00000000000E+00 0. -1.
     999901    1    3    3    0    0 -0.21763730532E-01  0.13292385827E+00 -0.27475240711E-01  0.89067238697E+00  0.88000000000E+00 0. -1.
        -11    1    4    4    0    0  0.21778490744E-01 -0.29805359482E-01  0.86899706992E-02  0.37926756053E-01  0.51100000000E-03 0. -1.
         11    1    4    4    0    0 -0.12271053916E-01 -0.10005558043E+00  0.19508819307E-01  0.10267693554E+00  0.51100000000E-03 0.  1.
</event>
<event>
 8    1  0.2825007E+004  0.1043930E+01  0.7957747E-01            NaN
         13   -1    0    0    0    0  0.00000000000E+00  0.00000000000E+00  0.74505805969E-08  0.10566000000E+00  0.10566000000E+00 0. -1.
     999900   -1    0    0    0    0 -0.00000000000E+00 -0.00000000000E+00 -0.74505805969E-08  0.93827000000E+00  0.93827000000E+00 0. -1.
     999902    2    1    2    0    0  0.91050301788E-02 -0.76992157880E-02 -0.77846304048E-02  0.10296899168E+01  0.10295914456E+01 0.  0.
     999903    2    3    3    0    0  0.35161862748E-01 -0.11712814723E+00  0.53653890282E-01  0.14040461874E+00  0.43351557704E-01 0.  0.
         14    1    1    2    0    0 -0.91050301788E-02  0.76992157880E-02  0.77846304048E-02  0.14240083176E-01  0.00000000000E+00 0.  1.
     999901    1    3    3    0    0 -0.26056832569E-01  0.10942893145E+00 -0.61438520687E-01  0.88928529808E+00  0.88000000000E+00 0. -1.
        -11    1    4    4    0    0  0.33960810629E-01 -0.69126106105E-01  0.14337457873E-01  0.78342702424E-01  0.51100000000E-03 0. -1.
         11    1    4    4    0    0  0.12010521192E-02 -0.48002041129E-01  0.39316432409E-01  0.62061916319E-01  0.51100000000E-03 0.  1.
</event>
<event>
 8    1  0.2825007E+004  0.1043930E+01  0.7957747E-01            NaN
         13   -1    0    0    0    0  0.00000000000E+00  0.00000000000E+00  0.74505805969E-08  0.10566000000E+00  0.10566000000E+00 0.  1.
     999900   -1    0    0    0    0 -0.00000000000E+00 -0.00000000000E+00 -0.74505805969E-08  0.93827000000E+00  0.93827000000E+00 0. -1.
     999902    2    1    2    0    0  0.13726921099E-01  0.57228909386E-05  0.34161266341E-02  0.10297843888E+01  0.10296872288E+01 0.  0.
     999903    2    3    3    0    0  0.86460110120E-01  0.28403326857E-01  0.98448366786E-01  0.14123069464E+00  0.44406402333E-01 0.  0.
         14    1    1    2    0    0 -0.13726921099E-01 -0.57228909386E-05 -0.34161266341E-02  0.14145611220E-01  0.00000000000E+00 0. -1.
     999901    1    3    3    0    0 -0.72733189021E-01 -0.28397603966E-01 -0.95032240152E-01  0.88855369414E+00  0.88000000000E+00 0. -1.
        -11    1    4    4    0    0  0.43889858642E-01  0.17515504020E-02  0.72314424035E-01  0.84611019760E-01  0.51100000000E-03 0. -1.
         11    1    4    4    0    0  0.42570251478E-01  0.26651776455E-01  0.26133942751E-01  0.56619674883E-01  0.51100000000E-03 0.  1.
</event>
<event>
 8    1  0.2825007E+004  0.1043930E+01  0.7957747E-01            NaN
         13   -1    0    0    0    0  0.00000000000E+00  0.00000000000E+00  0.74505805969E-08  0.10566000000E+00  0.10566000000E+00 0.  1.
     999900   -1    0    0    0    0 -0.00000000000E+00 -0.00000000000E+00 -0.74505805969E-08  0.93827000000E+00  0.93827000000E+00 0. -1.
     999902    2    1    2    0    0  0.33269577464E-02 -0.13015780790E-01  0.26790450009E-02  0.10302312234E+01  0.10301401445E+01 0.  0.
     999903    2    3    3    0    0  0.11077327873E+00  0.71194605991E-01 -0.11278113028E-01  0.13959611105E+00  0.44949829641E-01 0.  0.
         14    1    1    2    0    0 -0.33269577464E-02  0.13015780790E-01 -0.26790450009E-02  0.13698776571E-01  0.00000000000E+00 0.  1.
     999901    1    3    3    0    0 -0.10744632099E+00 -0.84210386781E-01  0.13957158029E-01  0.89063511238E+00  0.88000000000E+00 0.  1.
        -11    1    4    4    0    0  0.80899849155E-01  0.73296581980E-01 -0.78491554096E-02  0.10944882313E+00  0.51100000000E-03 0.  1.
         11    1    4    4    0    0  0.29873429577E-01 -0.21019759890E-02 -0.34289576184E-02  0.30147287922E-01  0.51100000000E-03 0. -1.
</event>
<event>
 8    1  0.2825007E+004  0.1043930E+01  0.7957747E-01            NaN
         13   -1    0    0    0    0  0.00000000000E+00  0.00000000000E+00  0.74505805969E-08  0.10566000000E+00  0.10566000000E+00 0. -1.
     999900   -1    0    0    0    0 -0.00000000000E+00 -0.00000000000E+00 -0.74505805969E-08  0.93827000000E+00  0.93827000000E+00 0.  1.
     999902    2    1    2    0    0  0.41415734140E-02 -0.10695042882E-01 -0.83083833673E-02  0.10297678742E+01  0.10296704856E+01 0.  0.
     999903    2    3    3    0    0 -0.10430237012E+00 -0.89423994921E-02 -0.81279773017E-01  0.14011176967E+00  0.45452784029E-01 0.  0.
         14    1    1    2    0    0 -0.41415734140E-02  0.10695042882E-01  0.83083833673E-02  0.14162125785E-01  0.00000000000E+00 0.  1.
     999901    1    3    3    0    0  0.10844394354E+00 -0.17526433894E-02  0.72971389649E-01  0.88965610455E+00  0.88000000000E+00 0. -1.
        -11    1    4    4    0    0 -0.37248292326E-01 -0.25218180324E-01 -0.35473095283E-01  0.57288685706E-01  0.51100000000E-03 0.  1.
         11    1    4    4    0    0 -0.67054077798E-01  0.16275780832E-01 -0.45806677734E-01  0.82823083962E-01  0.51100000000E-03 0. -1.
</event>
<event>
 8    1  0.2825007E+004  0.1043930E+01  0.7957747E-01            NaN
         13   -1    0    0    0    0  0.00000000000E+00  0.00000000000E+00  0.74505805969E-08  0.10566000000E+00  0.10566000000E+00 0. -1.
     999900   -1    0    0    0    0 -0.00000000000E+00 -0.00000000000E+00 -0.74505805969E-08  0.93827000000E+00  0.93827000000E+00 0.  1.
     999902    2    1    2    0    0  0.48050840903E-02  0.25470562426E-01  0.50996963458E-02  0.10175132385E+01  0.10171702637E+01 0.  0.
     999903    2    3    3    0    0  0.10940011167E+00 -0.49408636789E-01  0.41829072369E-02  0.12816074668E+00  0.44699915585E-01 0.  0.
         14    1    1    2    0    0 -0.48050840903E-02 -0.25470562426E-01 -0.50996963458E-02  0.26416761464E-01  0.00000000000E+00 0. -1.
     999901    1    3    3    0    0 -0.10459502758E+00  0.74879199215E-01  0.91678910889E-03  0.88935249186E+00  0.88000000000E+00 0.  1.
        -11    1    4    4    0    0  0.18706704845E-01 -0.21867142900E-01  0.15522373805E-01  0.32700427433E-01  0.51100000000E-03 0. -1.
         11    1    4    4    0    0  0.90693406827E-01 -0.27541493888E-01 -0.11339466568E-01  0.95460319246E-01  0.51100000000E-03 0.  1.
</event>
<event>
 8    1  0.2825007E+004  0.1043930E+01  0.7957747E-01            NaN
         13   -1    0    0    0    0  0.00000000000E+00  0.00000000000E+00  0.74505805969E-08  0.10566000000E+00  0.10566000000E+00 0. -1.
     999900   -1    0    0    0    0 -0.00000000000E+00 -0.00000000000E+00 -0.74505805969E-08  0.93827000000E+00  0.93827000000E+00 0.  1.
     999902    2    1    2    0    0  0.43099933046E-02  0.13486259549E-01 -0.56128068230E-02  0.10286998050E+01  0.10285870551E+01 0.  0.
     999903    2    3    3    0    0 -0.12794350075E+00 -0.11689916899E-01 -0.24271397519E-01  0.13826565834E+00  0.44967743964E-01 0.  0.
         14    1    1    2    0    0 -0.43099933046E-02 -0.13486259549E-01  0.56128068230E-02  0.15230194987E-01  0.00000000000E+00 0. -1.
     999901    1    3    3    0    0  0.13225349406E+00  0.25176176448E-01  0.18658590696E-01  0.89043414667E+00  0.88000000000E+00 0. -1.
        -11    1    4    4    0    0 -0.53159460131E-01 -0.26532563152E-01 -0.16269413713E-01  0.61602435442E-01  0.51100000000E-03 0.  1.
         11    1    4    4    0    0 -0.74784040622E-01  0.14842646253E-01 -0.80019838056E-02  0.76663222900E-01  0.51100000000E-03 0. -1.
</event>
<event>
 8    1  0.2825007E+004  0.1043930E+01  0.7957747E-01            NaN
         13   -1    0    0    0    0  0.00000000000E+00  0.00000000000E+00  0.74505805969E-08  0.10566000000E+00  0.10566000000E+00 0. -1.
     999900   -1    0    0    0    0 -0.00000000000E+00 -0.00000000000E+00 -0.74505805969E-08  0.93827000000E+00  0.93827000000E+00 0. -1.
     999902    2    1    2    0    0 -0.15673300918E-03  0.16817724957E-01  0.86100065403E-02  0.10250357509E+01  0.10248615994E+01 0.  0.
     999903    2    3    3    0    0  0.50383107271E-01  0.12018071319E+00  0.36894417540E-02  0.13753228904E+00  0.43813893062E-01 0.  0.
         14    1    1    2    0    0  0.15673300918E-03 -0.16817724957E-01 -0.86100065403E-02  0.18894249140E-01  0.00000000000E+00 0.  1.
     999901    1    3    3    0    0 -0.50539840281E-01 -0.10336298823E+00  0.49205647863E-02  0.88750346182E+00  0.88000000000E+00 0.  1.
        -11    1    4    4    0    0  0.57522932561E-01  0.93890663280E-01  0.62655953023E-03  0.11011356919E+00  0.51100000000E-03 0.  1.
         11    1    4    4    0    0 -0.71398252897E-02  0.26290049912E-01  0.30628822237E-02  0.27418719847E-01  0.51100000000E-03 0. -1.
</event>
<event>
 8    1  0.2825007E+004  0.1043930E+01  0.7957747E-01            NaN
         13   -1    0    0    0    0  0.00000000000E+00  0.00000000000E+00  0.74505805969E-08  0.10566000000E+00  0.10566000000E+00 0.  1.
     999900   -1    0    0    0    0 -0.00000000000E+00 -0.00000000000E+00 -0.74505805969E-08  0.93827000000E+00  0.93827000000E+00 0.  1.
     999902    2    1    2    0    0  0.39968445473E-02  0.62986468567E-02 -0.12034454000E-01  0.10297710522E+01  0.10296737077E+01 0.  0.
     999903    2    3    3    0    0 -0.12017754497E+00  0.22500806241E-02  0.52586877346E-01  0.13869777447E+00  0.44988751874E-01 0.  0.
         14    1    1    2    0    0 -0.39968445473E-02 -0.62986468567E-02  0.12034454000E-01  0.14158947759E-01  0.00000000000E+00 0.  1.
     999901    1    3    3    0    0  0.12417438952E+00  0.40485662326E-02 -0.64621331346E-01  0.89107327778E+00  0.88000000000E+00 0.  1.
        -11    1    4    4    0    0 -0.33006680983E-01 -0.17770345754E-01  0.63915486758E-02  0.38030766403E-01  0.51100000000E-03 0. -1.
         11    1    4    4    0    0 -0.87170863986E-01  0.20020426378E-01  0.46195328670E-01  0.10066700806E+00  0.51100000000E-03 0.  1.
</event>
<event>
 8    1  0.2825007E+004  0.1043930E+01  0.7957747E-01            NaN
         13   -1    0    0    0    0  0.00000000000E+00  0.00000000000E+00  0.74505805969E-08  0.10566000000E+00  0.10566000000E+00 0. -1.
     999900   -1    0    0    0    0 -0.00000000000E+00 -0.00000000000E+00 -0.74505805969E-08  0.93827000000E+00  0.93827000000E+00 0.  1.
     999902    2    1    2    0    0 -0.73330258590E-02  0.40922054999E-02  0.97195271176E-02  0.10310852103E+01  0.10310052000E+01 0.  0.
     999903    2    3    3    0    0 -0.29358312901E-01 -0.11201539787E+00  0.67416915846E-01  0.14131272397E+00  0.44887476176E-01 0.  0.
         14    1    1    2    0    0  0.73330258590E-02 -0.40922054999E-02 -0.97195271176E-02  0.12844789663E-01  0.00000000000E+00 0.  1.
     999901    1    3    3    0    0  0.22025287042E-01  0.11610760337E+00 -0.57697388729E-01  0.88977248637E+00  0.88000000000E+00 0.  1.
        -11    1    4    4    0    0 -0.12931751807E-01 -0.71879687670E-01  0.17339928508E-01  0.75065664228E-01  0.51100000000E-03 0. -1.
         11    1    4    4    0    0 -0.16426561094E-01 -0.40135710199E-01  0.50076987339E-01  0.66247059742E-01  0.51100000000E-03 0.  1.
</event>
<event>
 8    1  0.2825007E+004  0.1043930E+01  0.7957747E-01            NaN
         13   -1    0    0    0    0  0.00000000000E+00  0.00000000000E+00  0.74505805969E-08  0.10566000000E+00  0.10566000000E+00 0. -1.
     999900   -1    0    0    0    0 -0.00000000000E+00 -0.00000000000E+00 -0.74505805969E-08  0.93827000000E+00  0.93827000000E+00 0. -1.
     999902    2    1    2    0    0  0.57156941996E-03  0.10115801999E-01  0.89669827934E-02  0.10303999253E+01  0.10303110904E+01 0.  0.
     999903    2    3    3    0    0  0.51353809389E-01  0.94480151621E-01  0.81169488630E-01  0.14196907190E+00  0.44755096935E-01 0.  0.
         14    1    1    2    0    0 -0.57156941996E-03 -0.10115801999E-01 -0.89669827934E-02  0.13530074726E-01  0.00000000000E+00 0.  1.
     999901    1    3    3    0    0 -0.50782239969E-01 -0.84364349622E-01 -0.72202505837E-01  0.88843085338E+00  0.88000000000E+00 0.  1.
        -11    1    4    4    0    0  0.38829926656E-01  0.67763329907E-01  0.31542923959E-01  0.84230928150E-01  0.51100000000E-03 0. -1.
         11    1    4    4    0    0  0.12523882733E-01  0.26716821714E-01  0.49626564671E-01  0.57738143746E-01  0.51100000000E-03 0.  1.
</event>
<event>
 8    1  0.2825007E+004  0.1043930E+01  0.7957747E-01            NaN
         13   -1    0    0    0    0  0.00000000000E+00  0.00000000000E+00  0.74505805969E-08  0.10566000000E+00  0.10566000000E+00 0.  1.
     999900   -1    0    0    0    0 -0.00000000000E+00 -0.00000000000E+00 -0.74505805969E-08  0.93827000000E+00  0.93827000000E+00 0.  1.
     999902    2    1    2    0    0 -0.12297586825E-01 -0.36754479535E-02 -0.55673570808E-02  0.10299394666E+01  0.10298444396E+01 0.  0.
     999903    2    3    3    0    0  0.30137239652E-01  0.61763000592E-01 -0.11343767757E+00  0.13992884248E+00  0.44598798283E-01 0.  0.
         14    1    1    2    0    0  0.12297586825E-01  0.36754479535E-02  0.55673570808E-02  0.13990533380E-01  0.00000000000E+00 0. -1.
     999901    1    3    3    0    0 -0.42434826477E-01 -0.65438448545E-01  0.10787032049E+00  0.89001062414E+00  0.88000000000E+00 0. -1.
        -11    1    4    4    0    0  0.28188405158E-01  0.28509695103E-01 -0.29970196461E-01  0.50058592641E-01  0.51100000000E-03 0. -1.
         11    1    4    4    0    0  0.19488344939E-02  0.33253305488E-01 -0.83467481110E-01  0.89870249836E-01  0.51100000000E-03 0.  1.
</event>
<event>
 8    1  0.2825007E+004  0.1043930E+01  0.7957747E-01            NaN
         13   -1    0    0    0    0  0.00000000000E+00  0.00000000000E+00  0.74505805969E-08  0.10566000000E+00  0.10566000000E+00 0. -1.
     999900   -1    0    0    0    0 -0.00000000000E+00 -0.00000000000E+00 -0.74505805969E-08  0.93827000000E+00  0.93827000000E+00 0. -1.
     999902    2    1    2    0    0 -0.30584423044E-02 -0.81406752340E-02  0.10002733212E-01  0.10306755919E+01  0.10305903630E+01 0.  0.
     999903    2    3    3    0    0  0.83463066429E-01 -0.49090729564E-01 -0.90886113216E-01  0.13975391309E+00  0.43530305096E-01 0.  0.
         14    1    1    2    0    0  0.30584423044E-02  0.81406752340E-02 -0.10002733212E-01  0.13254408108E-01  0.00000000000E+00 0.  1.
     999901    1    3    3    0    0 -0.86521508734E-01  0.40950054330E-01  0.10088884643E+00  0.89092167880E+00  0.88000000000E+00 0.  1.
        -11    1    4    4    0    0  0.11955815500E-01 -0.29709422287E-01 -0.29344113247E-01  0.43438800630E-01  0.51100000000E-03 0.  1.
         11    1    4    4    0    0  0.71507250929E-01 -0.19381307278E-01 -0.61541999969E-01  0.96315112461E-01  0.51100000000E-03 0. -1.
</event>
<event>
 8    1  0.2825007E+004  0.1043930E+01  0.7957747E-01            NaN
         13   -1    0    0    0    0  0.00000000000E+00  0.00000000000E+00  0.74505805969E-08  0.10566000000E+00  0.10566000000E+00 0.  1.
     999900   -1    0    0    0    0 -0.00000000000E+00 -0.00000000000E+00 -0.74505805969E-08  0.93827000000E+00  0.93827000000E+00 0.  1.
     999902    2    1    2    0    0  0.85027766987E-02  0.11079570444E-01  0.27889183676E-03  0.10299610389E+01  0.10298663068E+01 0.  0.
     999903    2    3    3    0    0  0.55138070096E-01 -0.34282017317E-01 -0.11547763520E+00  0.13999918706E+00  0.45268362669E-01 0.  0.
         14    1    1    2    0    0 -0.85027766987E-02 -0.11079570444E-01 -0.27889183676E-03  0.13968961073E-01  0.00000000000E+00 0.  1.
     999901    1    3    3    0    0 -0.46635293398E-01  0.45361587760E-01  0.11575652704E+00  0.88996185187E+00  0.88000000000E+00 0. -1.
        -11    1    4    4    0    0  0.39561759021E-01 -0.33343468509E-01 -0.47455651216E-01  0.70208401366E-01  0.51100000000E-03 0.  1.
         11    1    4    4    0    0  0.15576311076E-01 -0.93854880791E-03 -0.68021983988E-01  0.69790785690E-01  0.51100000000E-03 0. -1.
</event>
<event>
 8    1  0.2825007E+004  0.1043930E+01  0.7957747E-01            NaN
         13   -1    0    0    0    0  0.00000000000E+00  0.00000000000E+00  0.74505805969E-08  0.10566000000E+00  0.10566000000E+00 0. -1.
     999900   -1    0    0    0    0 -0.00000000000E+00 -0.00000000000E+00 -0.74505805969E-08  0.93827000000E+00  0.93827000000E+00 0.  1.
     999902    2    1    2    0    0  0.48499715579E-02 -0.14602399467E-01  0.10101595169E-01  0.10255236283E+01  0.10253584338E+01 0.  0.
     999903    2    3    3    0    0 -0.11010289915E+00 -0.64576670915E-01 -0.15766123820E-01  0.13626510055E+00  0.45020130363E-01 0.  0.
         14    1    1    2    0    0 -0.48499715579E-02  0.14602399467E-01 -0.10101595169E-01  0.18406371703E-01  0.00000000000E+00 0.  1.
     999901    1    3    3    0    0  0.11495287071E+00  0.49974271448E-01  0.25867718989E-01  0.88925852775E+00  0.88000000000E+00 0.  1.
        -11    1    4    4    0    0 -0.86733585876E-01 -0.41104004920E-01 -0.29487709394E-01  0.10040936344E+00  0.51100000000E-03 0.  1.
         11    1    4    4    0    0 -0.23369313278E-01 -0.23472665995E-01  0.13721585574E-01  0.35855737110E-01  0.51100000000E-03 0. -1.
</event>
<event>
 8    1  0.2825007E+004  0.1043930E+01  0.7957747E-01            NaN
         13   -1    0    0    0    0  0.00000000000E+00  0.00000000000E+00  0.74505805969E-08  0.10566000000E+00  0.10566000000E+00 0.  1.
     999900   -1    0    0    0    0 -0.00000000000E+00 -0.00000000000E+00 -0.74505805969E-08  0.93827000000E+00  0.93827000000E+00 0.  1.
     999902    2    1    2    0    0 -0.90427844967E-02 -0.10185098100E-01  0.46476754650E-03  0.10303019340E+01  0.10302117991E+01 0.  0.
     999903    2    3    3    0    0  0.12807162717E-01 -0.16487259116E-01  0.13118848598E+00  0.14035484117E+00  0.45312354345E-01 0.  0.
         14    1    1    2    0    0  0.90427844967E-02  0.10185098100E-01 -0.46476754650E-03  0.13628066027E-01  0.00000000000E+00 0.  1.
     999901    1    3    3    0    0 -0.21849947213E-01  0.63021610162E-02 -0.13072371843E+00  0.88994709280E+00  0.88000000000E+00 0.  1.
        -11    1    4    4    0    0 -0.11198321108E-01 -0.28607300306E-02  0.90179474952E-01  0.90918562437E-01  0.51100000000E-03 0.  1.
         11    1    4    4    0    0  0.24005483825E-01 -0.13626529085E-01  0.41009011028E-01  0.49436278734E-01  0.51100000000E-03 0. -1.
</event>
<event>
 8    1  0.2825007E+004  0.1043930E+01  0.7957747E-01            NaN
         13   -1    0    0    0    0  0.00000000000E+00  0.00000000000E+00  0.74505805969E-08  0.10566000000E+00  0.10566000000E+00 0.  1.
     999900   -1    0    0    0    0 -0.00000000000E+00 -0.00000000000E+00 -0.74505805969E-08  0.93827000000E+00  0.93827000000E+00 0.  1.
     999902    2    1    2    0    0 -0.95342224984E-03  0.39831984825E-02  0.14412367236E-01  0.10289469691E+01  0.10288378755E+01 0.  0.
     999903    2    3    3    0    0 -0.10296899240E-01  0.11524671926E+00 -0.61692598917E-01  0.13863307086E+00  0.45003545869E-01 0.  0.
         14    1    1    2    0    0  0.95342224984E-03 -0.39831984825E-02 -0.14412367236E-01  0.14983030851E-01  0.00000000000E+00 0. -1.
     999901    1    3    3    0    0  0.93434769904E-02 -0.11126352078E+00  0.76104966153E-01  0.89031389829E+00  0.88000000000E+00 0. -1.
        -11    1    4    4    0    0  0.10542675213E-01  0.39673146300E-01 -0.39011364855E-02  0.41238168301E-01  0.51100000000E-03 0.  1.
         11    1    4    4    0    0 -0.20839574454E-01  0.75573572958E-01 -0.57791462432E-01  0.97394902557E-01  0.51100000000E-03 0. -1.
</event>
<event>
 8    1  0.2825007E+004  0.1043930E+01  0.7957747E-01            NaN
         13   -1    0    0    0    0  0.00000000000E+00  0.00000000000E+00  0.74505805969E-08  0.10566000000E+00  0.10566000000E+00 0.  1.
     999900   -1    0    0    0    0 -0.00000000000E+00 -0.00000000000E+00 -0.74505805969E-08  0.93827000000E+00  0.93827000000E+00 0. -1.
     999902    2    1    2    0    0 -0.16149038518E-02 -0.94185712933E-02  0.97318344970E-02  0.10302908650E+01  0.10302005827E+01 0.  0.
     999903    2    3    3    0    0 -0.11626230664E+00  0.60242879074E-01 -0.26794404386E-01  0.13937509419E+00  0.39513900724E-01 0.  0.
         14    1    1    2    0    0  0.16149038518E-02  0.94185712933E-02 -0.97318344970E-02  0.13639134955E-01  0.00000000000E+00 0. -1.
     999901    1    3    3    0    0  0.11464740278E+00 -0.69661450368E-01  0.36526238883E-01  0.89091577086E+00  0.88000000000E+00 0. -1.
        -11    1    4    4    0    0 -0.28723576496E-01  0.35163300511E-01 -0.13332041683E-01  0.47323419212E-01  0.51100000000E-03 0. -1.
         11    1    4    4    0    0 -0.87538730140E-01  0.25079578563E-01 -0.13462362703E-01  0.92051674976E-01  0.51100000000E-03 0.  1.
</event>
<event>
 8    1  0.2825007E+004  0.1043930E+01  0.7957747E-01            NaN
         13   -1    0    0    0    0  0.00000000000E+00  0.00000000000E+00  0.74505805969E-08  0.10566000000E+00  0.10566000000E+00 0. -1.
     999900   -1    0    0    0    0 -0.00000000000E+00 -0.00000000000E+00 -0.74505805969E-08  0.93827000000E+00  0.93827000000E+00 0. -1.
     999902    2    1    2    0    0  0.39819329162E-02 -0.67781109865E-02  0.13483926269E-01  0.10283218340E+01  0.10282033745E+01 0.  0.
     999903    2    3    3    0    0 -0.11744069252E+00  0.34905971736E-01 -0.45504447606E-01  0.13705271360E+00  0.41255889644E-01 0.  0.
         14    1    1    2    0    0 -0.39819329162E-02  0.67781109865E-02 -0.13483926269E-01  0.15608166002E-01  0.00000000000E+00 0.  1.
     999901    1    3    3    0    0  0.12142262544E+00 -0.41684082723E-01  0.58988373876E-01  0.89126912040E+00  0.88000000000E+00 0.  1.
        -11    1    4    4    0    0 -0.42121097822E-01 -0.19496186491E-02 -0.11388104243E-02  0.42184664332E-01  0.51100000000E-03 0. -1.
         11    1    4    4    0    0 -0.75319594702E-01  0.36855590386E-01 -0.44365637182E-01  0.94868049270E-01  0.51100000000E-03 0.  1.
</event>
<event>
 7    1  0.2825007E+004  0.1043930E+01  0.7957747E-01            NaN
         13   -1    0    0    0    0  0.00000000000E+00  0.00000000000E+00  0.74505805969E-08  0.10566000000E+00  0.10566000000E+00 0. -1.
     999900   -1    0    0    0    0 -0.00000000000E+00 -0.00000000000E+00 -0.74505805969E-08  0.93827000000E+00  0.93827000000E+00 0. -1.
     999903    2    1    2    0    0  0.10590144740E+00 -0.28831292913E-01 -0.36985468074E-01  0.12172472588E+00  0.37451622527E-01 0.  0.
         14    1    1    2    0    0  0.26775747890E-03  0.32067232524E-01 -0.12546017273E-01  0.34435180342E-01  0.00000000000E+00 0. -1.
     999901    1    1    2    0    0 -0.10616920487E+00 -0.32359396106E-02  0.49531485347E-01  0.88777009378E+00  0.88000000000E+00 0.  1.
        -11    1    3    3    0    0  0.33057328909E-01 -0.27189109940E-01 -0.17937355331E-01  0.46411685287E-01  0.51100000000E-03 0.  1.
         11    1    3    3    0    0  0.72844118486E-01 -0.16421829734E-02 -0.19048112743E-01  0.75313040591E-01  0.51100000000E-03 0. -1.
</event>
<event>
 8    1  0.2825007E+004  0.1043930E+01  0.7957747E-01            NaN
         13   -1    0    0    0    0  0.00000000000E+00  0.00000000000E+00  0.74505805969E-08  0.10566000000E+00  0.10566000000E+00 0.  1.
     999900   -1    0    0    0    0 -0.00000000000E+00 -0.00000000000E+00 -0.74505805969E-08  0.93827000000E+00  0.93827000000E+00 0. -1.
     999902    2    1    2    0    0 -0.11031988090E-01 -0.84736077777E-02  0.47224736939E-02  0.10292395763E+01  0.10291347322E+01 0.  0.
     999903    2    3    3    0    0 -0.31007593369E-01 -0.78953662165E-01 -0.10160008210E+00  0.13981788289E+00  0.45070079637E-01 0.  0.
         14    1    1    2    0    0  0.11031988090E-01  0.84736077777E-02 -0.47224736939E-02  0.14690423676E-01  0.00000000000E+00 0. -1.
     999901    1    3    3    0    0  0.19975605280E-01  0.70480054388E-01  0.10632255579E+00  0.88942169343E+00  0.88000000000E+00 0.  1.
        -11    1    4    4    0    0 -0.37726932005E-01 -0.64456508600E-01 -0.61846449975E-01  0.96970136614E-01  0.51100000000E-03 0.  1.
         11    1    4    4    0    0  0.67193386352E-02 -0.14497153565E-01 -0.39753632125E-01  0.42847746281E-01  0.51100000000E-03 0. -1.
</event>
<event>
 8    1  0.2825007E+004  0.1043930E+01  0.7957747E-01            NaN
         13   -1    0    0    0    0  0.00000000000E+00  0.00000000000E+00  0.74505805969E-08  0.10566000000E+00  0.10566000000E+00 0. -1.
     999900   -1    0    0    0    0 -0.00000000000E+00 -0.00000000000E+00 -0.74505805969E-08  0.93827000000E+00  0.93827000000E+00 0. -1.
     999902    2    1    2    0    0 -0.28260493735E-02 -0.97260751572E-02 -0.10463597808E-01  0.10293673776E+01  0.10292643626E+01 0.  0.
     999903    2    3    3    0    0 -0.44137034655E-01 -0.98288527228E-01 -0.79048309662E-01  0.14130557334E+00  0.45933837036E-01 0.  0.
         14    1    1    2    0    0  0.28260493735E-02  0.97260751572E-02  0.10463597808E-01  0.14562622432E-01  0.00000000000E+00 0. -1.
     999901    1    3    3    0    0  0.41310985281E-01  0.88562452070E-01  0.68584711855E-01  0.88806180422E+00  0.88000000000E+00 0. -1.
        -11    1    4    4    0    0  0.91027618253E-02 -0.14125779489E-01 -0.17314597632E-01  0.24134090644E-01  0.51100000000E-03 0.  1.
         11    1    4    4    0    0 -0.53239796480E-01 -0.84162747739E-01 -0.61733712030E-01  0.11717148270E+00  0.51100000000E-03 0. -1.
</event>
<event>
 8    1  0.2825007E+004  0.1043930E+01  0.7957747E-01            NaN
         13   -1    0    0    0    0  0.00000000000E+00  0.00000000000E+00  0.74505805969E-08  0.10566000000E+00  0.10566000000E+00 0.  1.
     999900   -1    0    0    0    0 -0.00000000000E+00 -0.00000000000E+00 -0.74505805969E-08  0.93827000000E+00  0.93827000000E+00 0.  1.
     999902    2    1    2    0    0 -0.30154004953E-02  0.14379078233E-01  0.54403340751E-02  0.10282632273E+01  0.10281438698E+01 0.  0.
     999903    2    3    3    0    0  0.10899581422E+00  0.26963492043E-01  0.67554125035E-01  0.13890221924E+00  0.46077644019E-01 0.  0.
         14    1    1    2    0    0  0.30154004953E-02 -0.14379078233E-01 -0.54403340751E-02  0.15666772668E-01  0.00000000000E+00 0. -1.
     999901    1    3    3    0    0 -0.11201121472E+00 -0.12584413810E-01 -0.62113790960E-01  0.88936100810E+00  0.88000000000E+00 0.  1.
        -11    1    4    4    0    0  0.58907852060E-01  0.36439972756E-01  0.29515808255E-01  0.75295754905E-01  0.51100000000E-03 0. -1.
         11    1    4    4    0    0  0.50087962163E-01 -0.94764807122E-02  0.38038316780E-01  0.63606464332E-01  0.51100000000E-03 0.  1.
</event>
<event>
 8    1  0.2825007E+004  0.1043930E+01  0.7957747E-01            NaN
         13   -1    0    0    0    0  0.00000000000E+00  0.00000000000E+00  0.74505805969E-08  0.10566000000E+00  0.10566000000E+00 0.  1.
     999900   -1    0    0    0    0 -0.00000000000E+00 -0.00000000000E+00 -0.74505805969E-08  0.93827000000E+00  0.93827000000E+00 0. -1.
     999902    2    1    2    0    0  0.73376451947E-02  0.12746375730E-01 -0.11920209091E-01  0.10249984782E+01  0.10248236326E+01 0.  0.
     999903    2    3    3    0    0 -0.84540623684E-01  0.18010854048E-01  0.92037201478E-01  0.13411325879E+00  0.45210748849E-01 0.  0.
         14    1    1    2    0    0 -0.73376451947E-02 -0.12746375730E-01  0.11920209091E-01  0.18931521757E-01  0.00000000000E+00 0.  1.
     999901    1    3    3    0    0  0.91878268879E-01 -0.52644783176E-02 -0.10395741057E+00  0.89088521945E+00  0.88000000000E+00 0. -1.
        -11    1    4    4    0    0 -0.72467943673E-01  0.77591144511E-02  0.47893646083E-01  0.87211634393E-01  0.51100000000E-03 0.  1.
         11    1    4    4    0    0 -0.12072680011E-01  0.10251739597E-01  0.44143555395E-01  0.46901624399E-01  0.51100000000E-03 0. -1.
</event>
<event>
 8    1  0.2825007E+004  0.1043930E+01  0.7957747E-01            NaN
         13   -1    0    0    0    0  0.00000000000E+00  0.00000000000E+00  0.74505805969E-08  0.10566000000E+00  0.10566000000E+00 0.  1.
     999900   -1    0    0    0    0 -0.00000000000E+00 -0.00000000000E+00 -0.74505805969E-08  0.93827000000E+00  0.93827000000E+00 0.  1.
     999902    2    1    2    0    0 -0.13516386359E-01  0.11907119330E-01 -0.51301433844E-02  0.10252005963E+01  0.10250294982E+01 0.  0.
     999903    2    3    3    0    0 -0.65654469150E-01 -0.10133434489E+00  0.40273883403E-01  0.13525479205E+00  0.45746194543E-01 0.  0.
         14    1    1    2    0    0  0.13516386359E-01 -0.11907119330E-01  0.51301433844E-02  0.18729403677E-01  0.00000000000E+00 0. -1.
     999901    1    3    3    0    0  0.52138082791E-01  0.11324146422E+00 -0.45404026788E-01  0.88994580427E+00  0.88000000000E+00 0. -1.
        -11    1    4    4    0    0 -0.52338009159E-01 -0.70327062325E-01  0.71365464147E-02  0.87956547873E-01  0.51100000000E-03 0.  1.
         11    1    4    4    0    0 -0.13316459991E-01 -0.31007282561E-01  0.33137336989E-01  0.47298244177E-01  0.51100000000E-03 0. -1.
</event>
<event>
 8    1  0.2825007E+004  0.1043930E+01  0.7957747E-01            NaN
         13   -1    0    0    0    0  0.00000000000E+00  0.00000000000E+00  0.74505805969E-08  0.10566000000E+00  0.10566000000E+00 0. -1.
     999900   -1    0    0    0    0 -0.00000000000E+00 -0.00000000000E+00 -0.74505805969E-08  0.93827000000E+00  0.93827000000E+00 0. -1.
     999902    2    1    2    0    0 -0.99708756934E-03 -0.13722632793E-01  0.73492474180E-03  0.10301515767E+01  0.10300594284E+01 0.  0.
     999903    2    3    3    0    0 -0.94715097220E-01  0.62272620722E-01  0.67607228425E-01  0.13940455936E+00  0.44878334441E-01 0.  0.
         14    1    1    2    0    0  0.99708756934E-03  0.13722632793E-01 -0.73492474180E-03  0.13778423305E-01  0.00000000000E+00 0.  1.
     999901    1    3    3    0    0  0.93718009651E-01 -0.75995253515E-01 -0.66872303683E-01  0.89074701733E+00  0.88000000000E+00 0. -1.
        -11    1    4    4    0    0 -0.57485964973E-01  0.58249680723E-01  0.59241837753E-01  0.10103226185E+00  0.51100000000E-03 0.  1.
         11    1    4    4    0    0 -0.37229132247E-01  0.40229399987E-02  0.83653906720E-02  0.38372297510E-01  0.51100000000E-03 0. -1.
</event>
<event>
 8    1  0.2825007E+004  0.1043930E+01  0.7957747E-01            NaN
         13   -1    0    0    0    0  0.00000000000E+00  0.00000000000E+00  0.74505805969E-08  0.10566000000E+00  0.10566000000E+00 0.  1.
     999900   -1    0    0    0    0 -0.00000000000E+00 -0.00000000000E+00 -0.74505805969E-08  0.93827000000E+00  0.93827000000E+00 0. -1.
     999902    2    1    2    0    0  0.51032916441E-02 -0.60267694321E-02  0.80975281529E-02  0.10326191425E+01  0.10325571935E+01 0.  0.
     999903    2    3    3    0    0  0.71298226262E-01 -0.11274332140E+00  0.29335420894E-01  0.14345029468E+00  0.43851186252E-01 0.  0.
         14    1    1    2    0    0 -0.51032916441E-02  0.60267694321E-02 -0.80975281529E-02  0.11310857509E-01  0.00000000000E+00 0.  1.
     999901    1    3    3    0    0 -0.66194934618E-01  0.10671655197E+00 -0.21237892741E-01  0.88916884781E+00  0.88000000000E+00 0.  1.
        -11    1    4    4    0    0  0.36770641080E-01 -0.29394091726E-01 -0.40500777125E-02  0.47252057356E-01  0.51100000000E-03 0. -1.
         11    1    4    4    0    0  0.34527585182E-01 -0.83349229674E-01  0.33385498607E-01  0.96198237322E-01  0.51100000000E-03 0.  1.
</event>
<event>
 8    1  0.2825007E+004  0.1043930E+01  0.7957747E-01            NaN
         13   -1    0    0    0    0  0.00000000000E+00  0.00000000000E+00  0.74505805969E-08  0.10566000000E+00  0.10566000000E+00 0.  1.
     999900   -1    0    0    0    0 -0.00000000000E+00 -0.00000000000E+00 -0.74505805969E-08  0.93827000000E+00  0.93827000000E+00 0.  1.
     999902    2    1    2    0    0  0.12198518696E-01 -0.35450198076E-02 -0.63417998159E-02  0.10297317801E+01  0.10296338910E+01 0.  0.
     999903    2    3    3    0    0  0.78210982332E-01 -0.72656048711E-01  0.79004288228E-01  0.14045233333E+00  0.45709093284E-01 0.  0.
         14    1    1    2    0    0 -0.12198518696E-01  0.35450198076E-02  0.63417998159E-02  0.14198219914E-01  0.00000000000E+00 0.  1.
     999901    1    3    3    0    0 -0.66012463636E-01  0.69111028904E-01 -0.85346088044E-01  0.88927944675E+00  0.88000000000E+00 0.  1.
        -11    1    4    4    0    0  0.32397878120E-01 -0.37560975876E-02  0.29820567392E-01  0.44195680065E-01  0.51100000000E-03 0. -1.
         11    1    4    4    0    0  0.45813104212E-01 -0.68899951124E-01  0.49183720836E-01  0.96256653270E-01  0.51100000000E-03 0.  1.
</event>
<event>
 8    1  0.2825007E+004  0.1043930E+01  0.7957747E-01            NaN
         13   -1    0    0    0    0  0.00000000000E+00  0.00000000000E+00  0.74505805969E-08  0.10566000000E+00  0.10566000000E+00 0.  1.
     999900   -1    0    0    0    0 -0.00000000000E+00 -0.00000000000E+00 -0.74505805969E-08  0.93827000000E+00  0.93827000000E+00 0. -1.
     999902    2    1    2    0    0 -0.10815211348E-01 -0.84865579752E-02  0.10835459763E-02  0.10301399842E+01  0.10300476798E+01 0.  0.
     999903    2    3    3    0    0  0.16160755653E-01  0.92208935744E-01 -0.90936922053E-01  0.13922188936E+00  0.48472186146E-01 0.  0.
         14    1    1    2    0    0  0.10815211348E-01  0.84865579752E-02 -0.10835459763E-02  0.13790015760E-01  0.00000000000E+00 0. -1.
     999901    1    3    3    0    0 -0.26975967001E-01 -0.10069549372E+00  0.92020468030E-01  0.89091809488E+00  0.88000000000E+00 0.  1.
        -11    1    4    4    0    0 -0.25762355784E-02  0.31407500805E-01 -0.61524508883E-01  0.69127378157E-01  0.51100000000E-03 0.  1.
         11    1    4    4    0    0  0.18736991231E-01  0.60801434940E-01 -0.29412413170E-01  0.70094511202E-01  0.51100000000E-03 0. -1.
</event>
<event>
 8    1  0.2825007E+004  0.1043930E+01  0.7957747E-01            NaN
         13   -1    0    0    0    0  0.00000000000E+00  0.00000000000E+00  0.74505805969E-08  0.10566000000E+00  0.10566000000E+00 0. -1.
     999900   -1    0    0    0    0 -0.00000000000E+00 -0.00000000000E+00 -0.74505805969E-08  0.93827000000E+00  0.93827000000E+00 0.  1.
     999902    2    1    2    0    0 -0.94658620393E-02  0.36439499352E-02 -0.75648184858E-02  0.10312766450E+01  0.10311990162E+01 0.  0.
     999903    2    3    3    0    0  0.22167959988E-01 -0.59719505303E-02  0.13103714798E+00  0.13981510941E+00  0.43016834228E-01 0.  0.
         14    1    1    2    0    0  0.94658620393E-02 -0.36439499352E-02  0.75648184858E-02  0.12653355049E-01  0.00000000000E+00 0. -1.
     999901    1    3    3    0    0 -0.31633822027E-01  0.96159004655E-02 -0.13860196646E+00  0.89146153554E+00  0.88000000000E+00 0.  1.
        -11    1    4    4    0    0  0.40410165344E-02 -0.12538673706E-01  0.11180040496E+00  0.11257504085E+00  0.51100000000E-03 0. -1.
         11    1    4    4    0    0  0.18126943453E-01  0.65667231759E-02  0.19236743018E-01  0.27240068560E-01  0.51100000000E-03 0.  1.
</event>
<event>
 8    1  0.2825007E+004  0.1043930E+01  0.7957747E-01            NaN
         13   -1    0    0    0    0  0.00000000000E+00  0.00000000000E+00  0.74505805969E-08  0.10566000000E+00  0.10566000000E+00 0. -1.
     999900   -1    0    0    0    0 -0.00000000000E+00 -0.00000000000E+00 -0.74505805969E-08  0.93827000000E+00  0.93827000000E+00 0.  1.
     999902    2    1    2    0    0 -0.51265736907E-02 -0.62190187811E-02 -0.11507038192E-01  0.10298811609E+01  0.10297853348E+01 0.  0.
     999903    2    3    3    0    0 -0.12853859054E+00 -0.28041765417E-01 -0.40012318316E-02  0.14096997562E+00  0.50477859551E-01 0.  0.
         14    1    1    2    0    0  0.51265736907E-02  0.62190187811E-02  0.11507038192E-01  0.14048839111E-01  0.00000000000E+00 0. -1.
     999901    1    3    3    0    0  0.12341201685E+00  0.21822746635E-01 -0.75058063602E-02  0.88891118527E+00  0.88000000000E+00 0. -1.
        -11    1    4    4    0    0 -0.64916919529E-01 -0.34891005687E-01  0.12812781675E-01  0.74806531895E-01  0.51100000000E-03 0. -1.
         11    1    4    4    0    0 -0.63621671007E-01  0.68492402700E-02 -0.16814013507E-01  0.66163443722E-01  0.51100000000E-03 0.  1.
</event>
<event>
 8    1  0.2825007E+004  0.1043930E+01  0.7957747E-01            NaN
         13   -1    0    0    0    0  0.00000000000E+00  0.00000000000E+00  0.74505805969E-08  0.10566000000E+00  0.10566000000E+00 0.  1.
     999900   -1    0    0    0    0 -0.00000000000E+00 -0.00000000000E+00 -0.74505805969E-08  0.93827000000E+00  0.93827000000E+00 0.  1.
     999902    2    1    2    0    0 -0.74016025889E-02 -0.10035790387E-02 -0.11895785327E-01  0.10298836268E+01  0.10297878345E+01 0.  0.
     999903    2    3    3    0    0  0.64333567338E-01  0.61473850263E-01  0.95694639814E-01  0.13824184706E+00  0.45116538402E-01 0.  0.
         14    1    1    2    0    0  0.74016025889E-02  0.10035790387E-02  0.11895785327E-01  0.14046373209E-01  0.00000000000E+00 0.  1.
     999901    1    3    3    0    0 -0.71735169927E-01 -0.62477429302E-01 -0.10759042514E+00  0.89164177973E+00  0.88000000000E+00 0.  1.
        -11    1    4    4    0    0  0.62059755610E-01  0.54917716594E-01  0.61115437263E-01  0.10296954237E+00  0.51100000000E-03 0. -1.
         11    1    4    4    0    0  0.22738117279E-02  0.65561336686E-02  0.34579202551E-01  0.35272304695E-01  0.51100000000E-03 0.  1.
</event>
<event>
 8    1  0.2825007E+004  0.1043930E+01  0.7957747E-01            NaN
         13   -1    0    0    0    0  0.00000000000E+00  0.00000000000E+00  0.74505805969E-08  0.10566000000E+00  0.10566000000E+00 0.  1.
     999900   -1    0    0    0    0 -0.00000000000E+00 -0.00000000000E+00 -0.74505805969E-08  0.93827000000E+00  0.93827000000E+00 0.  1.
     999902    2    1    2    0    0  0.14466432172E-02 -0.14246263183E-01  0.10397149607E-02  0.10295727789E+01  0.10294726695E+01 0.  0.
     999903    2    3    3    0    0 -0.76007128048E-01  0.10092757246E+00 -0.30328833193E-01  0.13814241989E+00  0.46904495035E-01 0.  0.
         14    1    1    2    0    0 -0.14466432172E-02  0.14246263183E-01 -0.10397149607E-02  0.14357221127E-01  0.00000000000E+00 0.  1.
     999901    1    3    3    0    0  0.77453771265E-01 -0.11517383564E+00  0.31368548154E-01  0.89143035898E+00  0.88000000000E+00 0. -1.
        -11    1    4    4    0    0 -0.13495792599E-01  0.79256012188E-02 -0.20296149524E-01  0.25634866472E-01  0.51100000000E-03 0. -1.
         11    1    4    4    0    0 -0.62511335449E-01  0.93001971239E-01 -0.10032683669E-01  0.11250755342E+00  0.51100000000E-03 0.  1.
</event>
<event>
 8    1  0.2825007E+004  0.1043930E+01  0.7957747E-01            NaN
         13   -1    0    0    0    0  0.00000000000E+00  0.00000000000E+00  0.74505805969E-08  0.10566000000E+00  0.10566000000E+00 0.  1.
     999900   -1    0    0    0    0 -0.00000000000E+00 -0.00000000000E+00 -0.74505805969E-08  0.93827000000E+00  0.93827000000E+00 0.  1.
     999902    2    1    2    0    0  0.30303248065E-02  0.60485878784E-02  0.12288666186E-01  0.10299021848E+01  0.10298066472E+01 0.  0.
     999903    2    3    3    0    0 -0.78365719016E-01  0.19665525883E-01  0.10834950847E+00  0.14083614539E+00  0.39588950951E-01 0.  0.
         14    1    1    2    0    0 -0.30303248065E-02 -0.60485878784E-02 -0.12288666186E-01  0.14027815239E-01  0.00000000000E+00 0. -1.
     999901    1    3    3    0    0  0.81396043822E-01 -0.13616938005E-01 -0.96060842280E-01  0.88906603938E+00  0.88000000000E+00 0.  1.
        -11    1    4    4    0    0 -0.21148391705E-01 -0.79065855903E-02  0.48790980351E-01  0.53764202329E-01  0.51100000000E-03 0. -1.
         11    1    4    4    0    0 -0.57217327310E-01  0.27572111473E-01  0.59558528114E-01  0.87071943057E-01  0.51100000000E-03 0.  1.
</event>
<event>
 8    1  0.2825007E+004  0.1043930E+01  0.7957747E-01            NaN
         13   -1    0    0    0    0  0.00000000000E+00  0.00000000000E+00  0.74505805969E-08  0.10566000000E+00  0.10566000000E+00 0. -1.
     999900   -1    0    0    0    0 -0.00000000000E+00 -0.00000000000E+00 -0.74505805969E-08  0.93827000000E+00  0.93827000000E+00 0.  1.
     999902    2    1    2    0    0  0.71936506369E-02  0.54491977038E-03 -0.12051247218E-01  0.10298844275E+01  0.10297886462E+01 0.  0.
     999903    2    3    3    0    0  0.22403298641E-01 -0.10699091772E+00  0.73405846535E-01  0.13909926564E+00  0.44846662441E-01 0.  0.
         14    1    1    2    0    0 -0.71936506369E-02 -0.54491977038E-03  0.12051247218E-01  0.14045572489E-01  0.00000000000E+00 0. -1.
     999901    1    3    3    0    0 -0.15209648004E-01  0.10753583749E+00 -0.85457093753E-01  0.89078516187E+00  0.88000000000E+00 0.  1.
        -11    1    4    4    0    0  0.16664547278E-01 -0.47086774987E-01  0.58835541777E-01  0.77180007851E-01  0.51100000000E-03 0.  1.
         11    1    4    4    0    0  0.57387513632E-02 -0.59904142730E-01  0.14570304758E-01  0.61919257789E-01  0.51100000000E-03 0. -1.
</event>
<event>
 8    1  0.2825007E+004  0.1043930E+01  0.7957747E-01            NaN
         13   -1    0    0    0    0  0.00000000000E+00  0.00000000000E+00  0.74505805969E-08  0.10566000000E+00  0.10566000000E+00 0. -1.
     999900   -1    0    0    0    0 -0.00000000000E+00 -0.00000000000E+00 -0.74505805969E-08  0.93827000000E+00  0.93827000000E+00 0.  1.
     999902    2    1    2    0    0  0.72126407849E-03 -0.37051250493E-02 -0.13286307750E-01  0.10301178985E+01  0.10300252962E+01 0.  0.
     999903    2    3    3    0    0 -0.62399246600E-01  0.11580960047E+00  0.11331135056E-01  0.13945859948E+00  0.44886265273E-01 0.  0.
         14    1    1    2    0    0 -0.72126407849E-03  0.37051250493E-02  0.13286307750E-01  0.13812101474E-01  0.00000000000E+00 0. -1.
     999901    1    3    3    0    0  0.63120510678E-01 -0.11951472552E+00 -0.24617442806E-01  0.89065929904E+00  0.88000000000E+00 0.  1.
        -11    1    4    4    0    0 -0.24929194040E-01  0.90054991961E-01  0.98923962590E-02  0.93965349557E-01  0.51100000000E-03 0.  1.
         11    1    4    4    0    0 -0.37470052560E-01  0.25754608509E-01  0.14387387966E-02  0.45493249924E-01  0.51100000000E-03 0. -1.
</event>
<event>
 8    1  0.2825007E+004  0.1043930E+01  0.7957747E-01            NaN
         13   -1    0    0    0    0  0.00000000000E+00  0.00000000000E+00  0.74505805969E-08  0.10566000000E+00  0.10566000000E+00 0. -1.
     999900   -1    0    0    0    0 -0.00000000000E+00 -0.00000000000E+00 -0.74505805969E-08  0.93827000000E+00  0.93827000000E+00 0.  1.
     999902    2    1    2    0    0  0.88385838520E-02 -0.92009146148E-02 -0.58220639020E-02  0.10299059556E+01  0.10298104697E+01 0.  0.
     999903    2    3    3    0    0 -0.10509406713E+00 -0.78281986665E-01  0.18534022632E-01  0.13954307312E+00  0.44225862105E-01 0.  0.
         14    1    1    2    0    0 -0.88385838520E-02  0.92009146148E-02  0.58220639020E-02  0.14024044436E-01  0.00000000000E+00 0. -1.
     999901    1    3    3    0    0  0.11393265099E+00  0.69081072050E-01 -0.24356086534E-01  0.89036288244E+00  0.88000000000E+00 0. -1.
        -11    1    4    4    0    0 -0.94230716808E-01 -0.57955594923E-01  0.28788451696E-01  0.11431235736E+00  0.51100000000E-03 0.  1.
         11    1    4    4    0    0 -0.10863350326E-01 -0.20326391742E-01 -0.10254429064E-01  0.25230715764E-01  0.51100000000E-03 0. -1.
</event>
<event>
 8    1  0.2825007E+004  0.1043930E+01  0.7957747E-01            NaN
         13   -1    0    0    0    0  0.00000000000E+00  0.00000000000E+00  0.74505805969E-08  0.10566000000E+00  0.10566000000E+00 0. -1.
     999900   -1    0    0    0    0 -0.00000000000E+00 -0.00000000000E+00 -0.74505805969E-08  0.93827000000E+00  0.93827000000E+00 0. -1.
     999902    2    1    2    0    0  0.72037606450E-02  0.55795382779E-03 -0.11974678604E-01  0.10299443499E+01  0.10298493897E+01 0.  0.
     999903    2    3    3    0    0 -0.19221435841E-02  0.83187194796E-01  0.10130677946E+00  0.13879702075E+00  0.45582292503E-01 0.  0.
         14    1    1    2    0    0 -0.72037606450E-02 -0.55795382779E-03  0.11974678604E-01  0.13985650059E-01  0.00000000000E+00 0. -1.
     999901    1    3    3    0    0  0.91259042291E-02 -0.82629240968E-01 -0.11328145806E+00  0.89114732920E+00  0.88000000000E+00 0. -1.
        -11    1    4    4    0    0  0.17143525014E-01  0.64981666855E-01  0.61813033589E-01  0.91310622162E-01  0.51100000000E-03 0.  1.
         11    1    4    4    0    0 -0.19065668598E-01  0.18205527941E-01  0.39493745868E-01  0.47486398583E-01  0.51100000000E-03 0. -1.
</event>
<event>
 8    1  0.2825007E+004  0.1043930E+01  0.7957747E-01            NaN
         13   -1    0    0    0    0  0.00000000000E+00  0.00000000000E+00  0.74505805969E-08  0.10566000000E+00  0.10566000000E+00 0. -1.
     999900   -1    0    0    0    0 -0.00000000000E+00 -0.00000000000E+00 -0.74505805969E-08  0.93827000000E+00  0.93827000000E+00 0. -1.
     999902    2    1    2    0    0  0.91040536600E-03  0.94540043754E-02  0.98852381377E-02  0.10302214271E+01  0.10301302170E+01 0.  0.
     999903    2    3    3    0    0  0.67393698869E-01  0.78764771358E-01  0.85652026634E-01  0.14175948819E+00  0.44874079055E-01 0.  0.
         14    1    1    2    0    0 -0.91040536600E-03 -0.94540043754E-02 -0.98852381377E-02  0.13708572854E-01  0.00000000000E+00 0. -1.
     999901    1    3    3    0    0 -0.66483293503E-01 -0.69310766982E-01 -0.75766788496E-01  0.88846193896E+00  0.88000000000E+00 0. -1.
        -11    1    4    4    0    0  0.14589653512E-01  0.48970507227E-01  0.49628039326E-01  0.71233222418E-01  0.51100000000E-03 0.  1.
         11    1    4    4    0    0  0.52804045357E-01  0.29794264130E-01  0.36023987308E-01  0.70526265772E-01  0.51100000000E-03 0. -1.
</event>
<event>
 8    1  0.2825007E+004  0.1043930E+01  0.7957747E-01            NaN
         13   -1    0    0    0    0  0.00000000000E+00  0.00000000000E+00  0.74505805969E-08  0.10566000000E+00  0.10566000000E+00 0. -1.
     999900   -1    0    0    0    0 -0.00000000000E+00 -0.00000000000E+00 -0.74505805969E-08  0.93827000000E+00  0.93827000000E+00 0. -1.
     999902    2    1    2    0    0  0.17806408497E-02  0.72255728350E-02  0.14172716478E-01  0.10279223307E+01  0.10277976807E+01 0.  0.
     999903    2    3    3    0    0 -0.10852250591E+00 -0.48679920370E-01  0.54914515727E-01  0.13834259701E+00  0.44454484283E-01 0.  0.
         14    1    1    2    0    0 -0.17806408497E-02 -0.72255728350E-02 -0.14172716478E-01  0.16007669318E-01  0.00000000000E+00 0.  1.
     999901    1    3    3    0    0  0.11030314676E+00  0.55905493205E-01 -0.40741799249E-01  0.88957973367E+00  0.88000000000E+00 0. -1.
        -11    1    4    4    0    0 -0.26450838309E-01 -0.12446775415E-01  0.36483753145E-01  0.46753549918E-01  0.51100000000E-03 0. -1.
         11    1    4    4    0    0 -0.82071667603E-01 -0.36233144955E-01  0.18430762583E-01  0.91589047090E-01  0.51100000000E-03 0.  1.
</event>
<event>
 8    1  0.2825007E+004  0.1043930E+01  0.7957747E-01            NaN
         13   -1    0    0    0    0  0.00000000000E+00  0.00000000000E+00  0.74505805969E-08  0.10566000000E+00  0.10566000000E+00 0. -1.
     999900   -1    0    0    0    0 -0.00000000000E+00 -0.00000000000E+00 -0.74505805969E-08  0.93827000000E+00  0.93827000000E+00 0.  1.
     999902    2    1    2    0    0 -0.53835191778E-02 -0.51748571922E-02 -0.11509391750E-01  0.10302103964E+01  0.10301190384E+01 0.  0.
     999903    2    3    3    0    0  0.34149392772E-01  0.12512229413E+00 -0.23273511716E-01  0.13966079454E+00  0.46278630799E-01 0.  0.
         14    1    1    2    0    0  0.53835191778E-02  0.51748571922E-02  0.11509391750E-01  0.13719603644E-01  0.00000000000E+00 0. -1.
     999901    1    3    3    0    0 -0.39532911950E-01 -0.13029715133E+00  0.11764119966E-01  0.89054960181E+00  0.88000000000E+00 0.  1.
        -11    1    4    4    0    0  0.26356674686E-01  0.67678679593E-01  0.92021200808E-02  0.73212144532E-01  0.51100000000E-03 0.  1.
         11    1    4    4    0    0  0.77927180863E-02  0.57443614541E-01 -0.32475631796E-01  0.66448650011E-01  0.51100000000E-03 0. -1.
</event>
<event>
 8    1  0.2825007E+004  0.1043930E+01  0.7957747E-01            NaN
         13   -1    0    0    0    0  0.00000000000E+00  0.00000000000E+00  0.74505805969E-08  0.10566000000E+00  0.10566000000E+00 0.  1.
     999900   -1    0    0    0    0 -0.00000000000E+00 -0.00000000000E+00 -0.74505805969E-08  0.93827000000E+00  0.93827000000E+00 0. -1.
     999902    2    1    2    0    0 -0.27070838747E-02 -0.14693755070E-01  0.79632700113E-02  0.10269993057E+01  0.10268597399E+01 0.  0.
     999903    2    3    3    0    0 -0.97200032284E-02 -0.13177235995E+00  0.16674554811E-01  0.13917473559E+00  0.40412039518E-01 0.  0.
         14    1    1    2    0    0  0.27070838747E-02  0.14693755070E-01 -0.79632700113E-02  0.16930694328E-01  0.00000000000E+00 0. -1.
     999901    1    3    3    0    0  0.70129193538E-02  0.11707860488E+00 -0.87112847994E-02  0.88782457008E+00  0.88000000000E+00 0. -1.
        -11    1    4    4    0    0 -0.13144455108E-01 -0.16014672309E-01 -0.50838628207E-02  0.21339006805E-01  0.51100000000E-03 0. -1.
         11    1    4    4    0    0  0.34244518797E-02 -0.11575768764E+00  0.21758417631E-01  0.11783572878E+00  0.51100000000E-03 0.  1.
</event>
<event>
 8    1  0.2825007E+004  0.1043930E+01  0.7957747E-01            NaN
         13   -1    0    0    0    0  0.00000000000E+00  0.00000000000E+00  0.74505805969E-08  0.10566000000E+00  0.10566000000E+00 0.  1.
     999900   -1    0    0    0    0 -0.00000000000E+00 -0.00000000000E+00 -0.74505805969E-08  0.93827000000E+00  0.93827000000E+00 0. -1.
     999902    2    1    2    0    0 -0.57895350046E-02  0.83025339787E-03 -0.12548714402E-01  0.10300852079E+01  0.10299921637E+01 0.  0.
     999903    2    3    3    0    0 -0.85803179697E-01  0.75138075890E-01  0.67271979405E-01  0.13975090043E+00  0.44686450566E-01 0.  0.
         14    1    1    2    0    0  0.57895350046E-02 -0.83025339787E-03  0.12548714402E-01  0.13844792140E-01  0.00000000000E+00 0.  1.
     999901    1    3    3    0    0  0.80013644692E-01 -0.74307822493E-01 -0.79820693807E-01  0.89033430743E+00  0.88000000000E+00 0. -1.
        -11    1    4    4    0    0 -0.49441422845E-01  0.36089751477E-01  0.10985760502E-01  0.62192222258E-01  0.51100000000E-03 0.  1.
         11    1    4    4    0    0 -0.36361756852E-01  0.39048324413E-01  0.56286218903E-01  0.77558678175E-01  0.51100000000E-03 0. -1.
</event>
<event>
 8    1  0.2825007E+004  0.1043930E+01  0.7957747E-01            NaN
         13   -1    0    0    0    0  0.00000000000E+00  0.00000000000E+00  0.74505805969E-08  0.10566000000E+00  0.10566000000E+00 0.  1.
     999900   -1    0    0    0    0 -0.00000000000E+00 -0.00000000000E+00 -0.74505805969E-08  0.93827000000E+00  0.93827000000E+00 0.  1.
     999902    2    1    2    0    0 -0.95968114549E-02  0.18213454900E-01 -0.33549838517E-02  0.10230713172E+01  0.10228586586E+01 0.  0.
     999903    2    3    3    0    0 -0.19491810640E-01 -0.62817257372E-01  0.10459469842E+00  0.13272474358E+00  0.48475438257E-01 0.  0.
         14    1    1    2    0    0  0.95968114549E-02 -0.18213454900E-01  0.33549838517E-02  0.20858682751E-01  0.00000000000E+00 0. -1.
     999901    1    3    3    0    0  0.98949991853E-02  0.81030712271E-01 -0.10794968228E+00  0.89034657367E+00  0.88000000000E+00 0.  1.
        -11    1    4    4    0    0 -0.94459630930E-04 -0.57543693417E-01  0.56727810072E-01  0.80805885499E-01  0.51100000000E-03 0.  1.
         11    1    4    4    0    0 -0.19397351009E-01 -0.52735639550E-02  0.47866888352E-01  0.51918858081E-01  0.51100000000E-03 0. -1.
</event>
<event>
 7    1  0.2825007E+004  0.1043930E+01  0.7957747E-01            NaN
         13   -1    0    0    0    0  0.00000000000E+00  0.00000000000E+00  0.74505805969E-08  0.10566000000E+00  0.10566000000E+00 0. -1.
     999900   -1    0    0    0    0 -0.00000000000E+00 -0.00000000000E+00 -0.74505805969E-08  0.93827000000E+00  0.93827000000E+00 0.  1.
     999903    2    1    2    0    0 -0.23537692453E-01 -0.88212731137E-01 -0.28697803063E-02  0.10171271819E+00  0.44740725311E-01 0.  0.
         14    1    1    2    0    0  0.24214466643E-01  0.13573582731E-01  0.50658214850E-01  0.57765363971E-01  0.00000000000E+00 0. -1.
     999901    1    1    2    0    0 -0.67677419028E-03  0.74639148406E-01 -0.47788434544E-01  0.88445191784E+00  0.88000000000E+00 0.  1.
        -11    1    3    3    0    0  0.11178965981E-01 -0.37829976302E-01  0.59364726809E-02  0.39894601343E-01  0.51100000000E-03 0. -1.
         11    1    3    3    0    0 -0.34716658433E-01 -0.50382754834E-01 -0.88062529872E-02  0.61818116844E-01  0.51100000000E-03 0.  1.
</event>
<event>
 8    1  0.2825007E+004  0.1043930E+01  0.7957747E-01            NaN
         13   -1    0    0    0    0  0.00000000000E+00  0.00000000000E+00  0.74505805969E-08  0.10566000000E+00  0.10566000000E+00 0.  1.
     999900   -1    0    0    0    0 -0.00000000000E+00 -0.00000000000E+00 -0.74505805969E-08  0.93827000000E+00  0.93827000000E+00 0.  1.
     999902    2    1    2    0    0  0.38004688766E-02  0.60520145256E-02 -0.12076462044E-01  0.10298974885E+01  0.10298018865E+01 0.  0.
     999903    2    3    3    0    0 -0.11224504402E+00 -0.14980489874E-01 -0.69191291870E-01  0.14019471168E+00  0.45207934351E-01 0.  0.
         14    1    1    2    0    0 -0.38004688766E-02 -0.60520145256E-02  0.12076462044E-01  0.14032511500E-01  0.00000000000E+00 0.  1.
     999901    1    3    3    0    0  0.11604551289E+00  0.21032504399E-01  0.57114829826E-01  0.88970277682E+00  0.88000000000E+00 0.  1.
        -11    1    4    4    0    0 -0.62576812962E-01  0.12845588169E-01 -0.45984012129E-01  0.78712496774E-01  0.51100000000E-03 0.  1.
         11    1    4    4    0    0 -0.49668231054E-01 -0.27826078043E-01 -0.23207279740E-01  0.61482214902E-01  0.51100000000E-03 0. -1.
</event>
<event>
 8    1  0.2825007E+004  0.1043930E+01  0.7957747E-01            NaN
         13   -1    0    0    0    0  0.00000000000E+00  0.00000000000E+00  0.74505805969E-08  0.10566000000E+00  0.10566000000E+00 0.  1.
     999900   -1    0    0    0    0 -0.00000000000E+00 -0.00000000000E+00 -0.74505805969E-08  0.93827000000E+00  0.93827000000E+00 0. -1.
     999902    2    1    2    0    0  0.13148188704E-01 -0.34205999391E-02  0.14179306671E-02  0.10302703551E+01  0.10301797993E+01 0.  0.
     999903    2    3    3    0    0 -0.45845936397E-01  0.65140169701E-02 -0.12356844805E+00  0.13942772130E+00  0.45018283111E-01 0.  0.
         14    1    1    2    0    0 -0.13148188704E-01  0.34205999391E-02 -0.14179306671E-02  0.13659644853E-01  0.00000000000E+00 0. -1.
     999901    1    3    3    0    0  0.58994125101E-01 -0.99346169092E-02  0.12498637871E+00  0.89084263384E+00  0.88000000000E+00 0.  1.
        -11    1    4    4    0    0 -0.14952120773E-01  0.10249616987E-01 -0.81420530559E-02  0.19879001810E-01  0.51100000000E-03 0. -1.
         11    1    4    4    0    0 -0.30893815624E-01 -0.37356000166E-02 -0.11542639499E+00  0.11954871949E+00  0.51100000000E-03 0.  1.
</event>
<event>
 7    1  0.2825007E+004  0.1043930E+01  0.7957747E-01            NaN
         13   -1    0    0    0    0  0.00000000000E+00  0.00000000000E+00  0.74505805969E-08  0.10566000000E+00  0.10566000000E+00 0.  1.
     999900   -1    0    0    0    0 -0.00000000000E+00 -0.00000000000E+00 -0.74505805969E-08  0.93827000000E+00  0.93827000000E+00 0.  1.
     999903    2    1    2    0    0 -0.68986020332E-01 -0.57505408005E-01 -0.56110013650E-01  0.11513614055E+00  0.45189094673E-01 0.  0.
         14    1    1    2    0    0 -0.35263746756E-01 -0.13457533381E-01 -0.28408633163E-02  0.37851123423E-01  0.00000000000E+00 0.  1.
     999901    1    1    2    0    0  0.10424976709E+00  0.70962941386E-01  0.58950876967E-01  0.89094273603E+00  0.88000000000E+00 0. -1.
        -11    1    3    3    0    0 -0.45805033481E-01 -0.38645586825E-01 -0.10862578860E-01  0.60908449444E-01  0.51100000000E-03 0.  1.
         11    1    3    3    0    0 -0.23180986851E-01 -0.18859821180E-01 -0.45247434790E-01  0.54227691104E-01  0.51100000000E-03 0. -1.
</event>
<event>
 8    1  0.2825007E+004  0.1043930E+01  0.7957747E-01            NaN
         13   -1    0    0    0    0  0.00000000000E+00  0.00000000000E+00  0.74505805969E-08  0.10566000000E+00  0.10566000000E+00 0. -1.
     999900   -1    0    0    0    0 -0.00000000000E+00 -0.00000000000E+00 -0.74505805969E-08  0.93827000000E+00  0.93827000000E+00 0. -1.
     999902    2    1    2    0    0  0.11744026843E-01 -0.58472741782E-02  0.10536251327E-01  0.10271036702E+01  0.10269658339E+01 0.  0.
     999903    2    3    3    0    0  0.27354037132E-01  0.88792760279E-01 -0.88917951400E-01  0.13632224530E+00  0.45221177089E-01 0.  0.
         14    1    1    2    0    0 -0.11744026843E-01  0.58472741782E-02 -0.10536251327E-01  0.16826329779E-01  0.00000000000E+00 0.  1.
     999901    1    3    3    0    0 -0.15610010289E-01 -0.94640034458E-01  0.99454202726E-01  0.89078142492E+00  0.88000000000E+00 0.  1.
        -11    1    4    4    0    0 -0.46267392264E-02  0.39985270240E-01 -0.57081973896E-01  0.69848703760E-01  0.51100000000E-03 0.  1.
         11    1    4    4    0    0  0.31980776358E-01  0.48807490040E-01 -0.31835977503E-01  0.66473541541E-01  0.51100000000E-03 0. -1.
</event>
<event>
 8    1  0.2825007E+004  0.1043930E+01  0.7957747E-01            NaN
         13   -1    0    0    0    0  0.00000000000E+00  0.00000000000E+00  0.74505805969E-08  0.10566000000E+00  0.10566000000E+00 0. -1.
     999900   -1    0    0    0    0 -0.00000000000E+00 -0.00000000000E+00 -0.74505805969E-08  0.93827000000E+00  0.93827000000E+00 0. -1.
     999902    2    1    2    0    0 -0.91555606906E-02  0.33040924338E-02 -0.98775280371E-02  0.10300625244E+01  0.10299691730E+01 0.  0.
     999903    2    3    3    0    0  0.65709420664E-01  0.14297554806E-01  0.11107190133E+00  0.13857254350E+00  0.48406967580E-01 0.  0.
         14    1    1    2    0    0  0.91555606906E-02 -0.33040924338E-02  0.98775280371E-02  0.13867475563E-01  0.00000000000E+00 0. -1.
     999901    1    3    3    0    0 -0.74864981355E-01 -0.10993462372E-01 -0.12094942936E+00  0.89148998094E+00  0.88000000000E+00 0.  1.
        -11    1    4    4    0    0  0.22769581101E-01  0.73981987885E-03  0.81675490514E-01  0.84794740572E-01  0.51100000000E-03 0. -1.
         11    1    4    4    0    0  0.42939839564E-01  0.13557734927E-01  0.29396410812E-01  0.53777802927E-01  0.51100000000E-03 0.  1.
</event>
<event>
 8    1  0.2825007E+004  0.1043930E+01  0.7957747E-01            NaN
         13   -1    0    0    0    0  0.00000000000E+00  0.00000000000E+00  0.74505805969E-08  0.10566000000E+00  0.10566000000E+00 0.  1.
     999900   -1    0    0    0    0 -0.00000000000E+00 -0.00000000000E+00 -0.74505805969E-08  0.93827000000E+00  0.93827000000E+00 0.  1.
     999902    2    1    2    0    0 -0.42805234988E-02 -0.13334683052E-01  0.39192420735E-02  0.10293870597E+01  0.10292843250E+01 0.  0.
     999903    2    3    3    0    0  0.39672463722E-01  0.43511302312E-01 -0.11659218124E+00  0.13827184030E+00  0.45367689900E-01 0.  0.
         14    1    1    2    0    0  0.42805234988E-02  0.13334683052E-01 -0.39192420735E-02  0.14542940279E-01  0.00000000000E+00 0.  1.
     999901    1    3    3    0    0 -0.43952987220E-01 -0.56845985364E-01  0.12051142331E+00  0.89111521942E+00  0.88000000000E+00 0. -1.
        -11    1    4    4    0    0  0.38831442909E-01  0.16202890092E-01 -0.93359193061E-01  0.10240417304E+00  0.51100000000E-03 0. -1.
         11    1    4    4    0    0  0.84102081242E-03  0.27308412220E-01 -0.23232988178E-01  0.35867667260E-01  0.51100000000E-03 0.  1.
</event>
<event>
 8    1  0.2825007E+004  0.1043930E+01  0.7957747E-01            NaN
         13   -1    0    0    0    0  0.00000000000E+00  0.00000000000E+00  0.74505805969E-08  0.10566000000E+00  0.10566000000E+00 0. -1.
     999900   -1    0    0    0    0 -0.00000000000E+00 -0.00000000000E+00 -0.74505805969E-08  0.93827000000E+00  0.93827000000E+00 0. -1.
     999902    2    1    2    0    0  0.45608948331E-02 -0.85954705276E-02 -0.86692183947E-02  0.10308977622E+01  0.10308153845E+01 0.  0.
     999903    2    3    3    0    0  0.11712070266E+00  0.55776342535E-01 -0.30093813068E-01  0.14113798902E+00  0.46755053008E-01 0.  0.
         14    1    1    2    0    0 -0.45608948331E-02  0.85954705276E-02  0.86692183947E-02  0.13032237830E-01  0.00000000000E+00 0.  1.
     999901    1    3    3    0    0 -0.11255980783E+00 -0.64371813062E-01  0.21424594674E-01  0.88975977315E+00  0.88000000000E+00 0. -1.
        -11    1    4    4    0    0  0.45472380576E-01  0.46976281453E-01 -0.19120402931E-01  0.68120183086E-01  0.51100000000E-03 0.  1.
         11    1    4    4    0    0  0.71648322086E-01  0.88000610816E-02 -0.10973410137E-01  0.73017805936E-01  0.51100000000E-03 0. -1.
</event>
<event>
 8    1  0.2825007E+004  0.1043930E+01  0.7957747E-01            NaN
         13   -1    0    0    0    0  0.00000000000E+00  0.00000000000E+00  0.74505805969E-08  0.10566000000E+00  0.10566000000E+00 0.  1.
     999900   -1    0    0    0    0 -0.00000000000E+00 -0.00000000000E+00 -0.74505805969E-08  0.93827000000E+00  0.93827000000E+00 0. -1.
     999902    2    1    2    0    0 -0.60802674424E-02 -0.93746722325E-02 -0.83532716234E-02  0.10299789686E+01  0.10298844811E+01 0.  0.
     999903    2    3    3    0    0 -0.69646459081E-01 -0.15692723060E-02  0.11226918303E+00  0.13944465616E+00  0.44579712817E-01 0.  0.
         14    1    1    2    0    0  0.60802674424E-02  0.93746722325E-02  0.83532716234E-02  0.13951031448E-01  0.00000000000E+00 0.  1.
     999901    1    3    3    0    0  0.63566191639E-01 -0.78053999265E-02 -0.12062245465E+00  0.89053431240E+00  0.88000000000E+00 0. -1.
        -11    1    4    4    0    0 -0.53336958461E-01  0.11048968712E-01  0.50340304816E-01  0.74170872028E-01  0.51100000000E-03 0.  1.
         11    1    4    4    0    0 -0.16309500620E-01 -0.12618241018E-01  0.61928878212E-01  0.65273784129E-01  0.51100000000E-03 0. -1.
</event>
<event>
 8    1  0.2825007E+004  0.1043930E+01  0.7957747E-01            NaN
         13   -1    0    0    0    0  0.00000000000E+00  0.00000000000E+00  0.74505805969E-08  0.10566000000E+00  0.10566000000E+00 0.  1.
     999900   -1    0    0    0    0 -0.00000000000E+00 -0.00000000000E+00 -0.74505805969E-08  0.93827000000E+00  0.93827000000E+00 0.  1.
     999902    2    1    2    0    0 -0.70931094726E-02  0.11017095494E-01  0.52002716472E-02  0.10298327868E+01  0.10297362950E+01 0.  0.
     999903    2    3    3    0    0  0.88403604939E-02  0.18750782158E-01  0.13168284277E+00  0.14061317040E+00  0.44743142533E-01 0.  0.
         14    1    1    2    0    0  0.70931094726E-02 -0.11017095494E-01 -0.52002716472E-02  0.14097213211E-01  0.00000000000E+00 0. -1.
     999901    1    3    3    0    0 -0.15933469967E-01 -0.77336866642E-02 -0.12648257113E+00  0.88921961639E+00  0.88000000000E+00 0.  1.
        -11    1    4    4    0    0 -0.12009156003E-01  0.12130225613E-01  0.10367068281E+00  0.10506775813E+00  0.51100000000E-03 0. -1.
         11    1    4    4    0    0  0.20849516497E-01  0.66205565449E-02  0.28012159958E-01  0.35545412273E-01  0.51100000000E-03 0.  1.
</event>
<event>
 8    1  0.2825007E+004  0.1043930E+01  0.7957747E-01            NaN
         13   -1    0    0    0    0  0.00000000000E+00  0.00000000000E+00  0.74505805969E-08  0.10566000000E+00  0.10566000000E+00 0. -1.
     999900   -1    0    0    0    0 -0.00000000000E+00 -0.00000000000E+00 -0.74505805969E-08  0.93827000000E+00  0.93827000000E+00 0. -1.
     999902    2    1    2    0    0 -0.93536350828E-02 -0.13158245477E-02 -0.10479218436E-01  0.10298219915E+01  0.10297253509E+01 0.  0.
     999903    2    3    3    0    0  0.47855369513E-01  0.48747294293E-01  0.11191202260E+00  0.13810521927E+00  0.43385662328E-01 0.  0.
         14    1    1    2    0    0  0.93536350828E-02  0.13158245477E-02  0.10479218436E-01  0.14108008454E-01  0.00000000000E+00 0.  1.
     999901    1    3    3    0    0 -0.57209004596E-01 -0.50063118840E-01 -0.12239124103E+00  0.89171677228E+00  0.88000000000E+00 0. -1.
        -11    1    4    4    0    0  0.32363028731E-01  0.28760822296E-02  0.46027330060E-01  0.56341935635E-01  0.51100000000E-03 0.  1.
         11    1    4    4    0    0  0.15492340783E-01  0.45871212063E-01  0.65884692539E-01  0.81763283636E-01  0.51100000000E-03 0. -1.
</event>
<event>
 8    1  0.2825007E+004  0.1043930E+01  0.7957747E-01            NaN
         13   -1    0    0    0    0  0.00000000000E+00  0.00000000000E+00  0.74505805969E-08  0.10566000000E+00  0.10566000000E+00 0.  1.
     999900   -1    0    0    0    0 -0.00000000000E+00 -0.00000000000E+00 -0.74505805969E-08  0.93827000000E+00  0.93827000000E+00 0. -1.
     999902    2    1    2    0    0 -0.11977947399E-01 -0.69570883442E-02  0.14306293799E-02  0.10300045197E+01  0.10299103803E+01 0.  0.
     999903    2    3    3    0    0 -0.10034800992E+00  0.26244866783E-01 -0.84036303986E-01  0.14083848654E+00  0.44887222853E-01 0.  0.
         14    1    1    2    0    0  0.11977947399E-01  0.69570883442E-02 -0.14306293799E-02  0.13925480334E-01  0.00000000000E+00 0. -1.
     999901    1    3    3    0    0  0.88370062517E-01 -0.33201955127E-01  0.85466933366E-01  0.88916603313E+00  0.88000000000E+00 0.  1.
        -11    1    4    4    0    0 -0.66359804255E-01 -0.52820260447E-03 -0.33600180459E-01  0.74385051365E-01  0.51100000000E-03 0. -1.
         11    1    4    4    0    0 -0.33988205661E-01  0.26773069388E-01 -0.50436123527E-01  0.66453435170E-01  0.51100000000E-03 0.  1.
</event>
<event>
 8    1  0.2825007E+004  0.1043930E+01  0.7957747E-01            NaN
         13   -1    0    0    0    0  0.00000000000E+00  0.00000000000E+00  0.74505805969E-08  0.10566000000E+00  0.10566000000E+00 0.  1.
     999900   -1    0    0    0    0 -0.00000000000E+00 -0.00000000000E+00 -0.74505805969E-08  0.93827000000E+00  0.93827000000E+00 0. -1.
     999902    2    1    2    0    0  0.11840368876E-01  0.65640154489E-02  0.32861059659E-03  0.10303878946E+01  0.10302989007E+01 0.  0.
     999903    2    3    3    0    0  0.42368575577E-01  0.10724335501E+00  0.68529449887E-01  0.14150114405E+00  0.45056130275E-01 0.  0.
         14    1    1    2    0    0 -0.11840368876E-01 -0.65640154489E-02 -0.32861059659E-03  0.13542105407E-01  0.00000000000E+00 0. -1.
     999901    1    3    3    0    0 -0.30528206701E-01 -0.10067933956E+00 -0.68200839290E-01  0.88888675055E+00  0.88000000000E+00 0.  1.
        -11    1    4    4    0    0  0.43012291017E-01  0.53004814377E-01  0.27976095576E-01  0.73773237494E-01  0.51100000000E-03 0.  1.
         11    1    4    4    0    0 -0.64371544017E-03  0.54238540628E-01  0.40553354311E-01  0.67727906552E-01  0.51100000000E-03 0. -1.
</event>
<event>
 8    1  0.2825007E+004  0.1043930E+01  0.7957747E-01            NaN
         13   -1    0    0    0    0  0.00000000000E+00  0.00000000000E+00  0.74505805969E-08  0.10566000000E+00  0.10566000000E+00 0.  1.
     999900   -1    0    0    0    0 -0.00000000000E+00 -0.00000000000E+00 -0.74505805969E-08  0.93827000000E+00  0.93827000000E+00 0.  1.
     999902    2    1    2    0    0  0.96020375223E-02 -0.99433096737E-02 -0.38969980648E-02  0.10295684149E+01  0.10294682442E+01 0.  0.
     999903    2    3    3    0    0 -0.63344957046E-01  0.45082198603E-01 -0.10654593782E+00  0.13890244196E+00  0.43552994166E-01 0.  0.
         14    1    1    2    0    0 -0.96020375223E-02  0.99433096737E-02  0.38969980648E-02  0.14361585071E-01  0.00000000000E+00 0.  1.
     999901    1    3    3    0    0  0.72946994568E-01 -0.55025508276E-01  0.10264893976E+00  0.89066597297E+00  0.88000000000E+00 0. -1.
        -11    1    4    4    0    0 -0.45371940810E-01  0.48213099605E-01 -0.61761916445E-01  0.90542318450E-01  0.51100000000E-03 0.  1.
         11    1    4    4    0    0 -0.17973016236E-01 -0.31309010025E-02 -0.44784021378E-01  0.48360123506E-01  0.51100000000E-03 0. -1.
</event>
<event>
 8    1  0.2825007E+004  0.1043930E+01  0.7957747E-01            NaN
         13   -1    0    0    0    0  0.00000000000E+00  0.00000000000E+00  0.74505805969E-08  0.10566000000E+00  0.10566000000E+00 0.  1.
     999900   -1    0    0    0    0 -0.00000000000E+00 -0.00000000000E+00 -0.74505805969E-08  0.93827000000E+00  0.93827000000E+00 0. -1.
     999902    2    1    2    0    0  0.21690865462E-02 -0.96249053380E-02 -0.62850200877E-02  0.10322319140E+01  0.10321656258E+01 0.  0.
     999903    2    3    3    0    0 -0.13264886830E+00 -0.12132255220E-01 -0.11107620819E-01  0.14194801249E+00  0.47780175103E-01 0.  0.
         14    1    1    2    0    0 -0.21690865462E-02  0.96249053380E-02  0.62850200877E-02  0.11698086028E-01  0.00000000000E+00 0.  1.
     999901    1    3    3    0    0  0.13481795485E+00  0.25073498824E-02  0.48226007308E-02  0.89028390148E+00  0.88000000000E+00 0.  1.
        -11    1    4    4    0    0 -0.10523089175E+00 -0.28299086107E-01 -0.26195850262E-02  0.10900230365E+00  0.51100000000E-03 0.  1.
         11    1    4    4    0    0 -0.27417976549E-01  0.16166830887E-01 -0.84880357923E-02  0.32945708849E-01  0.51100000000E-03 0. -1.
</event>
<event>
 8    1  0.2825007E+004  0.1043930E+01  0.7957747E-01            NaN
         13   -1    0    0    0    0  0.00000000000E+00  0.00000000000E+00  0.74505805969E-08  0.10566000000E+00  0.10566000000E+00 0. -1.
     999900   -1    0    0    0    0 -0.00000000000E+00 -0.00000000000E+00 -0.74505805969E-08  0.93827000000E+00  0.93827000000E+00 0.  1.
     999902    2    1    2    0    0  0.15810050725E-02 -0.10060992928E-02  0.13629611981E-01  0.10301721609E+01  0.10300802896E+01 0.  0.
     999903    2    3    3    0    0  0.34859621904E-01  0.12822187707E+00  0.66484743516E-02  0.14008448408E+00  0.43856783622E-01 0.  0.
         14    1    1    2    0    0 -0.15810050725E-02  0.10060992928E-02 -0.13629611981E-01  0.13757839060E-01  0.00000000000E+00 0.  1.
     999901    1    3    3    0    0 -0.33278616832E-01 -0.12922797637E+00  0.69811376297E-02  0.89008767686E+00  0.88000000000E+00 0. -1.
        -11    1    4    4    0    0 -0.56627986142E-02  0.53629857043E-01 -0.59778266076E-02  0.54260707575E-01  0.51100000000E-03 0. -1.
         11    1    4    4    0    0  0.40522420519E-01  0.74592020030E-01  0.12626300959E-01  0.85823776506E-01  0.51100000000E-03 0.  1.
</event>
<event>
 8    1  0.2825007E+004  0.1043930E+01  0.7957747E-01            NaN
         13   -1    0    0    0    0  0.00000000000E+00  0.00000000000E+00  0.74505805969E-08  0.10566000000E+00  0.10566000000E+00 0.  1.
     999900   -1    0    0    0    0 -0.00000000000E+00 -0.00000000000E+00 -0.74505805969E-08  0.93827000000E+00  0.93827000000E+00 0.  1.
     999902    2    1    2    0    0 -0.19183847341E-02  0.99100754621E-02 -0.95330111705E-02  0.10300459049E+01  0.10299523280E+01 0.  0.
     999903    2    3    3    0    0 -0.81640786739E-01 -0.74603199963E-01 -0.78924267270E-01  0.13970142012E+00  0.32505250568E-01 0.  0.
         14    1    1    2    0    0  0.19183847341E-02 -0.99100754621E-02  0.95330111705E-02  0.13884095132E-01  0.00000000000E+00 0.  1.
     999901    1    3    3    0    0  0.79722402005E-01  0.84513275425E-01  0.69391256099E-01  0.89034448475E+00  0.88000000000E+00 0.  1.
        -11    1    4    4    0    0 -0.67534695914E-01 -0.71784374005E-01 -0.77217027513E-01  0.12520647732E+00  0.51100000000E-03 0. -1.
         11    1    4    4    0    0 -0.14106090825E-01 -0.28188259576E-02 -0.17072397566E-02  0.14494942798E-01  0.51100000000E-03 0.  1.
</event>
<event>
 7    1  0.2825007E+004  0.1043930E+01  0.7957747E-01            NaN
         13   -1    0    0    0    0  0.00000000000E+00  0.00000000000E+00  0.74505805969E-08  0.10566000000E+00  0.10566000000E+00 0.  1.
     999900   -1    0    0    0    0 -0.00000000000E+00 -0.00000000000E+00 -0.74505805969E-08  0.93827000000E+00  0.93827000000E+00 0. -1.
     999903    2    1    2    0    0  0.13013811439E-01  0.62294660943E-01 -0.64079551302E-01  0.10122178764E+00  0.45712988606E-01 0.  0.
         14    1    1    2    0    0 -0.12540373126E-01 -0.31149475893E-01 -0.44217590993E-01  0.55522483372E-01  0.00000000000E+00 0. -1.
     999901    1    1    2    0    0 -0.47343831356E-03 -0.31145185050E-01  0.10829714229E+00  0.88718572899E+00  0.88000000000E+00 0.  1.
        -11    1    3    3    0    0  0.15963332548E-01  0.14750203609E-01 -0.44863273116E-01  0.49853494243E-01  0.51100000000E-03 0. -1.
         11    1    3    3    0    0 -0.29495211087E-02  0.47544457334E-01 -0.19216278186E-01  0.51368293394E-01  0.51100000000E-03 0.  1.
</event>
<event>
 8    1  0.2825007E+004  0.1043930E+01  0.7957747E-01            NaN
         13   -1    0    0    0    0  0.00000000000E+00  0.00000000000E+00  0.74505805969E-08  0.10566000000E+00  0.10566000000E+00 0. -1.
     999900   -1    0    0    0    0 -0.00000000000E+00 -0.00000000000E+00 -0.74505805969E-08  0.93827000000E+00  0.93827000000E+00 0. -1.
     999902    2    1    2    0    0  0.11595657000E-02 -0.12407210078E-01  0.56332119525E-02  0.10302546012E+01  0.10301638349E+01 0.  0.
     999903    2    3    3    0    0 -0.12519171852E+00  0.39001566841E-01 -0.16254933781E-01  0.13947595292E+00  0.44667997131E-01 0.  0.
         14    1    1    2    0    0 -0.11595657000E-02  0.12407210078E-01 -0.56332119525E-02  0.13675398767E-01  0.00000000000E+00 0. -1.
     999901    1    3    3    0    0  0.12635128422E+00 -0.51408776919E-01  0.21888145734E-01  0.89077864831E+00  0.88000000000E+00 0. -1.
        -11    1    4    4    0    0 -0.54624597780E-01  0.97710117054E-02 -0.28061759588E-01  0.62185551574E-01  0.51100000000E-03 0. -1.
         11    1    4    4    0    0 -0.70567120743E-01  0.29230555136E-01  0.11806825807E-01  0.77290401345E-01  0.51100000000E-03 0.  1.
</event>
<event>
 8    1  0.2825007E+004  0.1043930E+01  0.7957747E-01            NaN
         13   -1    0    0    0    0  0.00000000000E+00  0.00000000000E+00  0.74505805969E-08  0.10566000000E+00  0.10566000000E+00 0.  1.
     999900   -1    0    0    0    0 -0.00000000000E+00 -0.00000000000E+00 -0.74505805969E-08  0.93827000000E+00  0.93827000000E+00 0.  1.
     999902    2    1    2    0    0  0.12423503389E-01  0.48866986716E-02 -0.13757740787E-02  0.10305092692E+01  0.10304218738E+01 0.  0.
     999903    2    3    3    0    0  0.53469733004E-01 -0.60129807645E-01  0.10616125608E+00  0.14063503546E+00  0.45093178969E-01 0.  0.
         14    1    1    2    0    0 -0.12423503389E-01 -0.48866986716E-02  0.13757740787E-02  0.13420730781E-01  0.00000000000E+00 0. -1.
     999901    1    3    3    0    0 -0.41046229614E-01  0.65016506317E-01 -0.10753703016E+00  0.88987423376E+00  0.88000000000E+00 0.  1.
        -11    1    4    4    0    0  0.48073134549E-01 -0.30326344246E-01  0.45421317290E-01  0.72760364252E-01  0.51100000000E-03 0. -1.
         11    1    4    4    0    0  0.53965984550E-02 -0.29803463400E-01  0.60739938793E-01  0.67874671205E-01  0.51100000000E-03 0.  1.
</event>
<event>
 8    1  0.2825007E+004  0.1043930E+01  0.7957747E-01            NaN
         13   -1    0    0    0    0  0.00000000000E+00  0.00000000000E+00  0.74505805969E-08  0.10566000000E+00  0.10566000000E+00 0.  1.
     999900   -1    0    0    0    0 -0.00000000000E+00 -0.00000000000E+00 -0.74505805969E-08  0.93827000000E+00  0.93827000000E+00 0.  1.
     999902    2    1    2    0    0  0.29090614280E-02 -0.14038181858E-01  0.59577654782E-03  0.10295811973E+01  0.10294812061E+01 0.  0.
     999903    2    3    3    0    0  0.77718038588E-01  0.25303212243E-01 -0.10331161551E+00  0.13944588488E+00  0.45733126280E-01 0.  0.
         14    1    1    2    0    0 -0.29090614280E-02  0.14038181858E-01 -0.59577654782E-03  0.14348802666E-01  0.00000000000E+00 0.  1.
     999901    1    3    3    0    0 -0.74808977160E-01 -0.39341394101E-01  0.10390739206E+00  0.89013531245E+00  0.88000000000E+00 0. -1.
        -11    1    4    4    0    0  0.52163322334E-01 -0.66553462475E-02 -0.54205018392E-01  0.75523181676E-01  0.51100000000E-03 0.  1.
         11    1    4    4    0    0  0.25554716254E-01  0.31958558491E-01 -0.49106597115E-01  0.63922703204E-01  0.51100000000E-03 0. -1.
</event>
<event>
 7    1  0.2825007E+004  0.1043930E+01  0.7957747E-01            NaN
         13   -1    0    0    0    0  0.00000000000E+00  0.00000000000E+00  0.74505805969E-08  0.10566000000E+00  0.10566000000E+00 0.  1.
     999900   -1    0    0    0    0 -0.00000000000E+00 -0.00000000000E+00 -0.74505805969E-08  0.93827000000E+00  0.93827000000E+00 0.  1.
     999903    2    1    2    0    0 -0.43413674512E-01 -0.20008975950E-01  0.89405108865E-01  0.10963257623E+00  0.41724357717E-01 0.  0.
         14    1    1    2    0    0  0.32194266624E-01  0.17430142745E-02 -0.41746293903E-01  0.52747151173E-01  0.00000000000E+00 0. -1.
     999901    1    1    2    0    0  0.11219407888E-01  0.18265961676E-01 -0.47658814962E-01  0.88155027260E+00  0.88000000000E+00 0.  1.
        -11    1    3    3    0    0  0.20465348737E-03  0.73767440093E-02  0.30505713767E-01  0.31389774269E-01  0.51100000000E-03 0. -1.
         11    1    3    3    0    0 -0.43618327999E-01 -0.27385719959E-01  0.58899395098E-01  0.78242801963E-01  0.51100000000E-03 0.  1.
</event>
<event>
 8    1  0.2825007E+004  0.1043930E+01  0.7957747E-01            NaN
         13   -1    0    0    0    0  0.00000000000E+00  0.00000000000E+00  0.74505805969E-08  0.10566000000E+00  0.10566000000E+00 0. -1.
     999900   -1    0    0    0    0 -0.00000000000E+00 -0.00000000000E+00 -0.74505805969E-08  0.93827000000E+00  0.93827000000E+00 0.  1.
     999902    2    1    2    0    0  0.61928191074E-02 -0.31458099305E-02  0.12710860573E-01  0.10294450732E+01  0.10293431622E+01 0.  0.
     999903    2    3    3    0    0  0.10604126376E+00 -0.60244722028E-01  0.53277112362E-01  0.14103322136E+00  0.46666290536E-01 0.  0.
         14    1    1    2    0    0 -0.61928191074E-02  0.31458099305E-02 -0.12710860573E-01  0.14484926825E-01  0.00000000000E+00 0.  1.
     999901    1    3    3    0    0 -0.99848444656E-01  0.57098912098E-01 -0.40566251789E-01  0.88841185182E+00  0.88000000000E+00 0. -1.
        -11    1    4    4    0    0  0.79223017740E-01 -0.65959755571E-01  0.40193102392E-01  0.11064683681E+00  0.51100000000E-03 0. -1.
         11    1    4    4    0    0  0.26818246024E-01  0.57150335421E-02  0.13084009970E-01  0.30386384551E-01  0.51100000000E-03 0.  1.
</event>
<event>
 8    1  0.2825007E+004  0.1043930E+01  0.7957747E-01            NaN
         13   -1    0    0    0    0  0.00000000000E+00  0.00000000000E+00  0.74505805969E-08  0.10566000000E+00  0.10566000000E+00 0.  1.
     999900   -1    0    0    0    0 -0.00000000000E+00 -0.00000000000E+00 -0.74505805969E-08  0.93827000000E+00  0.93827000000E+00 0.  1.
     999902    2    1    2    0    0  0.12379886656E-01 -0.10132112869E-01 -0.60461675569E-02  0.10268280280E+01  0.10266856002E+01 0.  0.
     999903    2    3    3    0    0  0.42813778846E-01 -0.10886555544E+00 -0.61022689091E-01  0.13907979093E+00  0.43985120674E-01 0.  0.
         14    1    1    2    0    0 -0.12379886656E-01  0.10132112869E-01  0.60461675569E-02  0.17101972019E-01  0.00000000000E+00 0.  1.
     999901    1    3    3    0    0 -0.30433892190E-01  0.98733442566E-01  0.54976521534E-01  0.88774823706E+00  0.88000000000E+00 0. -1.
        -11    1    4    4    0    0  0.51601156707E-01 -0.83848946622E-01 -0.48367559833E-01  0.10969506456E+00  0.51100000000E-03 0.  1.
         11    1    4    4    0    0 -0.87873778605E-02 -0.25016608814E-01 -0.12655129258E-01  0.29384726368E-01  0.51100000000E-03 0. -1.
</event>
<event>
 8    1  0.2825007E+004  0.1043930E+01  0.7957747E-01            NaN
         13   -1    0    0    0    0  0.00000000000E+00  0.00000000000E+00  0.74505805969E-08  0.10566000000E+00  0.10566000000E+00 0. -1.
     999900   -1    0    0    0    0 -0.00000000000E+00 -0.00000000000E+00 -0.74505805969E-08  0.93827000000E+00  0.93827000000E+00 0.  1.
     999902    2    1    2    0    0 -0.34868336147E-02  0.12154156035E-01 -0.57747860635E-02  0.10300292924E+01  0.10299354900E+01 0.  0.
     999903    2    3    3    0    0 -0.35747192975E-01 -0.10634547203E+00  0.67718880079E-01  0.13846650067E+00  0.44720284698E-01 0.  0.
         14    1    1    2    0    0  0.34868336147E-02 -0.12154156035E-01  0.57747860635E-02  0.13900707596E-01  0.00000000000E+00 0.  1.
     999901    1    3    3    0    0  0.32260359361E-01  0.11849962806E+00 -0.73493666142E-01  0.89156279173E+00  0.88000000000E+00 0.  1.
        -11    1    4    4    0    0 -0.18130812167E-01 -0.20572569300E-01  0.36168036871E-01  0.45391023006E-01  0.51100000000E-03 0. -1.
         11    1    4    4    0    0 -0.17616380808E-01 -0.85772902726E-01  0.31550843208E-01  0.93075477667E-01  0.51100000000E-03 0.  1.
</event>
<event>
 8    1  0.2825007E+004  0.1043930E+01  0.7957747E-01            NaN
         13   -1    0    0    0    0  0.00000000000E+00  0.00000000000E+00  0.74505805969E-08  0.10566000000E+00  0.10566000000E+00 0.  1.
     999900   -1    0    0    0    0 -0.00000000000E+00 -0.00000000000E+00 -0.74505805969E-08  0.93827000000E+00  0.93827000000E+00 0. -1.
     999902    2    1    2    0    0 -0.13147292829E-01 -0.18174266275E-02  0.31714549272E-02  0.10302840308E+01  0.10301936574E+01 0.  0.
     999903    2    3    3    0    0  0.39725500382E-01  0.17903715077E-03  0.12674255623E+00  0.14007656332E+00  0.44492927491E-01 0.  0.
         14    1    1    2    0    0  0.13147292829E-01  0.18174266275E-02 -0.31714549272E-02  0.13645969171E-01  0.00000000000E+00 0. -1.
     999901    1    3    3    0    0 -0.52872793211E-01 -0.19964637782E-02 -0.12357110130E+00  0.89020746751E+00  0.88000000000E+00 0. -1.
        -11    1    4    4    0    0  0.21047652941E-01 -0.14844792024E-01  0.10359574656E+00  0.10675069728E+00  0.51100000000E-03 0. -1.
         11    1    4    4    0    0  0.18677847441E-01  0.15023829174E-01  0.23146809673E-01  0.33325866037E-01  0.51100000000E-03 0.  1.
</event>
<event>
 8    1  0.2825007E+004  0.1043930E+01  0.7957747E-01            NaN
         13   -1    0    0    0    0  0.00000000000E+00  0.00000000000E+00  0.74505805969E-08  0.10566000000E+00  0.10566000000E+00 0.  1.
     999900   -1    0    0    0    0 -0.00000000000E+00 -0.00000000000E+00 -0.74505805969E-08  0.93827000000E+00  0.93827000000E+00 0. -1.
     999902    2    1    2    0    0 -0.12926689042E-01 -0.13551039454E-03  0.60003937287E-02  0.10296778992E+01  0.10295792605E+01 0.  0.
     999903    2    3    3    0    0  0.11779610629E+00 -0.43877890501E-01 -0.37111547213E-01  0.13790411370E+00  0.42884562546E-01 0.  0.
         14    1    1    2    0    0  0.12926689042E-01  0.13551039454E-03 -0.60003937287E-02  0.14252100812E-01  0.00000000000E+00 0. -1.
     999901    1    3    3    0    0 -0.13072279534E+00  0.43742380106E-01  0.43111940942E-01  0.89177378549E+00  0.88000000000E+00 0. -1.
        -11    1    4    4    0    0  0.10703020286E+00 -0.41136513232E-01 -0.18391849947E-01  0.11613009218E+00  0.51100000000E-03 0. -1.
         11    1    4    4    0    0  0.10765903435E-01 -0.27413772683E-02 -0.18719697266E-01  0.21774021513E-01  0.51100000000E-03 0.  1.
</event>
<event>
 8    1  0.2825007E+004  0.1043930E+01  0.7957747E-01            NaN
         13   -1    0    0    0    0  0.00000000000E+00  0.00000000000E+00  0.74505805969E-08  0.10566000000E+00  0.10566000000E+00 0.  1.
     999900   -1    0    0    0    0 -0.00000000000E+00 -0.00000000000E+00 -0.74505805969E-08  0.93827000000E+00  0.93827000000E+00 0.  1.
     999902    2    1    2    0    0 -0.10829615963E-01  0.76608306634E-02  0.27281157394E-02  0.10303870489E+01  0.10302980438E+01 0.  0.
     999903    2    3    3    0    0  0.32238154726E-01 -0.87211269913E-01 -0.93404451020E-01  0.13904142643E+00  0.44306010592E-01 0.  0.
         14    1    1    2    0    0  0.10829615963E-01 -0.76608306634E-02 -0.27281157394E-02  0.13542951076E-01  0.00000000000E+00 0.  1.
     999901    1    3    3    0    0 -0.43067770689E-01  0.94872100577E-01  0.96132566759E-01  0.89134562249E+00  0.88000000000E+00 0. -1.
        -11    1    4    4    0    0  0.12878064384E-01 -0.36389929761E-01 -0.10705628966E-01  0.40061741635E-01  0.51100000000E-03 0. -1.
         11    1    4    4    0    0  0.19360090342E-01 -0.50821340152E-01 -0.82698822053E-01  0.98979684799E-01  0.51100000000E-03 0.  1.
</event>
<event>
 8    1  0.2825007E+004  0.1043930E+01  0.7957747E-01            NaN
         13   -1    0    0    0    0  0.00000000000E+00  0.00000000000E+00  0.74505805969E-08  0.10566000000E+00  0.10566000000E+00 0.  1.
     999900   -1    0    0    0    0 -0.00000000000E+00 -0.00000000000E+00 -0.74505805969E-08  0.93827000000E+00  0.93827000000E+00 0. -1.
     999902    2    1    2    0    0  0.12607078830E-01 -0.44160373838E-02 -0.19424036546E-02  0.10304313795E+01  0.10303429600E+01 0.  0.
     999903    2    3    3    0    0  0.12273101860E+00 -0.27635921333E-01 -0.49748117690E-01  0.14197663593E+00  0.43079494676E-01 0.  0.
         14    1    1    2    0    0 -0.12607078830E-01  0.44160373838E-02  0.19424036546E-02  0.13498620476E-01  0.00000000000E+00 0.  1.
     999901    1    3    3    0    0 -0.11012393977E+00  0.23219883949E-01  0.47805714035E-01  0.88845474359E+00  0.88000000000E+00 0.  1.
        -11    1    4    4    0    0  0.24350307414E-01 -0.21508174977E-01 -0.23093811181E-01  0.39863821917E-01  0.51100000000E-03 0.  1.
         11    1    4    4    0    0  0.98380711186E-01 -0.61277463556E-02 -0.26654306509E-01  0.10211281401E+00  0.51100000000E-03 0. -1.
</event>
<event>
 7    1  0.2825007E+004  0.1043930E+01  0.7957747E-01            NaN
         13   -1    0    0    0    0  0.00000000000E+00  0.00000000000E+00  0.74505805969E-08  0.10566000000E+00  0.10566000000E+00 0. -1.
     999900   -1    0    0    0    0 -0.00000000000E+00 -0.00000000000E+00 -0.74505805969E-08  0.93827000000E+00  0.93827000000E+00 0.  1.
     999903    2    1    2    0    0 -0.65707829627E-01  0.65433551189E-01 -0.24909962690E-01  0.10604314164E+00  0.45006367895E-01 0.  0.
         14    1    1    2    0    0  0.23544072987E-01  0.32604022407E-01  0.32026939455E-01  0.51410801402E-01  0.00000000000E+00 0. -1.
     999901    1    1    2    0    0  0.42163756640E-01 -0.98037573596E-01 -0.71169767645E-02  0.88647605696E+00  0.88000000000E+00 0. -1.
        -11    1    3    3    0    0 -0.40415374777E-01  0.16418966768E-01  0.39257824313E-02  0.43802487108E-01  0.51100000000E-03 0.  1.
         11    1    3    3    0    0 -0.25292454850E-01  0.49014584421E-01 -0.28835745122E-01  0.62240654527E-01  0.51100000000E-03 0. -1.
</event>
<event>
 8    1  0.2825007E+004  0.1043930E+01  0.7957747E-01            NaN
         13   -1    0    0    0    0  0.00000000000E+00  0.00000000000E+00  0.74505805969E-08  0.10566000000E+00  0.10566000000E+00 0. -1.
     999900   -1    0    0    0    0 -0.00000000000E+00 -0.00000000000E+00 -0.74505805969E-08  0.93827000000E+00  0.93827000000E+00 0.  1.
     999902    2    1    2    0    0 -0.74392425028E-02 -0.13832502336E-01  0.55484850279E-02  0.10272726852E+01  0.10271376264E+01 0.  0.
     999903    2    3    3    0    0 -0.10521526354E+00 -0.30789803675E-01 -0.70962130590E-01  0.13839610510E+00  0.45821329516E-01 0.  0.
         14    1    1    2    0    0  0.74392425028E-02  0.13832502336E-01 -0.55484850279E-02  0.16657314790E-01  0.00000000000E+00 0.  1.
     999901    1    3    3    0    0  0.97776021035E-01  0.16957301339E-01  0.76510615618E-01  0.88887658011E+00  0.88000000000E+00 0.  1.
        -11    1    4    4    0    0 -0.20886442902E-01 -0.25538530939E-01 -0.10973635212E-01  0.34772717041E-01  0.51100000000E-03 0.  1.
         11    1    4    4    0    0 -0.84328820637E-01 -0.52512727362E-02 -0.59988495377E-01  0.10362338806E+00  0.51100000000E-03 0. -1.
</event>
<event>
 8    1  0.2825007E+004  0.1043930E+01  0.7957747E-01            NaN
         13   -1    0    0    0    0  0.00000000000E+00  0.00000000000E+00  0.74505805969E-08  0.10566000000E+00  0.10566000000E+00 0.  1.
     999900   -1    0    0    0    0 -0.00000000000E+00 -0.00000000000E+00 -0.74505805969E-08  0.93827000000E+00  0.93827000000E+00 0.  1.
     999902    2    1    2    0    0  0.87912157709E-02 -0.98063386685E-02  0.39819205229E-02  0.10301711685E+01  0.10300792838E+01 0.  0.
     999903    2    3    3    0    0 -0.60993837227E-01 -0.78383793826E-01 -0.87577381813E-01  0.14002740101E+00  0.45536885211E-01 0.  0.
         14    1    1    2    0    0 -0.87912157709E-02  0.98063386685E-02 -0.39819205229E-02  0.13758831486E-01  0.00000000000E+00 0. -1.
     999901    1    3    3    0    0  0.69785052998E-01  0.68577455157E-01  0.91559302336E-01  0.89014376750E+00  0.88000000000E+00 0. -1.
        -11    1    4    4    0    0 -0.22014455327E-01 -0.62397738658E-01 -0.44312338612E-01  0.79636414455E-01  0.51100000000E-03 0.  1.
         11    1    4    4    0    0 -0.38979381901E-01 -0.15986055168E-01 -0.43265043201E-01  0.60390986558E-01  0.51100000000E-03 0. -1.
</event>
<event>
 8    1  0.2825007E+004  0.1043930E+01  0.7957747E-01            NaN
         13   -1    0    0    0    0  0.00000000000E+00  0.00000000000E+00  0.74505805969E-08  0.10566000000E+00  0.10566000000E+00 0. -1.
     999900   -1    0    0    0    0 -0.00000000000E+00 -0.00000000000E+00 -0.74505805969E-08  0.93827000000E+00  0.93827000000E+00 0. -1.
     999902    2    1    2    0    0 -0.13947939638E-01  0.15564134316E-02 -0.43123273815E-02  0.10292479153E+01  0.10291431910E+01 0.  0.
     999903    2    3    3    0    0 -0.46738588451E-01  0.42295210623E-01  0.11639800700E+00  0.13946936924E+00  0.43929812566E-01 0.  0.
         14    1    1    2    0    0  0.13947939638E-01 -0.15564134316E-02  0.43123273815E-02  0.14682084674E-01  0.00000000000E+00 0. -1.
     999901    1    3    3    0    0  0.32790648813E-01 -0.40738797191E-01 -0.12071033438E+00  0.88977854608E+00  0.88000000000E+00 0. -1.
        -11    1    4    4    0    0  0.82278910692E-02  0.75737921129E-02  0.11444677901E-01  0.16009443828E-01  0.51100000000E-03 0.  1.
         11    1    4    4    0    0 -0.54966479520E-01  0.34721418510E-01  0.10495332909E+00  0.12345992541E+00  0.51100000000E-03 0. -1.
</event>
<event>
 8    1  0.2825007E+004  0.1043930E+01  0.7957747E-01            NaN
         13   -1    0    0    0    0  0.00000000000E+00  0.00000000000E+00  0.74505805969E-08  0.10566000000E+00  0.10566000000E+00 0.  1.
     999900   -1    0    0    0    0 -0.00000000000E+00 -0.00000000000E+00 -0.74505805969E-08  0.93827000000E+00  0.93827000000E+00 0.  1.
     999902    2    1    2    0    0 -0.79039982185E-02 -0.74558085974E-02 -0.63269674639E-02  0.10313565046E+01  0.10312798586E+01 0.  0.
     999903    2    3    3    0    0 -0.94811426622E-01 -0.27706742573E-01 -0.92301071944E-01  0.14267515107E+00  0.45605269973E-01 0.  0.
         14    1    1    2    0    0  0.79039982185E-02  0.74558085974E-02  0.63269674639E-02  0.12573495416E-01  0.00000000000E+00 0.  1.
     999901    1    3    3    0    0  0.86907428404E-01  0.20250933976E-01  0.85974104480E-01  0.88868135351E+00  0.88000000000E+00 0.  1.
        -11    1    4    4    0    0 -0.71699761724E-01 -0.44167209535E-02 -0.43869357354E-01  0.84173302721E-01  0.51100000000E-03 0.  1.
         11    1    4    4    0    0 -0.23111664899E-01 -0.23290021620E-01 -0.48431714590E-01  0.58501848352E-01  0.51100000000E-03 0. -1.
</event>
<event>
 8    1  0.2825007E+004  0.1043930E+01  0.7957747E-01            NaN
         13   -1    0    0    0    0  0.00000000000E+00  0.00000000000E+00  0.74505805969E-08  0.10566000000E+00  0.10566000000E+00 0.  1.
     999900   -1    0    0    0    0 -0.00000000000E+00 -0.00000000000E+00 -0.74505805969E-08  0.93827000000E+00  0.93827000000E+00 0. -1.
     999902    2    1    2    0    0 -0.10322615191E-01  0.13529250097E-01 -0.27594904402E-02  0.10266901688E+01  0.10265454159E+01 0.  0.
     999903    2    3    3    0    0 -0.10619409620E+00  0.41366034546E-01  0.64270427057E-01  0.13851268806E+00  0.45461435058E-01 0.  0.
         14    1    1    2    0    0  0.10322615191E-01 -0.13529250097E-01  0.27594904402E-02  0.17239831207E-01  0.00000000000E+00 0. -1.
     999901    1    3    3    0    0  0.95871481011E-01 -0.27836784450E-01 -0.67029917497E-01  0.88817748073E+00  0.88000000000E+00 0.  1.
        -11    1    4    4    0    0 -0.17348910313E-01  0.12545971556E-01 -0.52813616606E-02  0.22057651582E-01  0.51100000000E-03 0.  1.
         11    1    4    4    0    0 -0.88845185889E-01  0.28820062990E-01  0.69551788718E-01  0.11645503648E+00  0.51100000000E-03 0. -1.
</event>
<event>
 8    1  0.2825007E+004  0.1043930E+01  0.7957747E-01            NaN
         13   -1    0    0    0    0  0.00000000000E+00  0.00000000000E+00  0.74505805969E-08  0.10566000000E+00  0.10566000000E+00 0.  1.
     999900   -1    0    0    0    0 -0.00000000000E+00 -0.00000000000E+00 -0.74505805969E-08  0.93827000000E+00  0.93827000000E+00 0. -1.
     999902    2    1    2    0    0  0.12933629031E-01  0.16974154177E-02 -0.26340028242E-02  0.10306221846E+01  0.10305362631E+01 0.  0.
     999903    2    3    3    0    0 -0.11697237144E-01 -0.37949404566E-01  0.12581515526E+00  0.14007306408E+00  0.47053451772E-01 0.  0.
         14    1    1    2    0    0 -0.12933629031E-01 -0.16974154177E-02  0.26340028242E-02  0.13307815369E-01  0.00000000000E+00 0.  1.
     999901    1    3    3    0    0  0.24630866175E-01  0.39646819984E-01 -0.12844915808E+00  0.89054912055E+00  0.88000000000E+00 0. -1.
        -11    1    4    4    0    0 -0.47036916759E-02 -0.27198417757E-01  0.12408780189E+00  0.12712168322E+00  0.51100000000E-03 0. -1.
         11    1    4    4    0    0 -0.69935454685E-02 -0.10750986809E-01  0.17273533656E-02  0.12951380862E-01  0.51100000000E-03 0.  1.
</event>
<event>
 8    1  0.2825007E+004  0.1043930E+01  0.7957747E-01            NaN
         13   -1    0    0    0    0  0.00000000000E+00  0.00000000000E+00  0.74505805969E-08  0.10566000000E+00  0.10566000000E+00 0.  1.
     999900   -1    0    0    0    0 -0.00000000000E+00 -0.00000000000E+00 -0.74505805969E-08  0.93827000000E+00  0.93827000000E+00 0.  1.
     999902    2    1    2    0    0 -0.10877099961E-01  0.78749990100E-02  0.83080333645E-03  0.10304757387E+01  0.10303879031E+01 0.  0.
     999903    2    3    3    0    0  0.64984002971E-01 -0.11005967750E+00  0.25384874842E-01  0.13903510843E+00  0.48480060356E-01 0.  0.
         14    1    1    2    0    0  0.10877099961E-01 -0.78749990100E-02 -0.83080333645E-03  0.13454261301E-01  0.00000000000E+00 0.  1.
     999901    1    3    3    0    0 -0.75861102932E-01  0.11793467651E+00 -0.24554071506E-01  0.89144063027E+00  0.88000000000E+00 0.  1.
        -11    1    4    4    0    0  0.73892816484E-02 -0.77956815821E-04 -0.75636713085E-02  0.10586680557E-01  0.51100000000E-03 0.  1.
         11    1    4    4    0    0  0.57594721322E-01 -0.10998172069E+00  0.32948546151E-01  0.12844842788E+00  0.51100000000E-03 0. -1.
</event>
<event>
 8    1  0.2825007E+004  0.1043930E+01  0.7957747E-01            NaN
         13   -1    0    0    0    0  0.00000000000E+00  0.00000000000E+00  0.74505805969E-08  0.10566000000E+00  0.10566000000E+00 0.  1.
     999900   -1    0    0    0    0 -0.00000000000E+00 -0.00000000000E+00 -0.74505805969E-08  0.93827000000E+00  0.93827000000E+00 0. -1.
     999902    2    1    2    0    0 -0.10609522662E-01  0.27317921973E-02  0.60333556003E-02  0.10314229604E+01  0.10313471274E+01 0.  0.
     999903    2    3    3    0    0  0.68628805563E-02 -0.43455342518E-01 -0.12473343662E+00  0.14039069935E+00  0.47070716269E-01 0.  0.
         14    1    1    2    0    0  0.10609522662E-01 -0.27317921973E-02 -0.60333556003E-02  0.12507039599E-01  0.00000000000E+00 0. -1.
     999901    1    3    3    0    0 -0.17472403218E-01  0.46187134715E-01  0.13076679222E+00  0.89103226105E+00  0.88000000000E+00 0.  1.
        -11    1    4    4    0    0 -0.80415048460E-02 -0.10940192667E-01 -0.88272067968E-01  0.89311660606E-01  0.51100000000E-03 0.  1.
         11    1    4    4    0    0  0.14904385402E-01 -0.32515149852E-01 -0.36461368651E-01  0.51079038744E-01  0.51100000000E-03 0. -1.
</event>
<event>
 8    1  0.2825007E+004  0.1043930E+01  0.7957747E-01            NaN
         13   -1    0    0    0    0  0.00000000000E+00  0.00000000000E+00  0.74505805969E-08  0.10566000000E+00  0.10566000000E+00 0.  1.
     999900   -1    0    0    0    0 -0.00000000000E+00 -0.00000000000E+00 -0.74505805969E-08  0.93827000000E+00  0.93827000000E+00 0. -1.
     999902    2    1    2    0    0 -0.71042085835E-02 -0.57035636814E-02 -0.10770031163E-01  0.10298234771E+01  0.10297268569E+01 0.  0.
     999903    2    3    3    0    0 -0.58045911297E-01 -0.62077753417E-01  0.10089741042E+00  0.13951862823E+00  0.45411286085E-01 0.  0.
         14    1    1    2    0    0  0.71042085835E-02  0.57035636814E-02  0.10770031163E-01  0.14106522942E-01  0.00000000000E+00 0.  1.
     999901    1    3    3    0    0  0.50941702713E-01  0.56374189735E-01 -0.11166744159E+00  0.89030484883E+00  0.88000000000E+00 0. -1.
        -11    1    4    4    0    0 -0.13342796652E-01 -0.36813258682E-01  0.68194454146E-01  0.78638355365E-01  0.51100000000E-03 0.  1.
         11    1    4    4    0    0 -0.44703114645E-01 -0.25264494735E-01  0.32702956279E-01  0.60880272860E-01  0.51100000000E-03 0. -1.
</event>
<event>
 8    1  0.2825007E+004  0.1043930E+01  0.7957747E-01            NaN
         13   -1    0    0    0    0  0.00000000000E+00  0.00000000000E+00  0.74505805969E-08  0.10566000000E+00  0.10566000000E+00 0. -1.
     999900   -1    0    0    0    0 -0.00000000000E+00 -0.00000000000E+00 -0.74505805969E-08  0.93827000000E+00  0.93827000000E+00 0. -1.
     999902    2    1    2    0    0 -0.13703439556E-01  0.50490144454E-03 -0.57599989913E-02  0.10290566423E+01  0.10289491515E+01 0.  0.
     999903    2    3    3    0    0 -0.12152376437E+00 -0.12462935484E-01 -0.54005986136E-01  0.14106955764E+00  0.45394090878E-01 0.  0.
         14    1    1    2    0    0  0.13703439556E-01 -0.50490144454E-03  0.57599989913E-02  0.14873357708E-01  0.00000000000E+00 0. -1.
     999901    1    3    3    0    0  0.10782032481E+00  0.12967836929E-01  0.48245987145E-01  0.88798708465E+00  0.88000000000E+00 0.  1.
        -11    1    4    4    0    0 -0.60875015615E-01  0.13749789312E-01 -0.38057718343E-01  0.73099078509E-01  0.51100000000E-03 0. -1.
         11    1    4    4    0    0 -0.60648748752E-01 -0.26212724797E-01 -0.15948267793E-01  0.67970479129E-01  0.51100000000E-03 0.  1.
</event>
<event>
 8    1  0.2825007E+004  0.1043930E+01  0.7957747E-01            NaN
         13   -1    0    0    0    0  0.00000000000E+00  0.00000000000E+00  0.74505805969E-08  0.10566000000E+00  0.10566000000E+00 0. -1.
     999900   -1    0    0    0    0 -0.00000000000E+00 -0.00000000000E+00 -0.74505805969E-08  0.93827000000E+00  0.93827000000E+00 0. -1.
     999902    2    1    2    0    0  0.11829157599E-01  0.27819550207E-02  0.41414312444E-02  0.10310917877E+01  0.10310118597E+01 0.  0.
     999903    2    3    3    0    0 -0.10062351927E+00 -0.67156466533E-01  0.53282635925E-01  0.13982760385E+00  0.45581091267E-01 0.  0.
         14    1    1    2    0    0 -0.11829157599E-01 -0.27819550207E-02 -0.41414312444E-02  0.12838212337E-01  0.00000000000E+00 0.  1.
     999901    1    3    3    0    0  0.11245267687E+00  0.69938421554E-01 -0.49141204680E-01  0.89126418381E+00  0.88000000000E+00 0.  1.
        -11    1    4    4    0    0 -0.26549385425E-01 -0.41212839334E-01  0.31857659523E-01  0.58468278439E-01  0.51100000000E-03 0. -1.
         11    1    4    4    0    0 -0.74074133844E-01 -0.25943627200E-01  0.21424976402E-01  0.81359325414E-01  0.51100000000E-03 0.  1.
</event>
<event>
 8    1  0.2825007E+004  0.1043930E+01  0.7957747E-01            NaN
         13   -1    0    0    0    0  0.00000000000E+00  0.00000000000E+00  0.74505805969E-08  0.10566000000E+00  0.10566000000E+00 0.  1.
     999900   -1    0    0    0    0 -0.00000000000E+00 -0.00000000000E+00 -0.74505805969E-08  0.93827000000E+00  0.93827000000E+00 0. -1.
     999902    2    1    2    0    0 -0.12530389871E-01  0.30858174803E-02 -0.50731369996E-02  0.10300638665E+01  0.10299705333E+01 0.  0.
     999903    2    3    3    0    0  0.71885676482E-01 -0.48219146623E-01 -0.98666337091E-01  0.13960445769E+00  0.47557564559E-01 0.  0.
         14    1    1    2    0    0  0.12530389871E-01 -0.30858174803E-02  0.50731369996E-02  0.13866133522E-01  0.00000000000E+00 0.  1.
     999901    1    3    3    0    0 -0.84416066353E-01  0.51304964103E-01  0.93593200092E-01  0.89045940879E+00  0.88000000000E+00 0. -1.
        -11    1    4    4    0    0  0.66532782827E-01 -0.19345242432E-01 -0.72178254182E-01  0.10005404086E+00  0.51100000000E-03 0. -1.
         11    1    4    4    0    0  0.53528936557E-02 -0.28873904191E-01 -0.26488082910E-01  0.39550416824E-01  0.51100000000E-03 0.  1.
</event>
<event>
 8    1  0.2825007E+004  0.1043930E+01  0.7957747E-01            NaN
         13   -1    0    0    0    0  0.00000000000E+00  0.00000000000E+00  0.74505805969E-08  0.10566000000E+00  0.10566000000E+00 0. -1.
     999900   -1    0    0    0    0 -0.00000000000E+00 -0.00000000000E+00 -0.74505805969E-08  0.93827000000E+00  0.93827000000E+00 0.  1.
     999902    2    1    2    0    0 -0.12182130258E-01 -0.62020007156E-02 -0.24699232143E-02  0.10300386491E+01  0.10299449737E+01 0.  0.
     999903    2    3    3    0    0  0.32227321041E-01 -0.10179262470E+00 -0.77164319783E-01  0.14060679689E+00  0.49148758080E-01 0.  0.
         14    1    1    2    0    0  0.12182130258E-01  0.62020007156E-02  0.24699232143E-02  0.13891350949E-01  0.00000000000E+00 0. -1.
     999901    1    3    3    0    0 -0.44409451299E-01  0.95590623979E-01  0.74694396569E-01  0.88943185216E+00  0.88000000000E+00 0. -1.
        -11    1    4    4    0    0  0.45170042353E-01 -0.85318755882E-01 -0.61885216671E-01  0.11467198435E+00  0.51100000000E-03 0.  1.
         11    1    4    4    0    0 -0.12942721312E-01 -0.16473868813E-01 -0.15279103111E-01  0.25934812541E-01  0.51100000000E-03 0. -1.
</event>
<event>
 8    1  0.2825007E+004  0.1043930E+01  0.7957747E-01            NaN
         13   -1    0    0    0    0  0.00000000000E+00  0.00000000000E+00  0.74505805969E-08  0.10566000000E+00  0.10566000000E+00 0. -1.
     999900   -1    0    0    0    0 -0.00000000000E+00 -0.00000000000E+00 -0.74505805969E-08  0.93827000000E+00  0.93827000000E+00 0. -1.
     999902    2    1    2    0    0 -0.95944823454E-02  0.41898388464E-02 -0.19780154694E-02  0.10332753585E+01  0.10332204242E+01 0.  0.
     999903    2    3    3    0    0 -0.10498901662E+00  0.66197585022E-01 -0.58171244891E-01  0.14417313893E+00  0.44689891278E-01 0.  0.
         14    1    1    2    0    0  0.95944823454E-02 -0.41898388464E-02  0.19780154694E-02  0.10654641535E-01  0.00000000000E+00 0.  1.
     999901    1    3    3    0    0  0.95394534274E-01 -0.62007746175E-01  0.56193229422E-01  0.88910221954E+00  0.88000000000E+00 0.  1.
        -11    1    4    4    0    0 -0.23156330380E-01  0.27625447339E-01 -0.36168938003E-01  0.51066957757E-01  0.51100000000E-03 0.  1.
         11    1    4    4    0    0 -0.81832686240E-01  0.38572137683E-01 -0.22002306888E-01  0.93106181170E-01  0.51100000000E-03 0. -1.
</event>
<event>
 8    1  0.2825007E+004  0.1043930E+01  0.7957747E-01            NaN
         13   -1    0    0    0    0  0.00000000000E+00  0.00000000000E+00  0.74505805969E-08  0.10566000000E+00  0.10566000000E+00 0. -1.
     999900   -1    0    0    0    0 -0.00000000000E+00 -0.00000000000E+00 -0.74505805969E-08  0.93827000000E+00  0.93827000000E+00 0. -1.
     999902    2    1    2    0    0 -0.26197975597E-02  0.88688415094E-02  0.49772710155E-02  0.10334279566E+01  0.10333745926E+01 0.  0.
     999903    2    3    3    0    0  0.13296990783E+00 -0.21766915058E-01  0.77334817748E-02  0.14251229589E+00  0.45772838672E-01 0.  0.
         14    1    1    2    0    0  0.26197975597E-02 -0.88688415094E-02 -0.49772710155E-02  0.10502043408E-01  0.00000000000E+00 0.  1.
     999901    1    3    3    0    0 -0.13558970539E+00  0.30635756568E-01 -0.27562107593E-02  0.89091566070E+00  0.88000000000E+00 0.  1.
        -11    1    4    4    0    0  0.59389245131E-01 -0.30846113742E-01  0.13038376798E-01  0.68182296535E-01  0.51100000000E-03 0. -1.
         11    1    4    4    0    0  0.73580662698E-01  0.90791986842E-02 -0.53048950231E-02  0.74329999355E-01  0.51100000000E-03 0.  1.
</event>
<event>
 8    1  0.2825007E+004  0.1043930E+01  0.7957747E-01            NaN
         13   -1    0    0    0    0  0.00000000000E+00  0.00000000000E+00  0.74505805969E-08  0.10566000000E+00  0.10566000000E+00 0. -1.
     999900   -1    0    0    0    0 -0.00000000000E+00 -0.00000000000E+00 -0.74505805969E-08  0.93827000000E+00  0.93827000000E+00 0. -1.
     999902    2    1    2    0    0  0.36334414366E-02  0.10799607594E-01  0.12139407598E-01  0.10272807166E+01  0.10271457891E+01 0.  0.
     999903    2    3    3    0    0 -0.33405650143E-01  0.92953036008E-01  0.91967720760E-01  0.13908386923E+00  0.33616315271E-01 0.  0.
         14    1    1    2    0    0 -0.36334414366E-02 -0.10799607594E-01 -0.12139407598E-01  0.16649283399E-01  0.00000000000E+00 0.  1.
     999901    1    3    3    0    0  0.37039091579E-01 -0.82153428414E-01 -0.79828313162E-01  0.88819684738E+00  0.88000000000E+00 0. -1.
        -11    1    4    4    0    0 -0.39073455037E-01  0.74522751035E-01  0.67174271505E-01  0.10767088364E+00  0.51100000000E-03 0.  1.
         11    1    4    4    0    0  0.56678048942E-02  0.18430284973E-01  0.24793449256E-01  0.31412985587E-01  0.51100000000E-03 0. -1.
</event>
<event>
 8    1  0.2825007E+004  0.1043930E+01  0.7957747E-01            NaN
         13   -1    0    0    0    0  0.00000000000E+00  0.00000000000E+00  0.74505805969E-08  0.10566000000E+00  0.10566000000E+00 0. -1.
     999900   -1    0    0    0    0 -0.00000000000E+00 -0.00000000000E+00 -0.74505805969E-08  0.93827000000E+00  0.93827000000E+00 0. -1.
     999902    2    1    2    0    0  0.24588258406E-02 -0.11806342019E-01 -0.10727764014E-01  0.10277893539E+01  0.10276626078E+01 0.  0.
     999903    2    3    3    0    0  0.10510818155E+00  0.38651265678E-01 -0.68005836498E-01  0.13854043598E+00  0.45022310439E-01 0.  0.
         14    1    1    2    0    0 -0.24588258406E-02  0.11806342019E-01  0.10727764014E-01  0.16140646119E-01  0.00000000000E+00 0. -1.
     999901    1    3    3    0    0 -0.10264935571E+00 -0.50457607698E-01  0.57278072484E-01  0.88924891790E+00  0.88000000000E+00 0. -1.
        -11    1    4    4    0    0  0.92297081132E-01  0.33153302677E-01 -0.74492667653E-01  0.12315563860E+00  0.51100000000E-03 0.  1.
         11    1    4    4    0    0  0.12811100415E-01  0.54979630012E-02  0.64868311553E-02  0.15384797380E-01  0.51100000000E-03 0. -1.
</event>
<event>
 8    1  0.2825007E+004  0.1043930E+01  0.7957747E-01            NaN
         13   -1    0    0    0    0  0.00000000000E+00  0.00000000000E+00  0.74505805969E-08  0.10566000000E+00  0.10566000000E+00 0.  1.
     999900   -1    0    0    0    0 -0.00000000000E+00 -0.00000000000E+00 -0.74505805969E-08  0.93827000000E+00  0.93827000000E+00 0.  1.
     999902    2    1    2    0    0  0.19050326811E-02  0.87948182942E-02  0.11161078528E-01  0.10295930668E+01  0.10294932422E+01 0.  0.
     999903    2    3    3    0    0  0.19618644456E-01 -0.12963696477E+00  0.32445264654E-02  0.13856006948E+00  0.44695995990E-01 0.  0.
         14    1    1    2    0    0 -0.19050326811E-02 -0.87948182942E-02 -0.11161078528E-01  0.14336933153E-01  0.00000000000E+00 0. -1.
     999901    1    3    3    0    0 -0.17713611774E-01  0.13843178306E+00  0.79165520623E-02  0.89103299737E+00  0.88000000000E+00 0.  1.
        -11    1    4    4    0    0  0.15744374505E-01 -0.37675671605E-01 -0.17136823269E-01  0.44286266406E-01  0.51100000000E-03 0. -1.
         11    1    4    4    0    0  0.38742699508E-02 -0.91961293162E-01  0.20381349734E-01  0.94273803072E-01  0.51100000000E-03 0.  1.
</event>
<event>
 8    1  0.2825007E+004  0.1043930E+01  0.7957747E-01            NaN
         13   -1    0    0    0    0  0.00000000000E+00  0.00000000000E+00  0.74505805969E-08  0.10566000000E+00  0.10566000000E+00 0. -1.
     999900   -1    0    0    0    0 -0.00000000000E+00 -0.00000000000E+00 -0.74505805969E-08  0.93827000000E+00  0.93827000000E+00 0.  1.
     999902    2    1    2    0    0  0.98200299494E-02  0.31694269492E-02  0.67359161444E-02  0.10316072235E+01  0.10315336217E+01 0.  0.
     999903    2    3    3    0    0  0.17744828726E-01 -0.81493040952E-01 -0.10384374786E+00  0.14061990705E+00  0.45104762714E-01 0.  0.
         14    1    1    2    0    0 -0.98200299494E-02 -0.31694269492E-02 -0.67359161444E-02  0.12322776542E-01  0.00000000000E+00 0.  1.
     999901    1    3    3    0    0 -0.79247987764E-02  0.84662467901E-01  0.11057966400E+00  0.89098731641E+00  0.88000000000E+00 0. -1.
        -11    1    4    4    0    0  0.25650937811E-01 -0.41460951407E-01 -0.33038213395E-01  0.58896228805E-01  0.51100000000E-03 0.  1.
         11    1    4    4    0    0 -0.79061090852E-02 -0.40032089545E-01 -0.70805534465E-01  0.81723678246E-01  0.51100000000E-03 0. -1.
</event>
<event>
 8    1  0.2825007E+004  0.1043930E+01  0.7957747E-01            NaN
         13   -1    0    0    0    0  0.00000000000E+00  0.00000000000E+00  0.74505805969E-08  0.10566000000E+00  0.10566000000E+00 0.  1.
     999900   -1    0    0    0    0 -0.00000000000E+00 -0.00000000000E+00 -0.74505805969E-08  0.93827000000E+00  0.93827000000E+00 0.  1.
     999902    2    1    2    0    0 -0.49119736315E-02  0.19978340559E-02 -0.12951076424E-01  0.10299353865E+01  0.10298403037E+01 0.  0.
     999903    2    3    3    0    0 -0.52268394359E-01  0.12124008576E+00 -0.18691293501E-01  0.14061300669E+00  0.44626334762E-01 0.  0.
         14    1    1    2    0    0  0.49119736315E-02 -0.19978340559E-02  0.12951076424E-01  0.13994613479E-01  0.00000000000E+00 0.  1.
     999901    1    3    3    0    0  0.47356420728E-01 -0.11924225170E+00  0.57402170769E-02  0.88932237983E+00  0.88000000000E+00 0. -1.
        -11    1    4    4    0    0 -0.89538195527E-02  0.74852748545E-01 -0.16123360065E-01  0.77092987424E-01  0.51100000000E-03 0.  1.
         11    1    4    4    0    0 -0.43314574807E-01  0.46387337213E-01 -0.25679334369E-02  0.63520019266E-01  0.51100000000E-03 0. -1.
</event>
<event>
 8    1  0.2825007E+004  0.1043930E+01  0.7957747E-01            NaN
         13   -1    0    0    0    0  0.00000000000E+00  0.00000000000E+00  0.74505805969E-08  0.10566000000E+00  0.10566000000E+00 0. -1.
     999900   -1    0    0    0    0 -0.00000000000E+00 -0.00000000000E+00 -0.74505805969E-08  0.93827000000E+00  0.93827000000E+00 0. -1.
     999902    2    1    2    0    0  0.71352504629E-02 -0.11476384291E-01  0.25607177823E-02  0.10301758562E+01  0.10300840346E+01 0.  0.
     999903    2    3    3    0    0 -0.28325936619E-01 -0.12142923348E+00  0.50371861561E-01  0.14133783368E+00  0.43493003619E-01 0.  0.
         14    1    1    2    0    0 -0.71352504629E-02  0.11476384291E-01 -0.25607177823E-02  0.13754143780E-01  0.00000000000E+00 0.  1.
     999901    1    3    3    0    0  0.35461187082E-01  0.10995284919E+00 -0.47811143779E-01  0.88883802254E+00  0.88000000000E+00 0. -1.
        -11    1    4    4    0    0 -0.38987128695E-01 -0.96219047019E-01  0.46241751429E-01  0.11365149321E+00  0.51100000000E-03 0.  1.
         11    1    4    4    0    0  0.10661192076E-01 -0.25210186465E-01  0.41301101323E-02  0.27686340473E-01  0.51100000000E-03 0. -1.
</event>
<event>
 8    1  0.2825007E+004  0.1043930E+01  0.7957747E-01            NaN
         13   -1    0    0    0    0  0.00000000000E+00  0.00000000000E+00  0.74505805969E-08  0.10566000000E+00  0.10566000000E+00 0.  1.
     999900   -1    0    0    0    0 -0.00000000000E+00 -0.00000000000E+00 -0.74505805969E-08  0.93827000000E+00  0.93827000000E+00 0.  1.
     999902    2    1    2    0    0 -0.51751106246E-02  0.60287916815E-03 -0.11555749731E-01  0.10312540154E+01  0.10311761070E+01 0.  0.
     999903    2    3    3    0    0  0.10485980758E+00  0.66236355838E-01 -0.50511228878E-01  0.14112314536E+00  0.44514310410E-01 0.  0.
         14    1    1    2    0    0  0.51751106246E-02 -0.60287916815E-03  0.11555749731E-01  0.12675984581E-01  0.00000000000E+00 0.  1.
     999901    1    3    3    0    0 -0.11003491821E+00 -0.65633476670E-01  0.38955479147E-01  0.89013087006E+00  0.88000000000E+00 0. -1.
        -11    1    4    4    0    0  0.32214759213E-01  0.23325769373E-01  0.50548365147E-02  0.40096068650E-01  0.51100000000E-03 0. -1.
         11    1    4    4    0    0  0.72645048369E-01  0.42910586465E-01 -0.55566065392E-01  0.10102707670E+00  0.51100000000E-03 0.  1.
</event>
<event>
 8    1  0.2825007E+004  0.1043930E+01  0.7957747E-01            NaN
         13   -1    0    0    0    0  0.00000000000E+00  0.00000000000E+00  0.74505805969E-08  0.10566000000E+00  0.10566000000E+00 0. -1.
     999900   -1    0    0    0    0 -0.00000000000E+00 -0.00000000000E+00 -0.74505805969E-08  0.93827000000E+00  0.93827000000E+00 0. -1.
     999902    2    1    2    0    0 -0.13184021619E-01 -0.30007983544E-02  0.91537030543E-03  0.10303778371E+01  0.10302887100E+01 0.  0.
     999903    2    3    3    0    0 -0.69341445575E-01  0.67512153273E-02  0.11404843159E+00  0.14130649710E+00  0.45898435616E-01 0.  0.
         14    1    1    2    0    0  0.13184021619E-01  0.30007983544E-02 -0.91537030543E-03  0.13552162913E-01  0.00000000000E+00 0.  1.
     999901    1    3    3    0    0  0.56157423956E-01 -0.97520136818E-02 -0.11313306128E+00  0.88907133999E+00  0.88000000000E+00 0. -1.
        -11    1    4    4    0    0 -0.10374793522E-01 -0.16662698835E-01  0.32682450992E-01  0.38127229075E-01  0.51100000000E-03 0. -1.
         11    1    4    4    0    0 -0.58966652053E-01  0.23413914162E-01  0.81365980593E-01  0.10317926802E+00  0.51100000000E-03 0.  1.
</event>
<event>
 8    1  0.2825007E+004  0.1043930E+01  0.7957747E-01            NaN
         13   -1    0    0    0    0  0.00000000000E+00  0.00000000000E+00  0.74505805969E-08  0.10566000000E+00  0.10566000000E+00 0. -1.
     999900   -1    0    0    0    0 -0.00000000000E+00 -0.00000000000E+00 -0.74505805969E-08  0.93827000000E+00  0.93827000000E+00 0. -1.
     999902    2    1    2    0    0  0.14673861743E-01 -0.14073556985E-02 -0.75907264662E-03  0.10291692731E+01  0.10290634157E+01 0.  0.
     999903    2    3    3    0    0  0.47107113080E-02 -0.99648823204E-01 -0.86883443665E-01  0.13946816730E+00  0.44165123575E-01 0.  0.
         14    1    1    2    0    0 -0.14673861743E-01  0.14073556985E-02  0.75907264662E-03  0.14760726940E-01  0.00000000000E+00 0.  1.
     999901    1    3    3    0    0  0.99631504349E-02  0.98241467506E-01  0.86124371018E-01  0.88970110576E+00  0.88000000000E+00 0.  1.
        -11    1    4    4    0    0 -0.13239834395E-01 -0.17474029792E-01 -0.59082250370E-02  0.22711300625E-01  0.51100000000E-03 0.  1.
         11    1    4    4    0    0  0.17950545703E-01 -0.82174793413E-01 -0.80975218628E-01  0.11675686668E+00  0.51100000000E-03 0. -1.
</event>
<event>
 8    1  0.2825007E+004  0.1043930E+01  0.7957747E-01            NaN
         13   -1    0    0    0    0  0.00000000000E+00  0.00000000000E+00  0.74505805969E-08  0.10566000000E+00  0.10566000000E+00 0.  1.
     999900   -1    0    0    0    0 -0.00000000000E+00 -0.00000000000E+00 -0.74505805969E-08  0.93827000000E+00  0.93827000000E+00 0. -1.
     999902    2    1    2    0    0 -0.36188961551E-02 -0.11986465358E-01  0.42409299610E-02  0.10307104218E+01  0.10306256432E+01 0.  0.
     999903    2    3    3    0    0  0.32377357742E-01 -0.12426551170E+00  0.41809789434E-01  0.14205203200E+00  0.44051227126E-01 0.  0.
         14    1    1    2    0    0  0.36188961551E-02  0.11986465358E-01 -0.42409299610E-02  0.13219578211E-01  0.00000000000E+00 0. -1.
     999901    1    3    3    0    0 -0.35996253897E-01  0.11227904634E+00 -0.37568859473E-01  0.88865838979E+00  0.88000000000E+00 0. -1.
        -11    1    4    4    0    0  0.12632577683E-01 -0.34388197173E-01  0.33517846222E-01  0.49657197465E-01  0.51100000000E-03 0.  1.
         11    1    4    4    0    0  0.19744780059E-01 -0.89877314523E-01  0.82919432121E-02  0.92394834534E-01  0.51100000000E-03 0. -1.
</event>
<event>
 8    1  0.2825007E+004  0.1043930E+01  0.7957747E-01            NaN
         13   -1    0    0    0    0  0.00000000000E+00  0.00000000000E+00  0.74505805969E-08  0.10566000000E+00  0.10566000000E+00 0. -1.
     999900   -1    0    0    0    0 -0.00000000000E+00 -0.00000000000E+00 -0.74505805969E-08  0.93827000000E+00  0.93827000000E+00 0.  1.
     999902    2    1    2    0    0 -0.11615521201E-01  0.50730294112E-02 -0.57751872406E-02  0.10300012977E+01  0.10299071145E+01 0.  0.
     999903    2    3    3    0    0  0.11078056348E+00 -0.69626893135E-01 -0.26698827094E-02  0.13839010279E+00  0.44993941640E-01 0.  0.
         14    1    1    2    0    0  0.11615521201E-01 -0.50730294112E-02  0.57751872406E-02  0.13928702302E-01  0.00000000000E+00 0. -1.
     999901    1    3    3    0    0 -0.12239608468E+00  0.74699922546E-01 -0.31053045312E-02  0.89161119491E+00  0.88000000000E+00 0.  1.
        -11    1    4    4    0    0  0.94017961922E-01 -0.36228775454E-01 -0.55227802067E-02  0.10090918470E+00  0.51100000000E-03 0. -1.
         11    1    4    4    0    0  0.16762601554E-01 -0.33398117681E-01  0.28528974973E-02  0.37480918086E-01  0.51100000000E-03 0.  1.
</event>
<event>
 8    1  0.2825007E+004  0.1043930E+01  0.7957747E-01            NaN
         13   -1    0    0    0    0  0.00000000000E+00  0.00000000000E+00  0.74505805969E-08  0.10566000000E+00  0.10566000000E+00 0. -1.
     999900   -1    0    0    0    0 -0.00000000000E+00 -0.00000000000E+00 -0.74505805969E-08  0.93827000000E+00  0.93827000000E+00 0. -1.
     999902    2    1    2    0    0 -0.22547122475E-02  0.10166662525E-01 -0.96725885945E-02  0.10297171986E+01  0.10296191069E+01 0.  0.
     999903    2    3    3    0    0  0.82877756827E-01 -0.53743063055E-01  0.85678818767E-01  0.13818824156E+00  0.44700008014E-01 0.  0.
         14    1    1    2    0    0  0.22547122475E-02 -0.10166662525E-01  0.96725885945E-02  0.14212801425E-01  0.00000000000E+00 0.  1.
     999901    1    3    3    0    0 -0.85132469074E-01  0.63909725580E-01 -0.95351407361E-01  0.89152895702E+00  0.88000000000E+00 0.  1.
        -11    1    4    4    0    0  0.53162113213E-01 -0.50768161573E-01  0.40218986698E-01  0.83794060188E-01  0.51100000000E-03 0. -1.
         11    1    4    4    0    0  0.29715643614E-01 -0.29749014824E-02  0.45459832069E-01  0.54394181370E-01  0.51100000000E-03 0.  1.
</event>
<event>
 8    1  0.2825007E+004  0.1043930E+01  0.7957747E-01            NaN
         13   -1    0    0    0    0  0.00000000000E+00  0.00000000000E+00  0.74505805969E-08  0.10566000000E+00  0.10566000000E+00 0. -1.
     999900   -1    0    0    0    0 -0.00000000000E+00 -0.00000000000E+00 -0.74505805969E-08  0.93827000000E+00  0.93827000000E+00 0. -1.
     999902    2    1    2    0    0 -0.64563427231E-02  0.12591200091E-01  0.22623451456E-02  0.10296002796E+01  0.10295005560E+01 0.  0.
     999903    2    3    3    0    0  0.65816648003E-01  0.11604122277E+00  0.36269280722E-02  0.14059681815E+00  0.44237022182E-01 0.  0.
         14    1    1    2    0    0  0.64563427231E-02 -0.12591200091E-01 -0.22623451456E-02  0.14329720397E-01  0.00000000000E+00 0.  1.
     999901    1    3    3    0    0 -0.72272990726E-01 -0.10345002268E+00 -0.13645829266E-02  0.88900346145E+00  0.88000000000E+00 0. -1.
        -11    1    4    4    0    0  0.55820426413E-01  0.93159467750E-01 -0.14733463280E-01  0.10959900774E+00  0.51100000000E-03 0.  1.
         11    1    4    4    0    0  0.99962215904E-02  0.22881755021E-01  0.18360391352E-01  0.30997810415E-01  0.51100000000E-03 0. -1.
</event>
<event>
 8    1  0.2825007E+004  0.1043930E+01  0.7957747E-01            NaN
         13   -1    0    0    0    0  0.00000000000E+00  0.00000000000E+00  0.74505805969E-08  0.10566000000E+00  0.10566000000E+00 0. -1.
     999900   -1    0    0    0    0 -0.00000000000E+00 -0.00000000000E+00 -0.74505805969E-08  0.93827000000E+00  0.93827000000E+00 0.  1.
     999902    2    1    2    0    0 -0.13653073475E-01  0.10994229830E-01 -0.87370640717E-03  0.10263788500E+01  0.10262287760E+01 0.  0.
     999903    2    3    3    0    0  0.35140384892E-02  0.75888401981E-01 -0.10546907194E+00  0.13764595769E+00  0.45291130582E-01 0.  0.
         14    1    1    2    0    0  0.13653073475E-01 -0.10994229830E-01  0.87370640717E-03  0.17551150041E-01  0.00000000000E+00 0. -1.
     999901    1    3    3    0    0 -0.17167111964E-01 -0.64894172151E-01  0.10459536554E+00  0.88873289227E+00  0.88000000000E+00 0. -1.
        -11    1    4    4    0    0 -0.19723650842E-01  0.43427434733E-01 -0.48001397727E-01  0.67670967148E-01  0.51100000000E-03 0.  1.
         11    1    4    4    0    0  0.23237689331E-01  0.32460967249E-01 -0.57467674217E-01  0.69974990540E-01  0.51100000000E-03 0. -1.
</event>
<event>
 8    1  0.2825007E+004  0.1043930E+01  0.7957747E-01            NaN
         13   -1    0    0    0    0  0.00000000000E+00  0.00000000000E+00  0.74505805969E-08  0.10566000000E+00  0.10566000000E+00 0.  1.
     999900   -1    0    0    0    0 -0.00000000000E+00 -0.00000000000E+00 -0.74505805969E-08  0.93827000000E+00  0.93827000000E+00 0. -1.
     999902    2    1    2    0    0  0.97438035035E-02  0.10473175423E-01  0.16360184271E-02  0.10295318867E+01  0.10294312022E+01 0.  0.
     999903    2    3    3    0    0 -0.94196938733E-01 -0.84831548357E-01  0.30080881973E-01  0.13785045338E+00  0.45038130224E-01 0.  0.
         14    1    1    2    0    0 -0.97438035035E-02 -0.10473175423E-01 -0.16360184271E-02  0.14398113295E-01  0.00000000000E+00 0.  1.
     999901    1    3    3    0    0  0.10394074224E+00  0.95304723780E-01 -0.28444863546E-01  0.89168143332E+00  0.88000000000E+00 0.  1.
        -11    1    4    4    0    0 -0.44307658127E-01 -0.61560766756E-01  0.33008199248E-01  0.82720607535E-01  0.51100000000E-03 0.  1.
         11    1    4    4    0    0 -0.49889280606E-01 -0.23270781600E-01 -0.29273172758E-02  0.55129845847E-01  0.51100000000E-03 0. -1.
</event>
<event>
 8    1  0.2825007E+004  0.1043930E+01  0.7957747E-01            NaN
         13   -1    0    0    0    0  0.00000000000E+00  0.00000000000E+00  0.74505805969E-08  0.10566000000E+00  0.10566000000E+00 0. -1.
     999900   -1    0    0    0    0 -0.00000000000E+00 -0.00000000000E+00 -0.74505805969E-08  0.93827000000E+00  0.93827000000E+00 0. -1.
     999902    2    1    2    0    0  0.90360677596E-02  0.57066015796E-02  0.79394115457E-02  0.10306164701E+01  0.10305304743E+01 0.  0.
     999903    2    3    3    0    0  0.12440876188E+00 -0.15382872035E-01  0.49243242376E-01  0.14187487051E+00  0.44602793387E-01 0.  0.
         14    1    1    2    0    0 -0.90360677596E-02 -0.57066015796E-02 -0.79394115457E-02  0.13313529879E-01  0.00000000000E+00 0.  1.
     999901    1    3    3    0    0 -0.11537269412E+00  0.21089473615E-01 -0.41303830831E-01  0.88874159961E+00  0.88000000000E+00 0. -1.
        -11    1    4    4    0    0  0.75401066768E-01 -0.18005607842E-02  0.69762037408E-02  0.75746230457E-01  0.51100000000E-03 0. -1.
         11    1    4    4    0    0  0.49007695108E-01 -0.13582311251E-01  0.42267038636E-01  0.66128640049E-01  0.51100000000E-03 0.  1.
</event>
<event>
 8    1  0.2825007E+004  0.1043930E+01  0.7957747E-01            NaN
         13   -1    0    0    0    0  0.00000000000E+00  0.00000000000E+00  0.74505805969E-08  0.10566000000E+00  0.10566000000E+00 0.  1.
     999900   -1    0    0    0    0 -0.00000000000E+00 -0.00000000000E+00 -0.74505805969E-08  0.93827000000E+00  0.93827000000E+00 0. -1.
     999902    2    1    2    0    0  0.74225804605E-04  0.32932489706E-02  0.14227290151E-01  0.10293263435E+01  0.10292227430E+01 0.  0.
     999903    2    3    3    0    0  0.55921270813E-01 -0.11887927571E+00 -0.27091621721E-02  0.13897143581E+00  0.45235491481E-01 0.  0.
         14    1    1    2    0    0 -0.74225804605E-04 -0.32932489706E-02 -0.14227290151E-01  0.14603656504E-01  0.00000000000E+00 0.  1.
     999901    1    3    3    0    0 -0.55847045008E-01  0.12217252468E+00  0.16936452323E-01  0.89035490769E+00  0.88000000000E+00 0. -1.
        -11    1    4    4    0    0  0.42023911000E-01 -0.37693090723E-01  0.17639205274E-02  0.56481419251E-01  0.51100000000E-03 0.  1.
         11    1    4    4    0    0  0.13897359813E-01 -0.81186184985E-01 -0.44730826995E-02  0.82490016559E-01  0.51100000000E-03 0. -1.
</event>
<event>
 8    1  0.2825007E+004  0.1043930E+01  0.7957747E-01            NaN
         13   -1    0    0    0    0  0.00000000000E+00  0.00000000000E+00  0.74505805969E-08  0.10566000000E+00  0.10566000000E+00 0. -1.
     999900   -1    0    0    0    0 -0.00000000000E+00 -0.00000000000E+00 -0.74505805969E-08  0.93827000000E+00  0.93827000000E+00 0.  1.
     999902    2    1    2    0    0  0.10132477554E-01 -0.41352413817E-02  0.92987963176E-02  0.10295691179E+01  0.10294689571E+01 0.  0.
     999903    2    3    3    0    0 -0.10150492035E+00 -0.79687296800E-01  0.26625274194E-01  0.13913594883E+00  0.44683250832E-01 0.  0.
         14    1    1    2    0    0 -0.10132477554E-01  0.41352413817E-02 -0.92987963176E-02  0.14360882133E-01  0.00000000000E+00 0. -1.
     999901    1    3    3    0    0  0.11163739790E+00  0.75552055419E-01 -0.17326477876E-01  0.89043316904E+00  0.88000000000E+00 0.  1.
        -11    1    4    4    0    0 -0.58543979438E-01 -0.27405496065E-01 -0.41918761071E-02  0.64778790428E-01  0.51100000000E-03 0.  1.
         11    1    4    4    0    0 -0.42960940908E-01 -0.52281800736E-01  0.30817150301E-01  0.74357158401E-01  0.51100000000E-03 0. -1.
</event>
<event>
 8    1  0.2825007E+004  0.1043930E+01  0.7957747E-01            NaN
         13   -1    0    0    0    0  0.00000000000E+00  0.00000000000E+00  0.74505805969E-08  0.10566000000E+00  0.10566000000E+00 0. -1.
     999900   -1    0    0    0    0 -0.00000000000E+00 -0.00000000000E+00 -0.74505805969E-08  0.93827000000E+00  0.93827000000E+00 0.  1.
     999902    2    1    2    0    0  0.43912993714E-02  0.30776038510E-02 -0.12360174966E-01  0.10304567272E+01  0.10303686415E+01 0.  0.
     999903    2    3    3    0    0 -0.87618748799E-01  0.15307877039E-01 -0.10016851832E+00  0.14122912205E+00  0.44727582218E-01 0.  0.
         14    1    1    2    0    0 -0.43912993714E-02 -0.30776038510E-02  0.12360174966E-01  0.13473272832E-01  0.00000000000E+00 0. -1.
     999901    1    3    3    0    0  0.92010048170E-01 -0.12230273188E-01  0.87808343355E-01  0.88922760512E+00  0.88000000000E+00 0. -1.
        -11    1    4    4    0    0 -0.14381190999E-01  0.16546312465E-01 -0.43153352812E-01  0.48405289904E-01  0.51100000000E-03 0. -1.
         11    1    4    4    0    0 -0.73237557799E-01 -0.12384354266E-02 -0.57015165508E-01  0.92823832143E-01  0.51100000000E-03 0.  1.
</event>
<event>
 8    1  0.2825007E+004  0.1043930E+01  0.7957747E-01            NaN
         13   -1    0    0    0    0  0.00000000000E+00  0.00000000000E+00  0.74505805969E-08  0.10566000000E+00  0.10566000000E+00 0. -1.
     999900   -1    0    0    0    0 -0.00000000000E+00 -0.00000000000E+00 -0.74505805969E-08  0.93827000000E+00  0.93827000000E+00 0.  1.
     999902    2    1    2    0    0  0.11273875827E-01  0.59283282768E-02 -0.23007363035E-01  0.10176320133E+01  0.10172921558E+01 0.  0.
     999903    2    3    3    0    0  0.83061941389E-01  0.85936150209E-01 -0.29006250235E-01  0.13107081145E+00  0.45319830545E-01 0.  0.
         14    1    1    2    0    0 -0.11273875827E-01 -0.59283282768E-02  0.23007363035E-01  0.26297986732E-01  0.00000000000E+00 0. -1.
     999901    1    3    3    0    0 -0.71788065563E-01 -0.80007821932E-01  0.59988871997E-02  0.88656120182E+00  0.88000000000E+00 0. -1.
        -11    1    4    4    0    0  0.25330222444E-01  0.49608406461E-01  0.28713054768E-02  0.55777411887E-01  0.51100000000E-03 0.  1.
         11    1    4    4    0    0  0.57731718946E-01  0.36327743748E-01 -0.31877555711E-01  0.75293399560E-01  0.51100000000E-03 0. -1.
</event>
<event>
 8    1  0.2825007E+004  0.1043930E+01  0.7957747E-01            NaN
         13   -1    0    0    0    0  0.00000000000E+00  0.00000000000E+00  0.74505805969E-08  0.10566000000E+00  0.10566000000E+00 0. -1.
     999900   -1    0    0    0    0 -0.00000000000E+00 -0.00000000000E+00 -0.74505805969E-08  0.93827000000E+00  0.93827000000E+00 0.  1.
     999902    2    1    2    0    0 -0.80595858998E-02 -0.10497433164E-01  0.45595545971E-02  0.10299320514E+01  0.10298369229E+01 0.  0.
     999903    2    3    3    0    0  0.11459408570E+00  0.24589236994E-01  0.60503223943E-01  0.13897487410E+00  0.43782878724E-01 0.  0.
         14    1    1    2    0    0  0.80595858998E-02  0.10497433164E-01 -0.45595545971E-02  0.13997948637E-01  0.00000000000E+00 0.  1.
     999901    1    3    3    0    0 -0.12265367160E+00 -0.35086670158E-01 -0.55943669346E-01  0.89095717727E+00  0.88000000000E+00 0.  1.
        -11    1    4    4    0    0  0.19185716893E-01  0.22170499656E-01  0.99047106492E-02  0.30951368334E-01  0.51100000000E-03 0.  1.
         11    1    4    4    0    0  0.95408368809E-01  0.24187373379E-02  0.50598513294E-01  0.10802350576E+00  0.51100000000E-03 0. -1.
</event>
<event>
 8    1  0.2825007E+004  0.1043930E+01  0.7957747E-01            NaN
         13   -1    0    0    0    0  0.00000000000E+00  0.00000000000E+00  0.74505805969E-08  0.10566000000E+00  0.10566000000E+00 0.  1.
     999900   -1    0    0    0    0 -0.00000000000E+00 -0.00000000000E+00 -0.74505805969E-08  0.93827000000E+00  0.93827000000E+00 0. -1.
     999902    2    1    2    0    0 -0.96020453119E-02  0.78969362327E-02 -0.64268483408E-02  0.10299348131E+01  0.10298397225E+01 0.  0.
     999903    2    3    3    0    0  0.48717169703E-01 -0.11711668515E+00  0.31964089044E-01  0.13836126011E+00  0.45082754421E-01 0.  0.
         14    1    1    2    0    0  0.96020453119E-02 -0.78969362327E-02  0.64268483408E-02  0.13995186874E-01  0.00000000000E+00 0. -1.
     999901    1    3    3    0    0 -0.58319215015E-01  0.12501362138E+00 -0.38390937385E-01  0.89157355302E+00  0.88000000000E+00 0. -1.
        -11    1    4    4    0    0  0.28841482528E-01 -0.58363531865E-01 -0.64204066825E-02  0.65418771840E-01  0.51100000000E-03 0. -1.
         11    1    4    4    0    0  0.19875687176E-01 -0.58753153282E-01  0.38384495727E-01  0.72942488266E-01  0.51100000000E-03 0.  1.
</event>
<event>
 8    1  0.2825007E+004  0.1043930E+01  0.7957747E-01            NaN
         13   -1    0    0    0    0  0.00000000000E+00  0.00000000000E+00  0.74505805969E-08  0.10566000000E+00  0.10566000000E+00 0.  1.
     999900   -1    0    0    0    0 -0.00000000000E+00 -0.00000000000E+00 -0.74505805969E-08  0.93827000000E+00  0.93827000000E+00 0.  1.
     999902    2    1    2    0    0  0.51112021419E-02 -0.49493869354E-02  0.12350868836E-01  0.10296764117E+01  0.10295777523E+01 0.  0.
     999903    2    3    3    0    0 -0.12009640224E+00 -0.30174977817E-01 -0.42855422814E-01  0.13874374911E+00  0.45602253616E-01 0.  0.
         14    1    1    2    0    0 -0.51112021419E-02  0.49493869354E-02 -0.12350868836E-01  0.14253588298E-01  0.00000000000E+00 0. -1.
     999901    1    3    3    0    0  0.12520760439E+00  0.25225590882E-01  0.55206291651E-01  0.89093266259E+00  0.88000000000E+00 0. -1.
        -11    1    4    4    0    0 -0.75983825760E-01 -0.70878241927E-02 -0.55304390639E-02  0.76515527222E-01  0.51100000000E-03 0. -1.
         11    1    4    4    0    0 -0.44112576484E-01 -0.23087153625E-01 -0.37324983751E-01  0.62228221889E-01  0.51100000000E-03 0.  1.
</event>
<event>
 8    1  0.2825007E+004  0.1043930E+01  0.7957747E-01            NaN
         13   -1    0    0    0    0  0.00000000000E+00  0.00000000000E+00  0.74505805969E-08  0.10566000000E+00  0.10566000000E+00 0. -1.
     999900   -1    0    0    0    0 -0.00000000000E+00 -0.00000000000E+00 -0.74505805969E-08  0.93827000000E+00  0.93827000000E+00 0. -1.
     999902    2    1    2    0    0  0.74258176895E-02  0.11386566534E-01  0.39001323256E-03  0.10303304126E+01  0.10302406566E+01 0.  0.
     999903    2    3    3    0    0 -0.25684168778E-01 -0.12876137668E+00 -0.23047347118E-02  0.13862139124E+00  0.44400559196E-01 0.  0.
         14    1    1    2    0    0 -0.74258176895E-02 -0.11386566534E-01 -0.39001323256E-03  0.13599587350E-01  0.00000000000E+00 0.  1.
     999901    1    3    3    0    0  0.33109986467E-01  0.14014794322E+00  0.26947479444E-02  0.89170902141E+00  0.88000000000E+00 0.  1.
        -11    1    4    4    0    0 -0.28100651163E-01 -0.11001297961E+00 -0.16816145566E-01  0.11478478188E+00  0.51100000000E-03 0. -1.
         11    1    4    4    0    0  0.24164823853E-02 -0.18748397070E-01  0.14511410854E-01  0.23836609361E-01  0.51100000000E-03 0.  1.
</event>
<event>
 8    1  0.2825007E+004  0.1043930E+01  0.7957747E-01            NaN
         13   -1    0    0    0    0  0.00000000000E+00  0.00000000000E+00  0.74505805969E-08  0.10566000000E+00  0.10566000000E+00 0.  1.
     999900   -1    0    0    0    0 -0.00000000000E+00 -0.00000000000E+00 -0.74505805969E-08  0.93827000000E+00  0.93827000000E+00 0. -1.
     999902    2    1    2    0    0  0.90224359989E-02 -0.22080890275E-02  0.10476840520E-01  0.10299284217E+01  0.10298332436E+01 0.  0.
     999903    2    3    3    0    0 -0.89083718679E-01 -0.90680089334E-01  0.36132312733E-01  0.13969793709E+00  0.45289977561E-01 0.  0.
         14    1    1    2    0    0 -0.90224359989E-02  0.22080890275E-02 -0.10476840520E-01  0.14001578332E-01  0.00000000000E+00 0.  1.
     999901    1    3    3    0    0  0.98106154677E-01  0.88472000307E-01 -0.25655472213E-01  0.89023048458E+00  0.88000000000E+00 0.  1.
        -11    1    4    4    0    0 -0.44909816735E-01 -0.23508752882E-01 -0.19656671190E-02  0.50731430785E-01  0.51100000000E-03 0. -1.
         11    1    4    4    0    0 -0.44173901943E-01 -0.67171336452E-01  0.38097979852E-01  0.88966506301E-01  0.51100000000E-03 0.  1.
</event>
<event>
 8    1  0.2825007E+004  0.1043930E+01  0.7957747E-01            NaN
         13   -1    0    0    0    0  0.00000000000E+00  0.00000000000E+00  0.74505805969E-08  0.10566000000E+00  0.10566000000E+00 0. -1.
     999900   -1    0    0    0    0 -0.00000000000E+00 -0.00000000000E+00 -0.74505805969E-08  0.93827000000E+00  0.93827000000E+00 0.  1.
     999902    2    1    2    0    0  0.10765698211E-01 -0.80088062195E-02  0.16976993000E-02  0.10304050816E+01  0.10303163149E+01 0.  0.
     999903    2    3    3    0    0 -0.10057807457E+00 -0.31116787550E-01  0.79932914855E-01  0.13964576309E+00  0.45027377469E-01 0.  0.
         14    1    1    2    0    0 -0.10765698211E-01  0.80088062195E-02 -0.16976993000E-02  0.13524918408E-01  0.00000000000E+00 0. -1.
     999901    1    3    3    0    0  0.11134377278E+00  0.23107981331E-01 -0.78235215555E-01  0.89075931850E+00  0.88000000000E+00 0.  1.
        -11    1    4    4    0    0 -0.86104428644E-01 -0.71305955881E-02  0.57998767673E-01  0.10406217468E+00  0.51100000000E-03 0. -1.
         11    1    4    4    0    0 -0.14473645923E-01 -0.23986191962E-01  0.21934147181E-01  0.35583588418E-01  0.51100000000E-03 0.  1.
</event>
<event>
 8    1  0.2825007E+004  0.1043930E+01  0.7957747E-01            NaN
         13   -1    0    0    0    0  0.00000000000E+00  0.00000000000E+00  0.74505805969E-08  0.10566000000E+00  0.10566000000E+00 0. -1.
     999900   -1    0    0    0    0 -0.00000000000E+00 -0.00000000000E+00 -0.74505805969E-08  0.93827000000E+00  0.93827000000E+00 0. -1.
     999902    2    1    2    0    0 -0.10887312534E-02  0.18537455623E-01 -0.12596510672E-01  0.10214913129E+01  0.10212448324E+01 0.  0.
     999903    2    3    3    0    0  0.10878229692E+00  0.40213454830E-01  0.46263581658E-01  0.13244350642E+00  0.44161672671E-01 0.  0.
         14    1    1    2    0    0  0.10887312534E-02 -0.18537455623E-01  0.12596510672E-01  0.22438687079E-01  0.00000000000E+00 0. -1.
     999901    1    3    3    0    0 -0.10987102817E+00 -0.21675999207E-01 -0.58860092329E-01  0.88904780650E+00  0.88000000000E+00 0. -1.
        -11    1    4    4    0    0  0.63785447413E-01  0.35501134170E-03  0.27556115587E-01  0.69486041490E-01  0.51100000000E-03 0. -1.
         11    1    4    4    0    0  0.44996849505E-01  0.39858443489E-01  0.18707466071E-01  0.62957464931E-01  0.51100000000E-03 0.  1.
</event>
<event>
 8    1  0.2825007E+004  0.1043930E+01  0.7957747E-01            NaN
         13   -1    0    0    0    0  0.00000000000E+00  0.00000000000E+00  0.74505805969E-08  0.10566000000E+00  0.10566000000E+00 0.  1.
     999900   -1    0    0    0    0 -0.00000000000E+00 -0.00000000000E+00 -0.74505805969E-08  0.93827000000E+00  0.93827000000E+00 0.  1.
     999902    2    1    2    0    0 -0.29860761512E-03  0.33348336734E-02  0.12651208317E-01  0.10308432375E+01  0.10307601646E+01 0.  0.
     999903    2    3    3    0    0  0.94873822231E-01  0.30219348756E-01 -0.86355345589E-01  0.13978607527E+00  0.46568765758E-01 0.  0.
         14    1    1    2    0    0  0.29860761512E-03 -0.33348336734E-02 -0.12651208317E-01  0.13086762549E-01  0.00000000000E+00 0. -1.
     999901    1    3    3    0    0 -0.95172429846E-01 -0.26884515083E-01  0.99006553906E-01  0.89105716218E+00  0.88000000000E+00 0. -1.
        -11    1    4    4    0    0  0.21982952540E-01  0.23875997854E-01 -0.45783284685E-01  0.56122043383E-01  0.51100000000E-03 0.  1.
         11    1    4    4    0    0  0.72890869691E-01  0.63433509017E-02 -0.40572060904E-01  0.83664031889E-01  0.51100000000E-03 0. -1.
</event>
<event>
 8    1  0.2825007E+004  0.1043930E+01  0.7957747E-01            NaN
         13   -1    0    0    0    0  0.00000000000E+00  0.00000000000E+00  0.74505805969E-08  0.10566000000E+00  0.10566000000E+00 0.  1.
     999900   -1    0    0    0    0 -0.00000000000E+00 -0.00000000000E+00 -0.74505805969E-08  0.93827000000E+00  0.93827000000E+00 0.  1.
     999902    2    1    2    0    0 -0.17034683447E-02  0.12614243213E-01 -0.47832252377E-02  0.10303321994E+01  0.10302424671E+01 0.  0.
     999903    2    3    3    0    0  0.26535587392E-01  0.19626324082E-01  0.12823180717E+00  0.13986063202E+00  0.45036318927E-01 0.  0.
         14    1    1    2    0    0  0.17034683447E-02 -0.12614243213E-01  0.47832252377E-02  0.13597800554E-01  0.00000000000E+00 0.  1.
     999901    1    3    3    0    0 -0.28239055737E-01 -0.70120808690E-02 -0.13301503241E+00  0.89047156743E+00  0.88000000000E+00 0.  1.
        -11    1    4    4    0    0  0.63330800202E-02  0.31619188866E-01  0.77951553714E-01  0.84359865188E-01  0.51100000000E-03 0. -1.
         11    1    4    4    0    0  0.20202507372E-01 -0.11992864784E-01  0.50280253460E-01  0.55500766831E-01  0.51100000000E-03 0.  1.
</event>
<event>
 8    1  0.2825007E+004  0.1043930E+01  0.7957747E-01            NaN
         13   -1    0    0    0    0  0.00000000000E+00  0.00000000000E+00  0.74505805969E-08  0.10566000000E+00  0.10566000000E+00 0. -1.
     999900   -1    0    0    0    0 -0.00000000000E+00 -0.00000000000E+00 -0.74505805969E-08  0.93827000000E+00  0.93827000000E+00 0.  1.
     999902    2    1    2    0    0 -0.61787853182E-02  0.11628004232E-01  0.43395052572E-02  0.10300656870E+01  0.10299723784E+01 0.  0.
     999903    2    3    3    0    0 -0.72400641333E-01  0.39330516805E-01 -0.10433555823E+00  0.14047980979E+00  0.45386405788E-01 0.  0.
         14    1    1    2    0    0  0.61787853182E-02 -0.11628004232E-01 -0.43395052572E-02  0.13864313049E-01  0.00000000000E+00 0. -1.
     999901    1    3    3    0    0  0.66221856015E-01 -0.27702512573E-01  0.10867506349E+00  0.88958587716E+00  0.88000000000E+00 0. -1.
        -11    1    4    4    0    0 -0.16305740007E-01  0.32874840271E-01 -0.50785840235E-01  0.62658558629E-01  0.51100000000E-03 0. -1.
         11    1    4    4    0    0 -0.56094901326E-01  0.64556765345E-02 -0.53549717995E-01  0.77821251163E-01  0.51100000000E-03 0.  1.
</event>
<event>
 8    1  0.2825007E+004  0.1043930E+01  0.7957747E-01            NaN
         13   -1    0    0    0    0  0.00000000000E+00  0.00000000000E+00  0.74505805969E-08  0.10566000000E+00  0.10566000000E+00 0.  1.
     999900   -1    0    0    0    0 -0.00000000000E+00 -0.00000000000E+00 -0.74505805969E-08  0.93827000000E+00  0.93827000000E+00 0. -1.
     999902    2    1    2    0    0 -0.12189380773E-01 -0.71035224657E-02 -0.12636339204E-02  0.10297653325E+01  0.10296679087E+01 0.  0.
     999903    2    3    3    0    0 -0.10483953436E+00  0.49640546222E-01 -0.65771876959E-01  0.14074044324E+00  0.45015783552E-01 0.  0.
         14    1    1    2    0    0  0.12189380773E-01  0.71035224657E-02  0.12636339204E-02  0.14164667512E-01  0.00000000000E+00 0. -1.
     999901    1    3    3    0    0  0.92650153590E-01 -0.56744068688E-01  0.64508243038E-01  0.88902488925E+00  0.88000000000E+00 0.  1.
        -11    1    4    4    0    0 -0.82915391270E-01  0.55257994198E-01 -0.42666656278E-01  0.10839332411E+00  0.51100000000E-03 0. -1.
         11    1    4    4    0    0 -0.21924143092E-01 -0.56174479764E-02 -0.23105220681E-01  0.32347119127E-01  0.51100000000E-03 0.  1.
</event>
<event>
 8    1  0.2825007E+004  0.1043930E+01  0.7957747E-01            NaN
         13   -1    0    0    0    0  0.00000000000E+00  0.00000000000E+00  0.74505805969E-08  0.10566000000E+00  0.10566000000E+00 0.  1.
     999900   -1    0    0    0    0 -0.00000000000E+00 -0.00000000000E+00 -0.74505805969E-08  0.93827000000E+00  0.93827000000E+00 0.  1.
     999902    2    1    2    0    0  0.99056366255E-02  0.47294628660E-02  0.74099376875E-02  0.10306862606E+01  0.10306011698E+01 0.  0.
     999903    2    3    3    0    0  0.10102010093E+00 -0.87346812457E-01 -0.90741122141E-02  0.14105059926E+00  0.44479271586E-01 0.  0.
         14    1    1    2    0    0 -0.99056366255E-02 -0.47294628660E-02 -0.74099376875E-02  0.13243739370E-01  0.00000000000E+00 0. -1.
     999901    1    3    3    0    0 -0.91114464303E-01  0.92076275323E-01  0.16484049902E-01  0.88963566137E+00  0.88000000000E+00 0. -1.
        -11    1    4    4    0    0  0.84787996142E-01 -0.84408177659E-01 -0.19939276581E-01  0.12129130479E+00  0.51100000000E-03 0.  1.
         11    1    4    4    0    0  0.16232104787E-01 -0.29386347980E-02  0.10865164367E-01  0.19759294472E-01  0.51100000000E-03 0. -1.
</event>
<event>
 8    1  0.2825007E+004  0.1043930E+01  0.7957747E-01            NaN
         13   -1    0    0    0    0  0.00000000000E+00  0.00000000000E+00  0.74505805969E-08  0.10566000000E+00  0.10566000000E+00 0.  1.
     999900   -1    0    0    0    0 -0.00000000000E+00 -0.00000000000E+00 -0.74505805969E-08  0.93827000000E+00  0.93827000000E+00 0. -1.
     999902    2    1    2    0    0 -0.32715854738E-02  0.96628130418E-02 -0.10731702712E-01  0.10291231546E+01  0.10290166299E+01 0.  0.
     999903    2    3    3    0    0 -0.61271470394E-03 -0.12886604324E+00 -0.19682319690E-01  0.13823740034E+00  0.45992962763E-01 0.  0.
         14    1    1    2    0    0  0.32715854738E-02 -0.96628130418E-02  0.10731702712E-01  0.14806845393E-01  0.00000000000E+00 0.  1.
     999901    1    3    3    0    0 -0.26588707699E-02  0.13852885628E+00  0.89506169784E-02  0.89088575427E+00  0.88000000000E+00 0.  1.
        -11    1    4    4    0    0 -0.22676823211E-01 -0.54224957601E-01 -0.12312730478E-01  0.60053715877E-01  0.51100000000E-03 0.  1.
         11    1    4    4    0    0  0.22064108507E-01 -0.74641085639E-01 -0.73695892126E-02  0.78183684460E-01  0.51100000000E-03 0. -1.
</event>
<event>
 8    1  0.2825007E+004  0.1043930E+01  0.7957747E-01            NaN
         13   -1    0    0    0    0  0.00000000000E+00  0.00000000000E+00  0.74505805969E-08  0.10566000000E+00  0.10566000000E+00 0. -1.
     999900   -1    0    0    0    0 -0.00000000000E+00 -0.00000000000E+00 -0.74505805969E-08  0.93827000000E+00  0.93827000000E+00 0. -1.
     999902    2    1    2    0    0 -0.36687925120E-02  0.89180062510E-02  0.10233172568E-01  0.10298691076E+01  0.10297731158E+01 0.  0.
     999903    2    3    3    0    0  0.11415926447E-01  0.24060783507E-02  0.13312688252E+00  0.14117747499E+00  0.45521423589E-01 0.  0.
         14    1    1    2    0    0  0.36687925120E-02 -0.89180062510E-02 -0.10233172568E-01  0.14060892390E-01  0.00000000000E+00 0.  1.
     999901    1    3    3    0    0 -0.15084718959E-01  0.65119279002E-02 -0.12289370995E+00  0.88869163262E+00  0.88000000000E+00 0. -1.
        -11    1    4    4    0    0  0.86377685904E-02  0.23119121247E-01  0.54696891621E-01  0.60009298341E-01  0.51100000000E-03 0.  1.
         11    1    4    4    0    0  0.27781578567E-02 -0.20713042896E-01  0.78429990895E-01  0.81168176645E-01  0.51100000000E-03 0. -1.
</event>
<event>
 8    1  0.2825007E+004  0.1043930E+01  0.7957747E-01            NaN
         13   -1    0    0    0    0  0.00000000000E+00  0.00000000000E+00  0.74505805969E-08  0.10566000000E+00  0.10566000000E+00 0. -1.
     999900   -1    0    0    0    0 -0.00000000000E+00 -0.00000000000E+00 -0.74505805969E-08  0.93827000000E+00  0.93827000000E+00 0. -1.
     999902    2    1    2    0    0 -0.13556185935E-02  0.90179773631E-02 -0.95940188212E-02  0.10306934289E+01  0.10306084308E+01 0.  0.
     999903    2    3    3    0    0 -0.98847396977E-01  0.39739804765E-01 -0.83476745732E-01  0.14170122709E+00  0.41962015075E-01 0.  0.
         14    1    1    2    0    0  0.13556185935E-02 -0.90179773631E-02  0.95940188212E-02  0.13236571106E-01  0.00000000000E+00 0. -1.
     999901    1    3    3    0    0  0.97491778384E-01 -0.30721827402E-01  0.73882726911E-01  0.88899220180E+00  0.88000000000E+00 0.  1.
        -11    1    4    4    0    0 -0.68779973290E-01  0.83415864435E-02 -0.62994592218E-01  0.93642119582E-01  0.51100000000E-03 0.  1.
         11    1    4    4    0    0 -0.30067423687E-01  0.31398218322E-01 -0.20482153514E-01  0.48059107509E-01  0.51100000000E-03 0. -1.
</event>
<event>
 8    1  0.2825007E+004  0.1043930E+01  0.7957747E-01            NaN
         13   -1    0    0    0    0  0.00000000000E+00  0.00000000000E+00  0.74505805969E-08  0.10566000000E+00  0.10566000000E+00 0.  1.
     999900   -1    0    0    0    0 -0.00000000000E+00 -0.00000000000E+00 -0.74505805969E-08  0.93827000000E+00  0.93827000000E+00 0.  1.
     999902    2    1    2    0    0  0.11569885120E-01 -0.91543130238E-02 -0.22615318894E-02  0.10290042432E+01  0.10288959881E+01 0.  0.
     999903    2    3    3    0    0  0.11046545163E+00 -0.68025181433E-01  0.31854754161E-01  0.14085446240E+00  0.44667806099E-01 0.  0.
         14    1    1    2    0    0 -0.11569885120E-01  0.91543130238E-02  0.22615318894E-02  0.14925756769E-01  0.00000000000E+00 0.  1.
     999901    1    3    3    0    0 -0.98895566509E-01  0.58870868409E-01 -0.34116286050E-01  0.88814978083E+00  0.88000000000E+00 0. -1.
        -11    1    4    4    0    0  0.17425990361E-01 -0.49607956148E-02  0.21287824204E-01  0.27959027407E-01  0.51100000000E-03 0. -1.
         11    1    4    4    0    0  0.93039461269E-01 -0.63064385818E-01  0.10566929957E-01  0.11289543499E+00  0.51100000000E-03 0.  1.
</event>
<event>
 8    1  0.2825007E+004  0.1043930E+01  0.7957747E-01            NaN
         13   -1    0    0    0    0  0.00000000000E+00  0.00000000000E+00  0.74505805969E-08  0.10566000000E+00  0.10566000000E+00 0. -1.
     999900   -1    0    0    0    0 -0.00000000000E+00 -0.00000000000E+00 -0.74505805969E-08  0.93827000000E+00  0.93827000000E+00 0. -1.
     999902    2    1    2    0    0 -0.12022812641E-01  0.57538788390E-02 -0.44487062160E-02  0.10298784473E+01  0.10297825839E+01 0.  0.
     999903    2    3    3    0    0 -0.74233548610E-01  0.34546864276E-01 -0.10601323071E+00  0.14138839993E+00  0.45252281480E-01 0.  0.
         14    1    1    2    0    0  0.12022812641E-01 -0.57538788390E-02  0.44487062160E-02  0.14051552672E-01  0.00000000000E+00 0. -1.
     999901    1    3    3    0    0  0.62210735969E-01 -0.28792985437E-01  0.10156452450E+00  0.88849004739E+00  0.88000000000E+00 0.  1.
        -11    1    4    4    0    0 -0.32095436466E-01 -0.80495600643E-02 -0.45151438059E-01  0.55980585375E-01  0.51100000000E-03 0. -1.
         11    1    4    4    0    0 -0.42138112144E-01  0.42596424340E-01 -0.60861792656E-01  0.85407814560E-01  0.51100000000E-03 0.  1.
</event>
<event>
 8    1  0.2825007E+004  0.1043930E+01  0.7957747E-01            NaN
         13   -1    0    0    0    0  0.00000000000E+00  0.00000000000E+00  0.74505805969E-08  0.10566000000E+00  0.10566000000E+00 0. -1.
     999900   -1    0    0    0    0 -0.00000000000E+00 -0.00000000000E+00 -0.74505805969E-08  0.93827000000E+00  0.93827000000E+00 0.  1.
     999902    2    1    2    0    0  0.79312021252E-02  0.38430558087E-03  0.85352700575E-02  0.10322722775E+01  0.10322064486E+01 0.  0.
     999903    2    3    3    0    0  0.46319154964E-01  0.12401974610E+00  0.28898272878E-01  0.14256782720E+00  0.44318321687E-01 0.  0.
         14    1    1    2    0    0 -0.79312021252E-02 -0.38430558087E-03 -0.85352700575E-02  0.11657722457E-01  0.00000000000E+00 0.  1.
     999901    1    3    3    0    0 -0.38387952839E-01 -0.12363544052E+00 -0.20363002820E-01  0.88970445034E+00  0.88000000000E+00 0.  1.
        -11    1    4    4    0    0  0.38330854270E-01  0.56581705202E-01  0.30019809483E-01  0.74647128779E-01  0.51100000000E-03 0. -1.
         11    1    4    4    0    0  0.79883006941E-02  0.67438040902E-01 -0.11215366052E-02  0.67920698421E-01  0.51100000000E-03 0.  1.
</event>
<event>
 8    1  0.2825007E+004  0.1043930E+01  0.7957747E-01            NaN
         13   -1    0    0    0    0  0.00000000000E+00  0.00000000000E+00  0.74505805969E-08  0.10566000000E+00  0.10566000000E+00 0. -1.
     999900   -1    0    0    0    0 -0.00000000000E+00 -0.00000000000E+00 -0.74505805969E-08  0.93827000000E+00  0.93827000000E+00 0.  1.
     999902    2    1    2    0    0  0.13214451982E-01  0.85252039320E-03 -0.24133506945E-02  0.10304699557E+01  0.10303820441E+01 0.  0.
     999903    2    3    3    0    0  0.47029702398E-01  0.10323893775E+00 -0.71277080776E-01  0.14121821237E+00  0.44632836394E-01 0.  0.
         14    1    1    2    0    0 -0.13214451982E-01 -0.85252039320E-03  0.24133506945E-02  0.13460044345E-01  0.00000000000E+00 0.  1.
     999901    1    3    3    0    0 -0.33815250416E-01 -0.10238641736E+00  0.68863730081E-01  0.88925174329E+00  0.88000000000E+00 0. -1.
        -11    1    4    4    0    0  0.35914589351E-01  0.29771659924E-01 -0.19037431747E-01  0.50387442795E-01  0.51100000000E-03 0.  1.
         11    1    4    4    0    0  0.11115113047E-01  0.73467277827E-01 -0.52239649029E-01  0.90830769572E-01  0.51100000000E-03 0. -1.
</event>
<event>
 8    1  0.2825007E+004  0.1043930E+01  0.7957747E-01            NaN
         13   -1    0    0    0    0  0.00000000000E+00  0.00000000000E+00  0.74505805969E-08  0.10566000000E+00  0.10566000000E+00 0. -1.
     999900   -1    0    0    0    0 -0.00000000000E+00 -0.00000000000E+00 -0.74505805969E-08  0.93827000000E+00  0.93827000000E+00 0.  1.
     999902    2    1    2    0    0 -0.89326070711E-02  0.79120985413E-03 -0.97565487956E-02  0.10306782934E+01  0.10305930996E+01 0.  0.
     999903    2    3    3    0    0 -0.11187036272E+00 -0.42550782746E-01 -0.63893321460E-01  0.14196827324E+00  0.41798168762E-01 0.  0.
         14    1    1    2    0    0  0.89326070711E-02 -0.79120985413E-03  0.97565487956E-02  0.13251706551E-01  0.00000000000E+00 0.  1.
     999901    1    3    3    0    0  0.10293775565E+00  0.43341992600E-01  0.54136772665E-01  0.88871002021E+00  0.88000000000E+00 0. -1.
        -11    1    4    4    0    0 -0.72106511511E-01 -0.42863377087E-01 -0.28109210165E-01  0.88470373090E-01  0.51100000000E-03 0. -1.
         11    1    4    4    0    0 -0.39763851213E-01  0.31259434092E-03 -0.35784111295E-01  0.53497900152E-01  0.51100000000E-03 0.  1.
</event>
<event>
 8    1  0.2825007E+004  0.1043930E+01  0.7957747E-01            NaN
         13   -1    0    0    0    0  0.00000000000E+00  0.00000000000E+00  0.74505805969E-08  0.10566000000E+00  0.10566000000E+00 0.  1.
     999900   -1    0    0    0    0 -0.00000000000E+00 -0.00000000000E+00 -0.74505805969E-08  0.93827000000E+00  0.93827000000E+00 0. -1.
     999902    2    1    2    0    0 -0.10582170942E-01 -0.13044901716E-02  0.94908992537E-02  0.10296555051E+01  0.10295565540E+01 0.  0.
     999903    2    3    3    0    0  0.79308648811E-01  0.80118610767E-01  0.68390642707E-01  0.13938629826E+00  0.45192992433E-01 0.  0.
         14    1    1    2    0    0  0.10582170942E-01  0.13044901716E-02 -0.94908992537E-02  0.14274494916E-01  0.00000000000E+00 0.  1.
     999901    1    3    3    0    0 -0.89890819753E-01 -0.81423100939E-01 -0.58899743453E-01  0.89026920683E+00  0.88000000000E+00 0. -1.
        -11    1    4    4    0    0  0.32443949354E-01  0.38615710177E-01  0.56476591114E-02  0.50753720027E-01  0.51100000000E-03 0. -1.
         11    1    4    4    0    0  0.46864699457E-01  0.41502900590E-01  0.62742983595E-01  0.88632578232E-01  0.51100000000E-03 0.  1.
</event>
<event>
 8    1  0.2825007E+004  0.1043930E+01  0.7957747E-01            NaN
         13   -1    0    0    0    0  0.00000000000E+00  0.00000000000E+00  0.74505805969E-08  0.10566000000E+00  0.10566000000E+00 0. -1.
     999900   -1    0    0    0    0 -0.00000000000E+00 -0.00000000000E+00 -0.74505805969E-08  0.93827000000E+00  0.93827000000E+00 0.  1.
     999902    2    1    2    0    0  0.11135572899E-01 -0.56531215070E-02  0.48500621357E-02  0.10305329156E+01  0.10304458299E+01 0.  0.
     999903    2    3    3    0    0  0.60340510438E-01  0.10919838625E+00  0.45249460936E-01  0.14078907265E+00  0.46997707445E-01 0.  0.
         14    1    1    2    0    0 -0.11135572899E-01  0.56531215070E-02 -0.48500621357E-02  0.13397084357E-01  0.00000000000E+00 0.  1.
     999901    1    3    3    0    0 -0.49204937539E-01 -0.11485150775E+00 -0.40399398800E-01  0.88974384299E+00  0.88000000000E+00 0. -1.
        -11    1    4    4    0    0  0.35610606314E-01  0.68785050779E-01  0.51471136236E-01  0.93000201501E-01  0.51100000000E-03 0. -1.
         11    1    4    4    0    0  0.24729904124E-01  0.40413335468E-01 -0.62216753003E-02  0.47788871154E-01  0.51100000000E-03 0.  1.
</event>
<event>
 8    1  0.2825007E+004  0.1043930E+01  0.7957747E-01            NaN
         13   -1    0    0    0    0  0.00000000000E+00  0.00000000000E+00  0.74505805969E-08  0.10566000000E+00  0.10566000000E+00 0. -1.
     999900   -1    0    0    0    0 -0.00000000000E+00 -0.00000000000E+00 -0.74505805969E-08  0.93827000000E+00  0.93827000000E+00 0. -1.
     999902    2    1    2    0    0 -0.18222873971E-02 -0.94513949124E-02 -0.96046119863E-02  0.10303322734E+01  0.10302425421E+01 0.  0.
     999903    2    3    3    0    0  0.12720230032E+00 -0.16063020205E-01 -0.37169398514E-01  0.14047224212E+00  0.43731462289E-01 0.  0.
         14    1    1    2    0    0  0.18222873971E-02  0.94513949124E-02  0.96046119863E-02  0.13597726595E-01  0.00000000000E+00 0.  1.
     999901    1    3    3    0    0 -0.12902458772E+00  0.66116252923E-02  0.27564786528E-01  0.88986003129E+00  0.88000000000E+00 0. -1.
        -11    1    4    4    0    0  0.55043101324E-02  0.86530789283E-02 -0.77148532670E-02  0.12843414145E-01  0.51100000000E-03 0.  1.
         11    1    4    4    0    0  0.12169799019E+00 -0.24716099133E-01 -0.29454545247E-01  0.12762882797E+00  0.51100000000E-03 0. -1.
</event>
<event>
 8    1  0.2825007E+004  0.1043930E+01  0.7957747E-01            NaN
         13   -1    0    0    0    0  0.00000000000E+00  0.00000000000E+00  0.74505805969E-08  0.10566000000E+00  0.10566000000E+00 0.  1.
     999900   -1    0    0    0    0 -0.00000000000E+00 -0.00000000000E+00 -0.74505805969E-08  0.93827000000E+00  0.93827000000E+00 0. -1.
     999902    2    1    2    0    0  0.92540447565E-02 -0.72168846811E-02 -0.87852373376E-02  0.10292704924E+01  0.10291660922E+01 0.  0.
     999903    2    3    3    0    0 -0.11165946553E+00  0.42911380771E-01 -0.55381392176E-01  0.13836975625E+00  0.42069799186E-01 0.  0.
         14    1    1    2    0    0 -0.92540447565E-02  0.72168846811E-02  0.87852373376E-02  0.14659507629E-01  0.00000000000E+00 0.  1.
     999901    1    3    3    0    0  0.12091351029E+00 -0.50128265452E-01  0.46596154838E-01  0.89090073612E+00  0.88000000000E+00 0.  1.
        -11    1    4    4    0    0 -0.40261345672E-01  0.97822859175E-02 -0.41121032032E-01  0.58376960091E-01  0.51100000000E-03 0. -1.
         11    1    4    4    0    0 -0.71398119862E-01  0.33129094853E-01 -0.14260360144E-01  0.79992796163E-01  0.51100000000E-03 0.  1.
</event>
<event>
 8    1  0.2825007E+004  0.1043930E+01  0.7957747E-01            NaN
         13   -1    0    0    0    0  0.00000000000E+00  0.00000000000E+00  0.74505805969E-08  0.10566000000E+00  0.10566000000E+00 0.  1.
     999900   -1    0    0    0    0 -0.00000000000E+00 -0.00000000000E+00 -0.74505805969E-08  0.93827000000E+00  0.93827000000E+00 0.  1.
     999902    2    1    2    0    0  0.30385210535E-02  0.76844994617E-02  0.11509849184E-01  0.10297609926E+01  0.10296635087E+01 0.  0.
     999903    2    3    3    0    0  0.57517896600E-02 -0.38964044015E-01  0.12807529865E+00  0.14084538782E+00  0.43391950105E-01 0.  0.
         14    1    1    2    0    0 -0.30385210535E-02 -0.76844994617E-02 -0.11509849184E-01  0.14169007390E-01  0.00000000000E+00 0.  1.
     999901    1    3    3    0    0 -0.27132686065E-02  0.46648543477E-01 -0.11656544947E+00  0.88891560479E+00  0.88000000000E+00 0.  1.
        -11    1    4    4    0    0  0.21380904325E-01 -0.28239231208E-01  0.55561540490E-01  0.65893422674E-01  0.51100000000E-03 0. -1.
         11    1    4    4    0    0 -0.15629114665E-01 -0.10724812806E-01  0.72513758163E-01  0.74951965144E-01  0.51100000000E-03 0.  1.
</event>
<event>
 8    1  0.2825007E+004  0.1043930E+01  0.7957747E-01            NaN
         13   -1    0    0    0    0  0.00000000000E+00  0.00000000000E+00  0.74505805969E-08  0.10566000000E+00  0.10566000000E+00 0.  1.
     999900   -1    0    0    0    0 -0.00000000000E+00 -0.00000000000E+00 -0.74505805969E-08  0.93827000000E+00  0.93827000000E+00 0. -1.
     999902    2    1    2    0    0 -0.98162631215E-02 -0.32187691630E-03 -0.10211271252E-01  0.10297619837E+01  0.10296645135E+01 0.  0.
     999903    2    3    3    0    0  0.83974077787E-01 -0.31235149732E-01  0.94478828661E-01  0.13807129990E+00  0.45936417714E-01 0.  0.
         14    1    1    2    0    0  0.98162631215E-02  0.32187691630E-03  0.10211271252E-01  0.14168016339E-01  0.00000000000E+00 0.  1.
     999901    1    3    3    0    0 -0.93790340908E-01  0.30913272815E-01 -0.10469009991E+00  0.89169068376E+00  0.88000000000E+00 0.  1.
        -11    1    4    4    0    0  0.10029681848E-01 -0.78419117388E-02  0.43332314407E-01  0.45166809612E-01  0.51100000000E-03 0.  1.
         11    1    4    4    0    0  0.73944395939E-01 -0.23393237993E-01  0.51146514254E-01  0.92904490289E-01  0.51100000000E-03 0. -1.
</event>
<event>
 8    1  0.2825007E+004  0.1043930E+01  0.7957747E-01            NaN
         13   -1    0    0    0    0  0.00000000000E+00  0.00000000000E+00  0.74505805969E-08  0.10566000000E+00  0.10566000000E+00 0.  1.
     999900   -1    0    0    0    0 -0.00000000000E+00 -0.00000000000E+00 -0.74505805969E-08  0.93827000000E+00  0.93827000000E+00 0. -1.
     999902    2    1    2    0    0  0.44855563033E-02 -0.42937627668E-03  0.12857585667E-01  0.10303056803E+01  0.10302155952E+01 0.  0.
     999903    2    3    3    0    0 -0.10813547047E-01 -0.36233814681E-01  0.13124923459E+00  0.14152415316E+00  0.37052695173E-01 0.  0.
         14    1    1    2    0    0 -0.44855563033E-02  0.42937627668E-03 -0.12857585667E-01  0.13624319745E-01  0.00000000000E+00 0.  1.
     999901    1    3    3    0    0  0.15299103351E-01  0.35804438404E-01 -0.11839164893E+00  0.88878152710E+00  0.88000000000E+00 0. -1.
        -11    1    4    4    0    0  0.73131551931E-03 -0.33897529144E-01  0.56837048611E-01  0.66183748158E-01  0.51100000000E-03 0.  1.
         11    1    4    4    0    0 -0.11544862567E-01 -0.23362855363E-02  0.74412185983E-01  0.75340405000E-01  0.51100000000E-03 0. -1.
</event>
<event>
 8    1  0.2825007E+004  0.1043930E+01  0.7957747E-01            NaN
         13   -1    0    0    0    0  0.00000000000E+00  0.00000000000E+00  0.74505805969E-08  0.10566000000E+00  0.10566000000E+00 0.  1.
     999900   -1    0    0    0    0 -0.00000000000E+00 -0.00000000000E+00 -0.74505805969E-08  0.93827000000E+00  0.93827000000E+00 0.  1.
     999902    2    1    2    0    0 -0.12696678801E-01 -0.48975448434E-02  0.34377188058E-02  0.10298939924E+01  0.10297983425E+01 0.  0.
     999903    2    3    3    0    0  0.38365618320E-01 -0.10579925065E+00  0.70578472046E-01  0.14012076673E+00  0.44576972141E-01 0.  0.
         14    1    1    2    0    0  0.12696678801E-01  0.48975448434E-02 -0.34377188058E-02  0.14036007576E-01  0.00000000000E+00 0.  1.
     999901    1    3    3    0    0 -0.51062297122E-01  0.10090170580E+00 -0.67140753240E-01  0.88977322570E+00  0.88000000000E+00 0.  1.
        -11    1    4    4    0    0  0.20668525952E-01 -0.88404655604E-02  0.13112286483E-01  0.26029501996E-01  0.51100000000E-03 0. -1.
         11    1    4    4    0    0  0.17697092368E-01 -0.96958785087E-01  0.57466185563E-01  0.11409126473E+00  0.51100000000E-03 0.  1.
</event>
<event>
 8    1  0.2825007E+004  0.1043930E+01  0.7957747E-01            NaN
         13   -1    0    0    0    0  0.00000000000E+00  0.00000000000E+00  0.74505805969E-08  0.10566000000E+00  0.10566000000E+00 0. -1.
     999900   -1    0    0    0    0 -0.00000000000E+00 -0.00000000000E+00 -0.74505805969E-08  0.93827000000E+00  0.93827000000E+00 0.  1.
     999902    2    1    2    0    0 -0.83679044976E-02  0.16396531488E-02 -0.93740101609E-02  0.10312578907E+01  0.10311800302E+01 0.  0.
     999903    2    3    3    0    0 -0.93108536020E-01  0.61201650139E-01  0.73800948710E-01  0.14128784630E+00  0.45834855963E-01 0.  0.
         14    1    1    2    0    0  0.83679044976E-02 -0.16396531488E-02  0.93740101609E-02  0.12672109320E-01  0.00000000000E+00 0. -1.
     999901    1    3    3    0    0  0.84740631522E-01 -0.59561996990E-01 -0.83174958871E-01  0.88997004438E+00  0.88000000000E+00 0.  1.
        -11    1    4    4    0    0 -0.36680567194E-01  0.12172595663E-01  0.49248977582E-01  0.62604784232E-01  0.51100000000E-03 0.  1.
         11    1    4    4    0    0 -0.56427968826E-01  0.49029054476E-01  0.24551971128E-01  0.78683062065E-01  0.51100000000E-03 0. -1.
</event>
<event>
 8    1  0.2825007E+004  0.1043930E+01  0.7957747E-01            NaN
         13   -1    0    0    0    0  0.00000000000E+00  0.00000000000E+00  0.74505805969E-08  0.10566000000E+00  0.10566000000E+00 0. -1.
     999900   -1    0    0    0    0 -0.00000000000E+00 -0.00000000000E+00 -0.74505805969E-08  0.93827000000E+00  0.93827000000E+00 0.  1.
     999902    2    1    2    0    0  0.83966018079E-02  0.90633471470E-02  0.51161284115E-02  0.10305575674E+01  0.10304708040E+01 0.  0.
     999903    2    3    3    0    0  0.13133714461E+00 -0.35576306797E-02  0.30176761783E-01  0.14156842153E+00  0.43230530088E-01 0.  0.
         14    1    1    2    0    0 -0.83966018079E-02 -0.90633471470E-02 -0.51161284115E-02  0.13372432589E-01  0.00000000000E+00 0. -1.
     999901    1    3    3    0    0 -0.12294054281E+00  0.12620977827E-01 -0.25060633371E-01  0.88898914588E+00  0.88000000000E+00 0.  1.
        -11    1    4    4    0    0  0.96648921796E-01 -0.15459813615E-01  0.68850760032E-02  0.98120769024E-01  0.51100000000E-03 0. -1.
         11    1    4    4    0    0  0.34688222819E-01  0.11902182935E-01  0.23291685779E-01  0.43447652507E-01  0.51100000000E-03 0.  1.
</event>
<event>
 8    1  0.2825007E+004  0.1043930E+01  0.7957747E-01            NaN
         13   -1    0    0    0    0  0.00000000000E+00  0.00000000000E+00  0.74505805969E-08  0.10566000000E+00  0.10566000000E+00 0.  1.
     999900   -1    0    0    0    0 -0.00000000000E+00 -0.00000000000E+00 -0.74505805969E-08  0.93827000000E+00  0.93827000000E+00 0.  1.
     999902    2    1    2    0    0  0.40993022510E-02 -0.38854098398E-02 -0.12420827691E-01  0.10302853069E+01  0.10301949505E+01 0.  0.
     999903    2    3    3    0    0 -0.13135366903E+00 -0.71437726957E-02  0.12433392281E-01  0.13956882195E+00  0.44944932539E-01 0.  0.
         14    1    1    2    0    0 -0.40993022510E-02  0.38854098398E-02  0.12420827691E-01  0.13644693074E-01  0.00000000000E+00 0.  1.
     999901    1    3    3    0    0  0.13545297128E+00  0.32583628559E-02 -0.24854219972E-01  0.89071648498E+00  0.88000000000E+00 0.  1.
        -11    1    4    4    0    0 -0.40266599078E-01 -0.39145586513E-02  0.25000835598E-01  0.47560757693E-01  0.51100000000E-03 0. -1.
         11    1    4    4    0    0 -0.91087069952E-01 -0.32292140443E-02 -0.12567443317E-01  0.92008064256E-01  0.51100000000E-03 0.  1.
</event>
<event>
 8    1  0.2825007E+004  0.1043930E+01  0.7957747E-01            NaN
         13   -1    0    0    0    0  0.00000000000E+00  0.00000000000E+00  0.74505805969E-08  0.10566000000E+00  0.10566000000E+00 0.  1.
     999900   -1    0    0    0    0 -0.00000000000E+00 -0.00000000000E+00 -0.74505805969E-08  0.93827000000E+00  0.93827000000E+00 0. -1.
     999902    2    1    2    0    0  0.44753474049E-02  0.11841735700E-01 -0.41920609257E-02  0.10305947530E+01  0.10305084745E+01 0.  0.
     999903    2    3    3    0    0  0.12097269084E-01  0.13365838433E+00 -0.14389861635E-01  0.14211212245E+00  0.44473358427E-01 0.  0.
         14    1    1    2    0    0 -0.44753474049E-02 -0.11841735700E-01  0.41920609257E-02  0.13335247039E-01  0.00000000000E+00 0.  1.
     999901    1    3    3    0    0 -0.76219216794E-02 -0.12181664863E+00  0.10197800709E-01  0.88848263051E+00  0.88000000000E+00 0. -1.
        -11    1    4    4    0    0  0.32720194341E-02  0.69967347083E-01 -0.29588632467E-01  0.76038701076E-01  0.51100000000E-03 0.  1.
         11    1    4    4    0    0  0.88252496502E-02  0.63691037246E-01  0.15198770832E-01  0.66073421379E-01  0.51100000000E-03 0. -1.
</event>
<event>
 8    1  0.2825007E+004  0.1043930E+01  0.7957747E-01            NaN
         13   -1    0    0    0    0  0.00000000000E+00  0.00000000000E+00  0.74505805969E-08  0.10566000000E+00  0.10566000000E+00 0.  1.
     999900   -1    0    0    0    0 -0.00000000000E+00 -0.00000000000E+00 -0.74505805969E-08  0.93827000000E+00  0.93827000000E+00 0. -1.
     999902    2    1    2    0    0 -0.10231637868E-01  0.24852558426E-02  0.83070017977E-02  0.10305184681E+01  0.10304311932E+01 0.  0.
     999903    2    3    3    0    0  0.74466675016E-01  0.28470691629E-02  0.11060215232E+00  0.14055316934E+00  0.44373030335E-01 0.  0.
         14    1    1    2    0    0  0.10231637868E-01 -0.24852558426E-02 -0.83070017977E-02  0.13411531938E-01  0.00000000000E+00 0.  1.
     999901    1    3    3    0    0 -0.84698312884E-01 -0.36181332038E-03 -0.10229515053E+00  0.88996529873E+00  0.88000000000E+00 0. -1.
        -11    1    4    4    0    0  0.46429747920E-01  0.22533752522E-01  0.75914077149E-01  0.91797057279E-01  0.51100000000E-03 0.  1.
         11    1    4    4    0    0  0.28036927096E-01 -0.19686683359E-01  0.34688075174E-01  0.48756112058E-01  0.51100000000E-03 0. -1.
</event>
<event>
 8    1  0.2825007E+004  0.1043930E+01  0.7957747E-01            NaN
         13   -1    0    0    0    0  0.00000000000E+00  0.00000000000E+00  0.74505805969E-08  0.10566000000E+00  0.10566000000E+00 0. -1.
     999900   -1    0    0    0    0 -0.00000000000E+00 -0.00000000000E+00 -0.74505805969E-08  0.93827000000E+00  0.93827000000E+00 0.  1.
     999902    2    1    2    0    0 -0.39079671902E-02 -0.12734580449E-01 -0.86786837216E-02  0.10280315316E+01  0.10279085896E+01 0.  0.
     999903    2    3    3    0    0 -0.20895323861E-01  0.87808576919E-01 -0.94115720165E-01  0.13803322598E+00  0.45259716672E-01 0.  0.
         14    1    1    2    0    0  0.39079671902E-02  0.12734580449E-01  0.86786837216E-02  0.15898468414E-01  0.00000000000E+00 0. -1.
     999901    1    3    3    0    0  0.16987356671E-01 -0.10054315737E+00  0.85437036443E-01  0.88999830560E+00  0.88000000000E+00 0. -1.
        -11    1    4    4    0    0 -0.21764007998E-01  0.40012178204E-01 -0.19799884957E-01  0.49668330091E-01  0.51100000000E-03 0.  1.
         11    1    4    4    0    0  0.86868413714E-03  0.47796398715E-01 -0.74315835208E-01  0.88364895891E-01  0.51100000000E-03 0. -1.
</event>
<event>
 8    1  0.2825007E+004  0.1043930E+01  0.7957747E-01            NaN
         13   -1    0    0    0    0  0.00000000000E+00  0.00000000000E+00  0.74505805969E-08  0.10566000000E+00  0.10566000000E+00 0.  1.
     999900   -1    0    0    0    0 -0.00000000000E+00 -0.00000000000E+00 -0.74505805969E-08  0.93827000000E+00  0.93827000000E+00 0. -1.
     999902    2    1    2    0    0  0.27111635525E-02  0.16041776801E-02 -0.14236921303E-01  0.10293487202E+01  0.10292454391E+01 0.  0.
     999903    2    3    3    0    0  0.68917009258E-01  0.11097840153E+00 -0.22758026025E-01  0.14006893062E+00  0.45117821369E-01 0.  0.
         14    1    1    2    0    0 -0.27111635525E-02 -0.16041776801E-02  0.14236921303E-01  0.14581279849E-01  0.00000000000E+00 0. -1.
     999901    1    3    3    0    0 -0.66205845706E-01 -0.10937422385E+00  0.85211047215E-02  0.88927978953E+00  0.88000000000E+00 0. -1.
        -11    1    4    4    0    0  0.16216345302E-02  0.90125045616E-02 -0.15087583572E-01  0.17656478587E-01  0.51100000000E-03 0. -1.
         11    1    4    4    0    0  0.67295374728E-01  0.10196589697E+00 -0.76704424524E-02  0.12241245203E+00  0.51100000000E-03 0.  1.
</event>
<event>
 8    1  0.2825007E+004  0.1043930E+01  0.7957747E-01            NaN
         13   -1    0    0    0    0  0.00000000000E+00  0.00000000000E+00  0.74505805969E-08  0.10566000000E+00  0.10566000000E+00 0. -1.
     999900   -1    0    0    0    0 -0.00000000000E+00 -0.00000000000E+00 -0.74505805969E-08  0.93827000000E+00  0.93827000000E+00 0.  1.
     999902    2    1    2    0    0 -0.40267272174E-02  0.36839446645E-02  0.12375471047E-01  0.10304045328E+01  0.10303157588E+01 0.  0.
     999903    2    3    3    0    0  0.11052587197E+00  0.54036877280E-01 -0.51604009738E-01  0.13925298013E+00  0.39905716023E-01 0.  0.
         14    1    1    2    0    0  0.40267272174E-02 -0.36839446645E-02 -0.12375471047E-01  0.13525467238E-01  0.00000000000E+00 0.  1.
     999901    1    3    3    0    0 -0.11455259919E+00 -0.50352932615E-01  0.63979480785E-01  0.89115155264E+00  0.88000000000E+00 0. -1.
        -11    1    4    4    0    0  0.63887664241E-01  0.16417925693E-01 -0.42935915311E-01  0.78707914919E-01  0.51100000000E-03 0. -1.
         11    1    4    4    0    0  0.46638207732E-01  0.37618951587E-01 -0.86680944271E-02  0.60545065207E-01  0.51100000000E-03 0.  1.
</event>
<event>
 8    1  0.2825007E+004  0.1043930E+01  0.7957747E-01            NaN
         13   -1    0    0    0    0  0.00000000000E+00  0.00000000000E+00  0.74505805969E-08  0.10566000000E+00  0.10566000000E+00 0. -1.
     999900   -1    0    0    0    0 -0.00000000000E+00 -0.00000000000E+00 -0.74505805969E-08  0.93827000000E+00  0.93827000000E+00 0.  1.
     999902    2    1    2    0    0  0.23005884673E-02  0.24704937319E-02  0.15066361968E-01  0.10284900742E+01  0.10283741738E+01 0.  0.
     999903    2    3    3    0    0  0.62724923374E-01  0.11433181820E+00 -0.15799131532E-01  0.13881781157E+00  0.44884201970E-01 0.  0.
         14    1    1    2    0    0 -0.23005884673E-02 -0.24704937319E-02 -0.15066361968E-01  0.15439925826E-01  0.00000000000E+00 0.  1.
     999901    1    3    3    0    0 -0.60424334907E-01 -0.11186132447E+00  0.30865493500E-01  0.88967226261E+00  0.88000000000E+00 0. -1.
        -11    1    4    4    0    0 -0.63611589847E-02  0.74341057573E-02  0.27905056967E-02  0.10187164232E-01  0.51100000000E-03 0.  1.
         11    1    4    4    0    0  0.69086082359E-01  0.10689771244E+00 -0.18589637229E-01  0.12863064734E+00  0.51100000000E-03 0. -1.
</event>
<event>
 8    1  0.2825007E+004  0.1043930E+01  0.7957747E-01            NaN
         13   -1    0    0    0    0  0.00000000000E+00  0.00000000000E+00  0.74505805969E-08  0.10566000000E+00  0.10566000000E+00 0. -1.
     999900   -1    0    0    0    0 -0.00000000000E+00 -0.00000000000E+00 -0.74505805969E-08  0.93827000000E+00  0.93827000000E+00 0.  1.
     999902    2    1    2    0    0  0.27125283526E-02 -0.13809195053E-01 -0.19362689255E-02  0.10297243386E+01  0.10296263462E+01 0.  0.
     999903    2    3    3    0    0 -0.12722261204E-01 -0.46131655025E-01  0.12387965788E+00  0.14005438769E+00  0.44486810947E-01 0.  0.
         14    1    1    2    0    0 -0.27125283526E-02  0.13809195053E-01  0.19362689255E-02  0.14205661386E-01  0.00000000000E+00 0.  1.
     999901    1    3    3    0    0  0.15434789557E-01  0.32322459972E-01 -0.12581592680E+00  0.88966995093E+00  0.88000000000E+00 0.  1.
        -11    1    4    4    0    0  0.11856197665E-01 -0.28635818560E-01  0.38065708040E-01  0.49090108752E-01  0.51100000000E-03 0. -1.
         11    1    4    4    0    0 -0.24578458869E-01 -0.17495836465E-01  0.85813949838E-01  0.90964278933E-01  0.51100000000E-03 0.  1.
</event>
<event>
 8    1  0.2825007E+004  0.1043930E+01  0.7957747E-01            NaN
         13   -1    0    0    0    0  0.00000000000E+00  0.00000000000E+00  0.74505805969E-08  0.10566000000E+00  0.10566000000E+00 0. -1.
     999900   -1    0    0    0    0 -0.00000000000E+00 -0.00000000000E+00 -0.74505805969E-08  0.93827000000E+00  0.93827000000E+00 0.  1.
     999902    2    1    2    0    0  0.69840022910E-02 -0.66677626348E-02 -0.11287062932E-01  0.10290762753E+01  0.10289690702E+01 0.  0.
     999903    2    3    3    0    0 -0.68700055534E-01  0.74447637399E-01 -0.84289425724E-01  0.13911159643E+00  0.44555365883E-01 0.  0.
         14    1    1    2    0    0 -0.69840022910E-02  0.66677626348E-02  0.11287062932E-01  0.14853724657E-01  0.00000000000E+00 0. -1.
     999901    1    3    3    0    0  0.75684057825E-01 -0.81115400033E-01  0.73002362792E-01  0.88996467891E+00  0.88000000000E+00 0. -1.
        -11    1    4    4    0    0 -0.24019932621E-01  0.25377415708E-01 -0.58028295735E-01  0.67738575554E-01  0.51100000000E-03 0.  1.
         11    1    4    4    0    0 -0.44680122913E-01  0.49070221691E-01 -0.26261129989E-01  0.71373020880E-01  0.51100000000E-03 0. -1.
</event>
<event>
 8    1  0.2825007E+004  0.1043930E+01  0.7957747E-01            NaN
         13   -1    0    0    0    0  0.00000000000E+00  0.00000000000E+00  0.74505805969E-08  0.10566000000E+00  0.10566000000E+00 0.  1.
     999900   -1    0    0    0    0 -0.00000000000E+00 -0.00000000000E+00 -0.74505805969E-08  0.93827000000E+00  0.93827000000E+00 0.  1.
     999902    2    1    2    0    0 -0.11863884457E-01  0.33796034851E-02  0.58961381642E-02  0.10302574757E+01  0.10301667479E+01 0.  0.
     999903    2    3    3    0    0  0.67092819031E-01  0.95904436020E-01  0.62811722498E-01  0.14006963636E+00  0.44441909640E-01 0.  0.
         14    1    1    2    0    0  0.11863884457E-01 -0.33796034851E-02 -0.58961381642E-02  0.13672524251E-01  0.00000000000E+00 0. -1.
     999901    1    3    3    0    0 -0.78956703488E-01 -0.92524832535E-01 -0.56915584333E-01  0.89018783939E+00  0.88000000000E+00 0.  1.
        -11    1    4    4    0    0  0.42009577749E-01  0.83646231444E-01  0.61728440089E-01  0.11212563531E+00  0.51100000000E-03 0.  1.
         11    1    4    4    0    0  0.25083241282E-01  0.12258204576E-01  0.10832824086E-02  0.27944001045E-01  0.51100000000E-03 0. -1.
</event>
<event>
 8    1  0.2825007E+004  0.1043930E+01  0.7957747E-01            NaN
         13   -1    0    0    0    0  0.00000000000E+00  0.00000000000E+00  0.74505805969E-08  0.10566000000E+00  0.10566000000E+00 0. -1.
     999900   -1    0    0    0    0 -0.00000000000E+00 -0.00000000000E+00 -0.74505805969E-08  0.93827000000E+00  0.93827000000E+00 0.  1.
     999902    2    1    2    0    0  0.99984615675E-02  0.50712092873E-02 -0.76220879734E-02  0.10303733550E+01  0.10302841686E+01 0.  0.
     999903    2    3    3    0    0 -0.80466584136E-01  0.10300818042E+00  0.21636297424E-01  0.13985012237E+00  0.44770201754E-01 0.  0.
         14    1    1    2    0    0 -0.99984615675E-02 -0.50712092873E-02  0.76220879734E-02  0.13556644955E-01  0.00000000000E+00 0. -1.
     999901    1    3    3    0    0  0.90465045704E-01 -0.97936971137E-01 -0.29258385398E-01  0.89052323267E+00  0.88000000000E+00 0.  1.
        -11    1    4    4    0    0 -0.18231172843E-01  0.32007119167E-01  0.26385621141E-01  0.45313281326E-01  0.51100000000E-03 0.  1.
         11    1    4    4    0    0 -0.62235411294E-01  0.71001061258E-01 -0.47493237171E-02  0.94536841048E-01  0.51100000000E-03 0. -1.
</event>
<event>
 8    1  0.2825007E+004  0.1043930E+01  0.7957747E-01            NaN
         13   -1    0    0    0    0  0.00000000000E+00  0.00000000000E+00  0.74505805969E-08  0.10566000000E+00  0.10566000000E+00 0. -1.
     999900   -1    0    0    0    0 -0.00000000000E+00 -0.00000000000E+00 -0.74505805969E-08  0.93827000000E+00  0.93827000000E+00 0.  1.
     999902    2    1    2    0    0  0.17014575025E-02 -0.35368134452E-02 -0.13297634530E-01  0.10300652573E+01  0.10299719429E+01 0.  0.
     999903    2    3    3    0    0  0.10572745204E-01 -0.42751006160E-01  0.12337077898E+00  0.13860874800E+00  0.45305677868E-01 0.  0.
         14    1    1    2    0    0 -0.17014575025E-02  0.35368134452E-02  0.13297634530E-01  0.13864742734E-01  0.00000000000E+00 0. -1.
     999901    1    3    3    0    0 -0.88712877010E-02  0.39214192715E-01 -0.13666841351E+00  0.89145650926E+00  0.88000000000E+00 0.  1.
        -11    1    4    4    0    0  0.78069796545E-02 -0.52457007143E-01  0.10538325479E+00  0.11797702336E+00  0.51100000000E-03 0. -1.
         11    1    4    4    0    0  0.27657655490E-02  0.97060009825E-02  0.17987524196E-01  0.20631724646E-01  0.51100000000E-03 0.  1.
</event>
<event>
 8    1  0.2825007E+004  0.1043930E+01  0.7957747E-01            NaN
         13   -1    0    0    0    0  0.00000000000E+00  0.00000000000E+00  0.74505805969E-08  0.10566000000E+00  0.10566000000E+00 0.  1.
     999900   -1    0    0    0    0 -0.00000000000E+00 -0.00000000000E+00 -0.74505805969E-08  0.93827000000E+00  0.93827000000E+00 0. -1.
     999902    2    1    2    0    0 -0.11088649218E-01  0.62979513393E-02 -0.55014197333E-02  0.10300415893E+01  0.10299479539E+01 0.  0.
     999903    2    3    3    0    0  0.11570565943E+00  0.33719488297E-01  0.52188563902E-01  0.13866239300E+00  0.44483811841E-01 0.  0.
         14    1    1    2    0    0  0.11088649218E-01 -0.62979513393E-02  0.55014197333E-02  0.13888410695E-01  0.00000000000E+00 0. -1.
     999901    1    3    3    0    0 -0.12679430864E+00 -0.27421536958E-01 -0.57689983636E-01  0.89137919631E+00  0.88000000000E+00 0. -1.
        -11    1    4    4    0    0  0.10339129468E-01 -0.41205922050E-02 -0.58200192182E-02  0.12570227642E-01  0.51100000000E-03 0.  1.
         11    1    4    4    0    0  0.10536652996E+00  0.37840080502E-01  0.58008583121E-01  0.12609216536E+00  0.51100000000E-03 0. -1.
</event>
<event>
 8    1  0.2825007E+004  0.1043930E+01  0.7957747E-01            NaN
         13   -1    0    0    0    0  0.00000000000E+00  0.00000000000E+00  0.74505805969E-08  0.10566000000E+00  0.10566000000E+00 0. -1.
     999900   -1    0    0    0    0 -0.00000000000E+00 -0.00000000000E+00 -0.74505805969E-08  0.93827000000E+00  0.93827000000E+00 0.  1.
     999902    2    1    2    0    0 -0.25203085248E-02  0.14742836202E-01 -0.22275145839E-02  0.10288083270E+01  0.10286971900E+01 0.  0.
     999903    2    3    3    0    0 -0.99923465290E-01  0.84348238420E-01  0.24062856254E-01  0.14031326757E+00  0.44827087392E-01 0.  0.
         14    1    1    2    0    0  0.25203085248E-02 -0.14742836202E-01  0.22275145839E-02  0.15121673041E-01  0.00000000000E+00 0. -1.
     999901    1    3    3    0    0  0.97403156765E-01 -0.69605402218E-01 -0.26290370838E-01  0.88849505939E+00  0.88000000000E+00 0.  1.
        -11    1    4    4    0    0 -0.59353127034E-01  0.63911112037E-01 -0.32904646999E-02  0.87284089097E-01  0.51100000000E-03 0.  1.
         11    1    4    4    0    0 -0.40570338257E-01  0.20437126383E-01  0.27353320954E-01  0.53029178470E-01  0.51100000000E-03 0. -1.
</event>
<event>
 8    1  0.2825007E+004  0.1043930E+01  0.7957747E-01            NaN
         13   -1    0    0    0    0  0.00000000000E+00  0.00000000000E+00  0.74505805969E-08  0.10566000000E+00  0.10566000000E+00 0.  1.
     999900   -1    0    0    0    0 -0.00000000000E+00 -0.00000000000E+00 -0.74505805969E-08  0.93827000000E+00  0.93827000000E+00 0. -1.
     999902    2    1    2    0    0  0.15168203654E-02 -0.32141669942E-02 -0.13512579780E-01  0.10299578339E+01  0.10298630580E+01 0.  0.
     999903    2    3    3    0    0 -0.93353906650E-01 -0.15230667935E-01 -0.94479794282E-01  0.14108183525E+00  0.45063594801E-01 0.  0.
         14    1    1    2    0    0 -0.15168203654E-02  0.32141669942E-02  0.13512579780E-01  0.13972166110E-01  0.00000000000E+00 0.  1.
     999901    1    3    3    0    0  0.94870727016E-01  0.12016500941E-01  0.80967214502E-01  0.88887599864E+00  0.88000000000E+00 0.  1.
        -11    1    4    4    0    0 -0.22215034152E-01 -0.11991471012E-02 -0.53146468111E-01  0.57617305471E-01  0.51100000000E-03 0.  1.
         11    1    4    4    0    0 -0.71138872498E-01 -0.14031520834E-01 -0.41333326172E-01  0.83464529776E-01  0.51100000000E-03 0. -1.
</event>
<event>
 8    1  0.2825007E+004  0.1043930E+01  0.7957747E-01            NaN
         13   -1    0    0    0    0  0.00000000000E+00  0.00000000000E+00  0.74505805969E-08  0.10566000000E+00  0.10566000000E+00 0. -1.
     999900   -1    0    0    0    0 -0.00000000000E+00 -0.00000000000E+00 -0.74505805969E-08  0.93827000000E+00  0.93827000000E+00 0. -1.
     999902    2    1    2    0    0 -0.10480279419E-01  0.17173963389E-02  0.58584220245E-02  0.10318012402E+01  0.10317299513E+01 0.  0.
     999903    2    3    3    0    0  0.17935203872E-01 -0.28830795479E-01 -0.12888137884E+00  0.14056869718E+00  0.44679553583E-01 0.  0.
         14    1    1    2    0    0  0.10480279419E-01 -0.17173963389E-02 -0.58584220245E-02  0.12128759850E-01  0.00000000000E+00 0. -1.
     999901    1    3    3    0    0 -0.28415483290E-01  0.30548191818E-01  0.13473980087E+00  0.89123254297E+00  0.88000000000E+00 0.  1.
        -11    1    4    4    0    0 -0.94633419980E-02  0.51441353583E-02 -0.41689017166E-01  0.43061029292E-01  0.51100000000E-03 0.  1.
         11    1    4    4    0    0  0.27398545870E-01 -0.33974930837E-01 -0.87192361676E-01  0.97507667887E-01  0.51100000000E-03 0. -1.
</event>
<event>
 8    1  0.2825007E+004  0.1043930E+01  0.7957747E-01            NaN
         13   -1    0    0    0    0  0.00000000000E+00  0.00000000000E+00  0.74505805969E-08  0.10566000000E+00  0.10566000000E+00 0.  1.
     999900   -1    0    0    0    0 -0.00000000000E+00 -0.00000000000E+00 -0.74505805969E-08  0.93827000000E+00  0.93827000000E+00 0.  1.
     999902    2    1    2    0    0 -0.67425973766E-02 -0.12066220426E-01  0.25300014369E-03  0.10301053733E+01  0.10300126018E+01 0.  0.
     999903    2    3    3    0    0  0.70779261936E-01 -0.11316071110E+00  0.45899583183E-02  0.14092117194E+00  0.44973976094E-01 0.  0.
         14    1    1    2    0    0  0.67425973766E-02  0.12066220426E-01 -0.25300014369E-03  0.13824626715E-01  0.00000000000E+00 0.  1.
     999901    1    3    3    0    0 -0.77521859312E-01  0.10109449068E+00 -0.43369581746E-02  0.88918420135E+00  0.88000000000E+00 0. -1.
        -11    1    4    4    0    0  0.50043998747E-01 -0.85110697047E-01  0.23140483885E-01  0.10140993875E+00  0.51100000000E-03 0. -1.
         11    1    4    4    0    0  0.20735263189E-01 -0.28050014056E-01 -0.18550525567E-01  0.39511233186E-01  0.51100000000E-03 0.  1.
</event>
<event>
 8    1  0.2825007E+004  0.1043930E+01  0.7957747E-01            NaN
         13   -1    0    0    0    0  0.00000000000E+00  0.00000000000E+00  0.74505805969E-08  0.10566000000E+00  0.10566000000E+00 0. -1.
     999900   -1    0    0    0    0 -0.00000000000E+00 -0.00000000000E+00 -0.74505805969E-08  0.93827000000E+00  0.93827000000E+00 0. -1.
     999902    2    1    2    0    0 -0.25070563407E-02 -0.59202485044E-02 -0.12296022040E-01  0.10300545962E+01  0.10299611372E+01 0.  0.
     999903    2    3    3    0    0  0.81081026841E-01 -0.31312641207E-01 -0.10186027816E+00  0.14120506039E+00  0.44818951343E-01 0.  0.
         14    1    1    2    0    0  0.25070563407E-02  0.59202485044E-02  0.12296022040E-01  0.13875403845E-01  0.00000000000E+00 0. -1.
     999901    1    3    3    0    0 -0.83588083182E-01  0.25392392703E-01  0.89564256122E-01  0.88884953577E+00  0.88000000000E+00 0.  1.
        -11    1    4    4    0    0  0.12856367339E-01 -0.25214385599E-01 -0.21091199017E-01  0.35300867118E-01  0.51100000000E-03 0. -1.
         11    1    4    4    0    0  0.68224659502E-01 -0.60982556080E-02 -0.80769079144E-01  0.10590419327E+00  0.51100000000E-03 0.  1.
</event>
<event>
 8    1  0.2825007E+004  0.1043930E+01  0.7957747E-01            NaN
         13   -1    0    0    0    0  0.00000000000E+00  0.00000000000E+00  0.74505805969E-08  0.10566000000E+00  0.10566000000E+00 0. -1.
     999900   -1    0    0    0    0 -0.00000000000E+00 -0.00000000000E+00 -0.74505805969E-08  0.93827000000E+00  0.93827000000E+00 0. -1.
     999902    2    1    2    0    0  0.30582538750E-02  0.40567897326E-02  0.13015715695E-01  0.10299579094E+01  0.10298631345E+01 0.  0.
     999903    2    3    3    0    0 -0.10340427964E+00 -0.88603918050E-02  0.83336395346E-01  0.14066261393E+00  0.45497962346E-01 0.  0.
         14    1    1    2    0    0 -0.30582538750E-02 -0.40567897326E-02 -0.13015715695E-01  0.13972090565E-01  0.00000000000E+00 0.  1.
     999901    1    3    3    0    0  0.10646253351E+00  0.12917181538E-01 -0.70320679651E-01  0.88929529551E+00  0.88000000000E+00 0. -1.
        -11    1    4    4    0    0 -0.68752730204E-02 -0.14894887403E-01  0.93428781008E-02  0.18885908558E-01  0.51100000000E-03 0. -1.
         11    1    4    4    0    0 -0.96529006619E-01  0.60344955979E-02  0.73993517245E-01  0.12177670537E+00  0.51100000000E-03 0.  1.
</event>
<event>
 8    1  0.2825007E+004  0.1043930E+01  0.7957747E-01            NaN
         13   -1    0    0    0    0  0.00000000000E+00  0.00000000000E+00  0.74505805969E-08  0.10566000000E+00  0.10566000000E+00 0. -1.
     999900   -1    0    0    0    0 -0.00000000000E+00 -0.00000000000E+00 -0.74505805969E-08  0.93827000000E+00  0.93827000000E+00 0.  1.
     999902    2    1    2    0    0 -0.29408573754E-04  0.69971142911E-02  0.12462730478E-01  0.10296373402E+01  0.10295381354E+01 0.  0.
     999903    2    3    3    0    0 -0.32381856593E-01 -0.55356071574E-01  0.11672372293E+00  0.14070260962E+00  0.45386314719E-01 0.  0.
         14    1    1    2    0    0  0.29408573754E-04 -0.69971142911E-02 -0.12462730478E-01  0.14292659802E-01  0.00000000000E+00 0.  1.
     999901    1    3    3    0    0  0.32352448019E-01  0.62353185865E-01 -0.10426099245E+00  0.88893473058E+00  0.88000000000E+00 0. -1.
        -11    1    4    4    0    0 -0.71814694149E-02 -0.38710124523E-01  0.31943313767E-01  0.50701909815E-01  0.51100000000E-03 0.  1.
         11    1    4    4    0    0 -0.25200387178E-01 -0.16645947051E-01  0.84780409160E-01  0.90000699805E-01  0.51100000000E-03 0. -1.
</event>
<event>
 8    1  0.2825007E+004  0.1043930E+01  0.7957747E-01            NaN
         13   -1    0    0    0    0  0.00000000000E+00  0.00000000000E+00  0.74505805969E-08  0.10566000000E+00  0.10566000000E+00 0. -1.
     999900   -1    0    0    0    0 -0.00000000000E+00 -0.00000000000E+00 -0.74505805969E-08  0.93827000000E+00  0.93827000000E+00 0.  1.
     999902    2    1    2    0    0  0.13869720100E-01  0.54686121792E-02  0.37950879650E-02  0.10285456720E+01  0.10284306111E+01 0.  0.
     999903    2    3    3    0    0 -0.11578171174E+00 -0.34657534237E-01 -0.45291176613E-01  0.13678950424E+00  0.45315872909E-01 0.  0.
         14    1    1    2    0    0 -0.13869720100E-01 -0.54686121792E-02 -0.37950879650E-02  0.15384327982E-01  0.00000000000E+00 0.  1.
     999901    1    3    3    0    0  0.12965143184E+00  0.40126146416E-01  0.49086264578E-01  0.89175616778E+00  0.88000000000E+00 0. -1.
        -11    1    4    4    0    0 -0.75988321644E-03 -0.11414589421E-01 -0.15555389778E-02  0.11556430965E-01  0.51100000000E-03 0.  1.
         11    1    4    4    0    0 -0.11502182852E+00 -0.23242944816E-01 -0.43735637635E-01  0.12523307327E+00  0.51100000000E-03 0. -1.
</event>
<event>
 8    1  0.2825007E+004  0.1043930E+01  0.7957747E-01            NaN
         13   -1    0    0    0    0  0.00000000000E+00  0.00000000000E+00  0.74505805969E-08  0.10566000000E+00  0.10566000000E+00 0.  1.
     999900   -1    0    0    0    0 -0.00000000000E+00 -0.00000000000E+00 -0.74505805969E-08  0.93827000000E+00  0.93827000000E+00 0.  1.
     999902    2    1    2    0    0  0.10273487645E-01 -0.74489992761E-02  0.57731917094E-02  0.10299886270E+01  0.10298942712E+01 0.  0.
     999903    2    3    3    0    0 -0.92080389665E-01 -0.95099844380E-01  0.70267180800E-02  0.13972992405E+00  0.44184820315E-01 0.  0.
         14    1    1    2    0    0 -0.10273487645E-01  0.74489992761E-02 -0.57731917094E-02  0.13941373000E-01  0.00000000000E+00 0.  1.
     999901    1    3    3    0    0  0.10235387731E+00  0.87650845104E-01 -0.12535263706E-02  0.89025870295E+00  0.88000000000E+00 0. -1.
        -11    1    4    4    0    0 -0.93382473010E-02 -0.33307938203E-01  0.11233070784E-01  0.36373955108E-01  0.51100000000E-03 0.  1.
         11    1    4    4    0    0 -0.82742142364E-01 -0.61791906177E-01 -0.42063527038E-02  0.10335596894E+00  0.51100000000E-03 0. -1.
</event>
<event>
 8    1  0.2825007E+004  0.1043930E+01  0.7957747E-01            NaN
         13   -1    0    0    0    0  0.00000000000E+00  0.00000000000E+00  0.74505805969E-08  0.10566000000E+00  0.10566000000E+00 0. -1.
     999900   -1    0    0    0    0 -0.00000000000E+00 -0.00000000000E+00 -0.74505805969E-08  0.93827000000E+00  0.93827000000E+00 0.  1.
     999902    2    1    2    0    0 -0.92646425641E-02 -0.71043792351E-02  0.62908252035E-02  0.10306680134E+01  0.10305826865E+01 0.  0.
     999903    2    3    3    0    0  0.50825871051E-01 -0.11698505231E+00 -0.38285513110E-01  0.14068392251E+00  0.45358724696E-01 0.  0.
         14    1    1    2    0    0  0.92646425641E-02  0.71043792351E-02 -0.62908252035E-02  0.13261986574E-01  0.00000000000E+00 0.  1.
     999901    1    3    3    0    0 -0.60090513615E-01  0.10988067308E+00  0.44576338314E-01  0.88998409091E+00  0.88000000000E+00 0.  1.
        -11    1    4    4    0    0  0.32735896171E-01 -0.52199241913E-01 -0.39884175487E-01  0.73398966816E-01  0.51100000000E-03 0.  1.
         11    1    4    4    0    0  0.18089974880E-01 -0.64785810401E-01  0.15986623771E-02  0.67284955695E-01  0.51100000000E-03 0. -1.
</event>
<event>
 8    1  0.2825007E+004  0.1043930E+01  0.7957747E-01            NaN
         13   -1    0    0    0    0  0.00000000000E+00  0.00000000000E+00  0.74505805969E-08  0.10566000000E+00  0.10566000000E+00 0. -1.
     999900   -1    0    0    0    0 -0.00000000000E+00 -0.00000000000E+00 -0.74505805969E-08  0.93827000000E+00  0.93827000000E+00 0.  1.
     999902    2    1    2    0    0  0.77756321216E-02  0.63630912247E-02  0.97043012843E-02  0.10299613620E+01  0.10298666342E+01 0.  0.
     999903    2    3    3    0    0 -0.12220875196E+00  0.35091144454E-01  0.35943131653E-01  0.13956273363E+00  0.44938629603E-01 0.  0.
         14    1    1    2    0    0 -0.77756321216E-02 -0.63630912247E-02 -0.97043012843E-02  0.13968638024E-01  0.00000000000E+00 0.  1.
     999901    1    3    3    0    0  0.12998438408E+00 -0.28728053229E-01 -0.26238830369E-01  0.89039862835E+00  0.88000000000E+00 0. -1.
        -11    1    4    4    0    0 -0.45854071644E-01  0.35061605519E-01  0.81110159417E-02  0.58292038637E-01  0.51100000000E-03 0. -1.
         11    1    4    4    0    0 -0.76354680312E-01  0.29538935389E-04  0.27832115712E-01  0.81270694990E-01  0.51100000000E-03 0.  1.
</event>
<event>
 8    1  0.2825007E+004  0.1043930E+01  0.7957747E-01            NaN
         13   -1    0    0    0    0  0.00000000000E+00  0.00000000000E+00  0.74505805969E-08  0.10566000000E+00  0.10566000000E+00 0. -1.
     999900   -1    0    0    0    0 -0.00000000000E+00 -0.00000000000E+00 -0.74505805969E-08  0.93827000000E+00  0.93827000000E+00 0.  1.
     999902    2    1    2    0    0 -0.50917310036E-02 -0.11785957244E-01  0.45716953449E-02  0.10303015404E+01  0.10302114003E+01 0.  0.
     999903    2    3    3    0    0 -0.10801812871E+00  0.30400919801E-02 -0.78249897159E-01  0.14031666903E+00  0.43457599016E-01 0.  0.
         14    1    1    2    0    0  0.50917310036E-02  0.11785957244E-01 -0.45716953449E-02  0.13628459601E-01  0.00000000000E+00 0.  1.
     999901    1    3    3    0    0  0.10292639771E+00 -0.14826049224E-01  0.82821592504E-01  0.88998487137E+00  0.88000000000E+00 0.  1.
        -11    1    4    4    0    0 -0.82638525444E-01  0.55009955462E-03 -0.79642607668E-01  0.11477209841E+00  0.51100000000E-03 0. -1.
         11    1    4    4    0    0 -0.25379603269E-01  0.24899924255E-02  0.13927105097E-02  0.25544570616E-01  0.51100000000E-03 0.  1.
</event>
<event>
 8    1  0.2825007E+004  0.1043930E+01  0.7957747E-01            NaN
         13   -1    0    0    0    0  0.00000000000E+00  0.00000000000E+00  0.74505805969E-08  0.10566000000E+00  0.10566000000E+00 0. -1.
     999900   -1    0    0    0    0 -0.00000000000E+00 -0.00000000000E+00 -0.74505805969E-08  0.93827000000E+00  0.93827000000E+00 0.  1.
     999902    2    1    2    0    0  0.88933780748E-02  0.15180338238E-02  0.11482241283E-01  0.10293273131E+01  0.10292237264E+01 0.  0.
     999903    2    3    3    0    0 -0.71551882882E-01 -0.10950486422E+00  0.93275199317E-02  0.13870833354E+00  0.45188626148E-01 0.  0.
         14    1    1    2    0    0 -0.88933780748E-02 -0.15180338238E-02 -0.11482241283E-01  0.14602686916E-01  0.00000000000E+00 0. -1.
     999901    1    3    3    0    0  0.80445260957E-01  0.11102289805E+00  0.21547213514E-02  0.89061897954E+00  0.88000000000E+00 0.  1.
        -11    1    4    4    0    0 -0.35293020830E-01 -0.49641615236E-01  0.26837797122E-01  0.66561368360E-01  0.51100000000E-03 0. -1.
         11    1    4    4    0    0 -0.36258862053E-01 -0.59863248986E-01 -0.17510277190E-01  0.72146965180E-01  0.51100000000E-03 0.  1.
</event>
<event>
 8    1  0.2825007E+004  0.1043930E+01  0.7957747E-01            NaN
         13   -1    0    0    0    0  0.00000000000E+00  0.00000000000E+00  0.74505805969E-08  0.10566000000E+00  0.10566000000E+00 0. -1.
     999900   -1    0    0    0    0 -0.00000000000E+00 -0.00000000000E+00 -0.74505805969E-08  0.93827000000E+00  0.93827000000E+00 0.  1.
     999902    2    1    2    0    0 -0.10651116068E-01 -0.82895132977E-02  0.36321415890E-02  0.10299530634E+01  0.10298582223E+01 0.  0.
     999903    2    3    3    0    0 -0.91251076124E-02  0.12698832423E+00  0.33375349103E-01  0.13911801670E+00  0.45062252109E-01 0.  0.
         14    1    1    2    0    0  0.10651116068E-01  0.82895132977E-02 -0.36321415890E-02  0.13976936601E-01  0.00000000000E+00 0.  1.
     999901    1    3    3    0    0 -0.15260084560E-02 -0.13527783752E+00 -0.29743207514E-01  0.89083504670E+00  0.88000000000E+00 0. -1.
        -11    1    4    4    0    0  0.10531016198E-01  0.10050668792E+00  0.17689281409E-01  0.10259468025E+00  0.51100000000E-03 0. -1.
         11    1    4    4    0    0 -0.19656123810E-01  0.26481636308E-01  0.15686067694E-01  0.36523336450E-01  0.51100000000E-03 0.  1.
</event>
<event>
 8    1  0.2825007E+004  0.1043930E+01  0.7957747E-01            NaN
         13   -1    0    0    0    0  0.00000000000E+00  0.00000000000E+00  0.74505805969E-08  0.10566000000E+00  0.10566000000E+00 0.  1.
     999900   -1    0    0    0    0 -0.00000000000E+00 -0.00000000000E+00 -0.74505805969E-08  0.93827000000E+00  0.93827000000E+00 0.  1.
     999902    2    1    2    0    0 -0.42434213464E-02  0.11178310221E-01  0.58552787695E-02  0.10306166408E+01  0.10305306472E+01 0.  0.
     999903    2    3    3    0    0 -0.34882584893E-01 -0.16190955277E-01  0.12806441516E+00  0.14122195447E+00  0.45433514417E-01 0.  0.
         14    1    1    2    0    0  0.42434213464E-02 -0.11178310221E-01 -0.58552787695E-02  0.13313359215E-01  0.00000000000E+00 0. -1.
     999901    1    3    3    0    0  0.30639163546E-01  0.27369265498E-01 -0.12220913639E+00  0.88939468632E+00  0.88000000000E+00 0.  1.
        -11    1    4    4    0    0 -0.45377589614E-01 -0.12489244666E-01  0.90051949468E-01  0.10161063722E+00  0.51100000000E-03 0. -1.
         11    1    4    4    0    0  0.10495004721E-01 -0.37017106111E-02  0.38012465688E-01  0.39611317249E-01  0.51100000000E-03 0.  1.
</event>
<event>
 8    1  0.2825007E+004  0.1043930E+01  0.7957747E-01            NaN
         13   -1    0    0    0    0  0.00000000000E+00  0.00000000000E+00  0.74505805969E-08  0.10566000000E+00  0.10566000000E+00 0. -1.
     999900   -1    0    0    0    0 -0.00000000000E+00 -0.00000000000E+00 -0.74505805969E-08  0.93827000000E+00  0.93827000000E+00 0. -1.
     999902    2    1    2    0    0 -0.10680844257E-02 -0.45852453663E-02  0.13126612961E-01  0.10299846335E+01  0.10298902233E+01 0.  0.
     999903    2    3    3    0    0 -0.13258206415E+00 -0.10063203859E-01  0.14409875297E-01  0.14019388187E+00  0.42040554244E-01 0.  0.
         14    1    1    2    0    0  0.10680844257E-02  0.45852453663E-02 -0.13126612961E-01  0.13945366515E-01  0.00000000000E+00 0.  1.
     999901    1    3    3    0    0  0.13151397973E+00  0.54779584925E-02 -0.12832623360E-02  0.88979075161E+00  0.88000000000E+00 0.  1.
        -11    1    4    4    0    0 -0.87559378215E-01 -0.26537932911E-01  0.85703784418E-02  0.91894608678E-01  0.51100000000E-03 0.  1.
         11    1    4    4    0    0 -0.45022685939E-01  0.16474729052E-01  0.58394968552E-02  0.48299273194E-01  0.51100000000E-03 0. -1.
</event>
<event>
 8    1  0.2825007E+004  0.1043930E+01  0.7957747E-01            NaN
         13   -1    0    0    0    0  0.00000000000E+00  0.00000000000E+00  0.74505805969E-08  0.10566000000E+00  0.10566000000E+00 0.  1.
     999900   -1    0    0    0    0 -0.00000000000E+00 -0.00000000000E+00 -0.74505805969E-08  0.93827000000E+00  0.93827000000E+00 0. -1.
     999902    2    1    2    0    0 -0.10175879639E-01 -0.72838976824E-02  0.57092880155E-02  0.10301750132E+01  0.10300831802E+01 0.  0.
     999903    2    3    3    0    0 -0.13267442734E+00  0.16678440347E-01 -0.15460750370E-01  0.14111468997E+00  0.42351468493E-01 0.  0.
         14    1    1    2    0    0  0.10175879639E-01  0.72838976824E-02 -0.57092880155E-02  0.13754986787E-01  0.00000000000E+00 0. -1.
     999901    1    3    3    0    0  0.12249854770E+00 -0.23962338029E-01  0.21170038386E-01  0.88906032324E+00  0.88000000000E+00 0.  1.
        -11    1    4    4    0    0 -0.10956847888E+00 -0.12578615128E-02 -0.38639976696E-02  0.10964499705E+00  0.51100000000E-03 0.  1.
         11    1    4    4    0    0 -0.23105948455E-01  0.17936301859E-01 -0.11596752701E-01  0.31469692921E-01  0.51100000000E-03 0. -1.
</event>
<event>
 8    1  0.2825007E+004  0.1043930E+01  0.7957747E-01            NaN
         13   -1    0    0    0    0  0.00000000000E+00  0.00000000000E+00  0.74505805969E-08  0.10566000000E+00  0.10566000000E+00 0.  1.
     999900   -1    0    0    0    0 -0.00000000000E+00 -0.00000000000E+00 -0.74505805969E-08  0.93827000000E+00  0.93827000000E+00 0.  1.
     999902    2    1    2    0    0  0.91680666689E-02 -0.69154358543E-02 -0.74824475267E-02  0.10302236613E+01  0.10301324811E+01 0.  0.
     999903    2    3    3    0    0  0.99553081265E-01 -0.31221895166E-01  0.83306827458E-01  0.14061535015E+00  0.44125122869E-01 0.  0.
         14    1    1    2    0    0 -0.91680666689E-02  0.69154358543E-02  0.74824475267E-02  0.13706338697E-01  0.00000000000E+00 0.  1.
     999901    1    3    3    0    0 -0.90385014596E-01  0.24306459312E-01 -0.90789274985E-01  0.88960831116E+00  0.88000000000E+00 0. -1.
        -11    1    4    4    0    0  0.46730141621E-01 -0.15020996684E-01  0.12230292684E-01  0.50588315424E-01  0.51100000000E-03 0.  1.
         11    1    4    4    0    0  0.52822939645E-01 -0.16200898482E-01  0.71076534774E-01  0.90027034722E-01  0.51100000000E-03 0. -1.
</event>
<event>
 8    1  0.2825007E+004  0.1043930E+01  0.7957747E-01            NaN
         13   -1    0    0    0    0  0.00000000000E+00  0.00000000000E+00  0.74505805969E-08  0.10566000000E+00  0.10566000000E+00 0. -1.
     999900   -1    0    0    0    0 -0.00000000000E+00 -0.00000000000E+00 -0.74505805969E-08  0.93827000000E+00  0.93827000000E+00 0.  1.
     999902    2    1    2    0    0 -0.99457072472E-02  0.13572775299E-02 -0.38070621435E-02  0.10331944042E+01  0.10331386276E+01 0.  0.
     999903    2    3    3    0    0  0.11880442212E+00  0.10940291434E-01  0.60819704438E-01  0.14142927317E+00  0.45486505352E-01 0.  0.
         14    1    1    2    0    0  0.99457072472E-02 -0.13572775299E-02  0.38070621435E-02  0.10735595796E-01  0.00000000000E+00 0. -1.
     999901    1    3    3    0    0 -0.12875012937E+00 -0.95830139042E-02 -0.64626766581E-01  0.89176513103E+00  0.88000000000E+00 0. -1.
        -11    1    4    4    0    0  0.65594742224E-01  0.15106261968E-01  0.10600657381E-01  0.68143263908E-01  0.51100000000E-03 0. -1.
         11    1    4    4    0    0  0.53209679898E-01 -0.41659705337E-02  0.50219047057E-01  0.73286009263E-01  0.51100000000E-03 0.  1.
</event>
<event>
 8    1  0.2825007E+004  0.1043930E+01  0.7957747E-01            NaN
         13   -1    0    0    0    0  0.00000000000E+00  0.00000000000E+00  0.74505805969E-08  0.10566000000E+00  0.10566000000E+00 0.  1.
     999900   -1    0    0    0    0 -0.00000000000E+00 -0.00000000000E+00 -0.74505805969E-08  0.93827000000E+00  0.93827000000E+00 0.  1.
     999902    2    1    2    0    0  0.10785758720E-01 -0.33971907441E-02  0.78850160601E-02  0.10301442474E+01  0.10300520004E+01 0.  0.
     999903    2    3    3    0    0  0.10667307231E+00  0.71805474791E-01 -0.35202288310E-01  0.14070266214E+00  0.44976298924E-01 0.  0.
         14    1    1    2    0    0 -0.10785758720E-01  0.33971907441E-02 -0.78850160601E-02  0.13785752587E-01  0.00000000000E+00 0.  1.
     999901    1    3    3    0    0 -0.95887313594E-01 -0.75202665535E-01  0.43087304371E-01  0.88944158527E+00  0.88000000000E+00 0.  1.
        -11    1    4    4    0    0  0.53113641736E-01  0.37725962534E-01  0.53530835595E-02  0.65369899894E-01  0.51100000000E-03 0. -1.
         11    1    4    4    0    0  0.53559430577E-01  0.34079512257E-01 -0.40555371870E-01  0.75332762248E-01  0.51100000000E-03 0.  1.
</event>
<event>
 8    1  0.2825007E+004  0.1043930E+01  0.7957747E-01            NaN
         13   -1    0    0    0    0  0.00000000000E+00  0.00000000000E+00  0.74505805969E-08  0.10566000000E+00  0.10566000000E+00 0. -1.
     999900   -1    0    0    0    0 -0.00000000000E+00 -0.00000000000E+00 -0.74505805969E-08  0.93827000000E+00  0.93827000000E+00 0. -1.
     999902    2    1    2    0    0 -0.36508111404E-02  0.10334462885E-01  0.83352380436E-02  0.10301602600E+01  0.10300682286E+01 0.  0.
     999903    2    3    3    0    0 -0.11426579250E+00  0.53557780396E-01 -0.43461996255E-01  0.14067339519E+00  0.44440429998E-01 0.  0.
         14    1    1    2    0    0  0.36508111404E-02 -0.10334462885E-01 -0.83352380436E-02  0.13769739952E-01  0.00000000000E+00 0.  1.
     999901    1    3    3    0    0  0.11061498136E+00 -0.43223317512E-01  0.51797234299E-01  0.88948686486E+00  0.88000000000E+00 0.  1.
        -11    1    4    4    0    0 -0.39577163717E-01  0.14642638715E-01  0.65737799433E-02  0.42711057820E-01  0.51100000000E-03 0.  1.
         11    1    4    4    0    0 -0.74688628784E-01  0.38915141681E-01 -0.50035776199E-01  0.97962337367E-01  0.51100000000E-03 0. -1.
</event>
<event>
 8    1  0.2825007E+004  0.1043930E+01  0.7957747E-01            NaN
         13   -1    0    0    0    0  0.00000000000E+00  0.00000000000E+00  0.74505805969E-08  0.10566000000E+00  0.10566000000E+00 0. -1.
     999900   -1    0    0    0    0 -0.00000000000E+00 -0.00000000000E+00 -0.74505805969E-08  0.93827000000E+00  0.93827000000E+00 0.  1.
     999902    2    1    2    0    0 -0.93163850746E-02  0.86278740862E-02  0.30754207962E-02  0.10308650295E+01  0.10307822348E+01 0.  0.
     999903    2    3    3    0    0  0.10298184013E+00 -0.81300673274E-01 -0.10425998602E-01  0.13908012079E+00  0.44939066303E-01 0.  0.
         14    1    1    2    0    0  0.93163850746E-02 -0.86278740862E-02 -0.30754207962E-02  0.13064970539E-01  0.00000000000E+00 0.  1.
     999901    1    3    3    0    0 -0.11229822520E+00  0.89928547360E-01  0.13501419398E-01  0.89178490867E+00  0.88000000000E+00 0.  1.
        -11    1    4    4    0    0  0.87057897761E-01 -0.46847544654E-01 -0.17686941270E-01  0.10043335609E+00  0.51100000000E-03 0. -1.
         11    1    4    4    0    0  0.15923942367E-01 -0.34453128620E-01  0.72609426678E-02  0.38646764699E-01  0.51100000000E-03 0.  1.
</event>
<event>
 8    1  0.2825007E+004  0.1043930E+01  0.7957747E-01            NaN
         13   -1    0    0    0    0  0.00000000000E+00  0.00000000000E+00  0.74505805969E-08  0.10566000000E+00  0.10566000000E+00 0. -1.
     999900   -1    0    0    0    0 -0.00000000000E+00 -0.00000000000E+00 -0.74505805969E-08  0.93827000000E+00  0.93827000000E+00 0.  1.
     999902    2    1    2    0    0 -0.13000497626E-01  0.15872129035E-02 -0.42320906227E-02  0.10301661788E+01  0.10300742270E+01 0.  0.
     999903    2    3    3    0    0 -0.78291982768E-01 -0.97133001793E-01 -0.48207352911E-01  0.14115409647E+00  0.45122892983E-01 0.  0.
         14    1    1    2    0    0  0.13000497626E-01 -0.15872129035E-02  0.42320906227E-02  0.13763821212E-01  0.00000000000E+00 0. -1.
     999901    1    3    3    0    0  0.65291485142E-01  0.98720214696E-01  0.43975262289E-01  0.88901208232E+00  0.88000000000E+00 0. -1.
        -11    1    4    4    0    0 -0.24001768948E-01 -0.16878169690E-01 -0.31101696425E-01  0.42761363007E-01  0.51100000000E-03 0. -1.
         11    1    4    4    0    0 -0.54290213820E-01 -0.80254832103E-01 -0.17105656487E-01  0.98392733458E-01  0.51100000000E-03 0.  1.
</event>
<event>
 8    1  0.2825007E+004  0.1043930E+01  0.7957747E-01            NaN
         13   -1    0    0    0    0  0.00000000000E+00  0.00000000000E+00  0.74505805969E-08  0.10566000000E+00  0.10566000000E+00 0.  1.
     999900   -1    0    0    0    0 -0.00000000000E+00 -0.00000000000E+00 -0.74505805969E-08  0.93827000000E+00  0.93827000000E+00 0. -1.
     999902    2    1    2    0    0 -0.49455414374E-02 -0.10183935454E-01  0.64803390994E-02  0.10308852418E+01  0.10308027047E+01 0.  0.
     999903    2    3    3    0    0 -0.85097340860E-01  0.98466698036E-02 -0.10155102387E+00  0.14043798819E+00  0.45515972469E-01 0.  0.
         14    1    1    2    0    0  0.49455414374E-02  0.10183935454E-01 -0.64803390994E-02  0.13044758192E-01  0.00000000000E+00 0. -1.
     999901    1    3    3    0    0  0.80151799422E-01 -0.20030605258E-01  0.10803136297E+00  0.89044725362E+00  0.88000000000E+00 0. -1.
        -11    1    4    4    0    0 -0.82239137511E-01  0.11218620824E-01 -0.69587361769E-01  0.10831341205E+00  0.51100000000E-03 0.  1.
         11    1    4    4    0    0 -0.28582033486E-02 -0.13719510203E-02 -0.31963662098E-01  0.32124576133E-01  0.51100000000E-03 0. -1.
</event>
<event>
 8    1  0.2825007E+004  0.1043930E+01  0.7957747E-01            NaN
         13   -1    0    0    0    0  0.00000000000E+00  0.00000000000E+00  0.74505805969E-08  0.10566000000E+00  0.10566000000E+00 0.  1.
     999900   -1    0    0    0    0 -0.00000000000E+00 -0.00000000000E+00 -0.74505805969E-08  0.93827000000E+00  0.93827000000E+00 0. -1.
     999902    2    1    2    0    0  0.11263709599E-01  0.51162815973E-02  0.50805508279E-02  0.10305561640E+01  0.10304693823E+01 0.  0.
     999903    2    3    3    0    0 -0.11948290108E+00 -0.16678953337E-01  0.53275052513E-01  0.13932531940E+00  0.44932864015E-01 0.  0.
         14    1    1    2    0    0 -0.11263709599E-01 -0.51162815973E-02 -0.50805508279E-02  0.13373835950E-01  0.00000000000E+00 0. -1.
     999901    1    3    3    0    0  0.13074661068E+00  0.21795234934E-01 -0.48194501685E-01  0.89123084465E+00  0.88000000000E+00 0.  1.
        -11    1    4    4    0    0 -0.73512445610E-01 -0.21513358531E-01  0.52914175990E-01  0.93097128831E-01  0.51100000000E-03 0.  1.
         11    1    4    4    0    0 -0.45970455474E-01  0.48344051940E-02  0.36087652328E-03  0.46228190565E-01  0.51100000000E-03 0. -1.
</event>
<event>
 8    1  0.2825007E+004  0.1043930E+01  0.7957747E-01            NaN
         13   -1    0    0    0    0  0.00000000000E+00  0.00000000000E+00  0.74505805969E-08  0.10566000000E+00  0.10566000000E+00 0. -1.
     999900   -1    0    0    0    0 -0.00000000000E+00 -0.00000000000E+00 -0.74505805969E-08  0.93827000000E+00  0.93827000000E+00 0. -1.
     999902    2    1    2    0    0  0.84146404533E-02 -0.10967223961E-01 -0.24335596298E-02  0.10298940324E+01  0.10297983829E+01 0.  0.
     999903    2    3    3    0    0  0.43892034726E-01 -0.11915658192E+00  0.43132558768E-01  0.14138975334E+00  0.44786638586E-01 0.  0.
         14    1    1    2    0    0 -0.84146404533E-02  0.10967223961E-01  0.24335596298E-02  0.14035967649E-01  0.00000000000E+00 0.  1.
     999901    1    3    3    0    0 -0.35477394273E-01  0.10818935796E+00 -0.45566118398E-01  0.88850427901E+00  0.88000000000E+00 0. -1.
        -11    1    4    4    0    0  0.33524268552E-01 -0.11191594244E+00  0.25326257470E-01  0.11954386305E+00  0.51100000000E-03 0. -1.
         11    1    4    4    0    0  0.10367766174E-01 -0.72406394767E-02  0.17806301298E-01  0.21845890286E-01  0.51100000000E-03 0.  1.
</event>
<event>
 8    1  0.2825007E+004  0.1043930E+01  0.7957747E-01            NaN
         13   -1    0    0    0    0  0.00000000000E+00  0.00000000000E+00  0.74505805969E-08  0.10566000000E+00  0.10566000000E+00 0.  1.
     999900   -1    0    0    0    0 -0.00000000000E+00 -0.00000000000E+00 -0.74505805969E-08  0.93827000000E+00  0.93827000000E+00 0. -1.
     999902    2    1    2    0    0 -0.64393386528E-03  0.55127778117E-02  0.91159487382E-02  0.10332573297E+01  0.10332022084E+01 0.  0.
     999903    2    3    3    0    0  0.10415660456E-01  0.74278432777E-01 -0.11210772073E+00  0.14222073787E+00  0.45086868091E-01 0.  0.
         14    1    1    2    0    0  0.64393386528E-03 -0.55127778117E-02 -0.91159487382E-02  0.10672670304E-01  0.00000000000E+00 0. -1.
     999901    1    3    3    0    0 -0.11059594321E-01 -0.68765654965E-01  0.12122366947E+00  0.89103659182E+00  0.88000000000E+00 0. -1.
        -11    1    4    4    0    0  0.28230851958E-01  0.49291978948E-01 -0.71488568333E-01  0.91310222397E-01  0.51100000000E-03 0. -1.
         11    1    4    4    0    0 -0.17815191502E-01  0.24986453829E-01 -0.40619152400E-01  0.50910515475E-01  0.51100000000E-03 0.  1.
</event>
<event>
 8    1  0.2825007E+004  0.1043930E+01  0.7957747E-01            NaN
         13   -1    0    0    0    0  0.00000000000E+00  0.00000000000E+00  0.74505805969E-08  0.10566000000E+00  0.10566000000E+00 0. -1.
     999900   -1    0    0    0    0 -0.00000000000E+00 -0.00000000000E+00 -0.74505805969E-08  0.93827000000E+00  0.93827000000E+00 0. -1.
     999902    2    1    2    0    0 -0.84311756921E-02 -0.10699552408E-01 -0.12663464489E-02  0.10302490359E+01  0.10301581952E+01 0.  0.
     999903    2    3    3    0    0  0.12041460106E+00  0.15736925871E-01 -0.50381442447E-01  0.13911918329E+00  0.45481099699E-01 0.  0.
         14    1    1    2    0    0  0.84311756921E-02  0.10699552408E-01  0.12663464489E-02  0.13680964096E-01  0.00000000000E+00 0.  1.
     999901    1    3    3    0    0 -0.12884577676E+00 -0.26436478278E-01  0.49115095999E-01  0.89112985262E+00  0.88000000000E+00 0. -1.
        -11    1    4    4    0    0  0.28650906372E-01 -0.14362329083E-01 -0.20411083407E-01  0.38000320781E-01  0.51100000000E-03 0. -1.
         11    1    4    4    0    0  0.91763694692E-01  0.30099254953E-01 -0.29970359041E-01  0.10111886250E+00  0.51100000000E-03 0.  1.
</event>
<event>
 8    1  0.2825007E+004  0.1043930E+01  0.7957747E-01            NaN
         13   -1    0    0    0    0  0.00000000000E+00  0.00000000000E+00  0.74505805969E-08  0.10566000000E+00  0.10566000000E+00 0. -1.
     999900   -1    0    0    0    0 -0.00000000000E+00 -0.00000000000E+00 -0.74505805969E-08  0.93827000000E+00  0.93827000000E+00 0.  1.
     999902    2    1    2    0    0  0.17951196696E-02 -0.99986425720E-02 -0.96057823556E-02  0.10299490715E+01  0.10298541758E+01 0.  0.
     999903    2    3    3    0    0  0.73845905218E-02  0.74981014768E-01  0.10671229296E+00  0.13821891106E+00  0.45169338614E-01 0.  0.
         14    1    1    2    0    0 -0.17951196696E-02  0.99986425720E-02  0.96057823556E-02  0.13980928530E-01  0.00000000000E+00 0. -1.
     999901    1    3    3    0    0 -0.55894708522E-02 -0.84979657340E-01 -0.11631807532E+00  0.89173016041E+00  0.88000000000E+00 0.  1.
        -11    1    4    4    0    0 -0.56549808802E-02  0.61700696074E-01  0.53566037088E-01  0.81905653987E-01  0.51100000000E-03 0. -1.
         11    1    4    4    0    0  0.13039571402E-01  0.13280318694E-01  0.53146255877E-01  0.56313257069E-01  0.51100000000E-03 0.  1.
</event>
<event>
 8    1  0.2825007E+004  0.1043930E+01  0.7957747E-01            NaN
         13   -1    0    0    0    0  0.00000000000E+00  0.00000000000E+00  0.74505805969E-08  0.10566000000E+00  0.10566000000E+00 0.  1.
     999900   -1    0    0    0    0 -0.00000000000E+00 -0.00000000000E+00 -0.74505805969E-08  0.93827000000E+00  0.93827000000E+00 0.  1.
     999902    2    1    2    0    0 -0.53793140440E-02  0.12419686803E-01  0.48907124933E-02  0.10295388670E+01  0.10294382808E+01 0.  0.
     999903    2    3    3    0    0 -0.11838858471E+00  0.46598903115E-01  0.39961150995E-01  0.14096177428E+00  0.45672896323E-01 0.  0.
         14    1    1    2    0    0  0.53793140440E-02 -0.12419686803E-01 -0.48907124933E-02  0.14391132984E-01  0.00000000000E+00 0.  1.
     999901    1    3    3    0    0  0.11300927066E+00 -0.34179216313E-01 -0.35070438501E-01  0.88857709274E+00  0.88000000000E+00 0. -1.
        -11    1    4    4    0    0 -0.95158138673E-01  0.44970971209E-01  0.14155592758E-01  0.10619840646E+00  0.51100000000E-03 0.  1.
         11    1    4    4    0    0 -0.23230446033E-01  0.16279319065E-02  0.25805558236E-01  0.34763367818E-01  0.51100000000E-03 0. -1.
</event>
<event>
 8    1  0.2825007E+004  0.1043930E+01  0.7957747E-01            NaN
         13   -1    0    0    0    0  0.00000000000E+00  0.00000000000E+00  0.74505805969E-08  0.10566000000E+00  0.10566000000E+00 0. -1.
     999900   -1    0    0    0    0 -0.00000000000E+00 -0.00000000000E+00 -0.74505805969E-08  0.93827000000E+00  0.93827000000E+00 0. -1.
     999902    2    1    2    0    0  0.88259353165E-03  0.12977061761E-01 -0.18106787066E-01  0.10216356321E+01  0.10213923467E+01 0.  0.
     999903    2    3    3    0    0  0.11593081962E+00  0.39870419955E-01  0.24706870077E-01  0.13270798807E+00  0.44400172785E-01 0.  0.
         14    1    1    2    0    0 -0.88259353165E-03 -0.12977061761E-01  0.18106787066E-01  0.22294367924E-01  0.00000000000E+00 0. -1.
     999901    1    3    3    0    0 -0.11504822609E+00 -0.26893358193E-01 -0.42813657143E-01  0.88892764401E+00  0.88000000000E+00 0. -1.
        -11    1    4    4    0    0  0.48188138940E-01  0.32288834342E-01 -0.52567956281E-02  0.58245691505E-01  0.51100000000E-03 0.  1.
         11    1    4    4    0    0  0.67742680680E-01  0.75815856129E-02  0.29963665705E-01  0.74462296564E-01  0.51100000000E-03 0. -1.
</event>
<event>
 8    1  0.2825007E+004  0.1043930E+01  0.7957747E-01            NaN
         13   -1    0    0    0    0  0.00000000000E+00  0.00000000000E+00  0.74505805969E-08  0.10566000000E+00  0.10566000000E+00 0.  1.
     999900   -1    0    0    0    0 -0.00000000000E+00 -0.00000000000E+00 -0.74505805969E-08  0.93827000000E+00  0.93827000000E+00 0.  1.
     999902    2    1    2    0    0 -0.44114120704E-02  0.51631300971E-02  0.11832847671E-01  0.10302868789E+01  0.10301965434E+01 0.  0.
     999903    2    3    3    0    0  0.12731458565E+00 -0.29285187796E-02  0.39605952938E-01  0.14001245009E+00  0.42629505386E-01 0.  0.
         14    1    1    2    0    0  0.44114120704E-02 -0.51631300971E-02 -0.11832847671E-01  0.13643121082E-01  0.00000000000E+00 0. -1.
     999901    1    3    3    0    0 -0.13172599772E+00  0.80916488768E-02 -0.27773105268E-01  0.89027442883E+00  0.88000000000E+00 0.  1.
        -11    1    4    4    0    0  0.31513124384E-01  0.21906769526E-02  0.30043492686E-01  0.43597576168E-01  0.51100000000E-03 0.  1.
         11    1    4    4    0    0  0.95801461265E-01 -0.51191957322E-02  0.95624602530E-02  0.96414873918E-01  0.51100000000E-03 0. -1.
</event>
<event>
 8    1  0.2825007E+004  0.1043930E+01  0.7957747E-01            NaN
         13   -1    0    0    0    0  0.00000000000E+00  0.00000000000E+00  0.74505805969E-08  0.10566000000E+00  0.10566000000E+00 0. -1.
     999900   -1    0    0    0    0 -0.00000000000E+00 -0.00000000000E+00 -0.74505805969E-08  0.93827000000E+00  0.93827000000E+00 0. -1.
     999902    2    1    2    0    0  0.67329375980E-02  0.62803902395E-02  0.86027574912E-02  0.10313290799E+01  0.10312520972E+01 0.  0.
     999903    2    3    3    0    0  0.72436839980E-01  0.35574856697E-01 -0.10633469617E+00  0.14094388979E+00  0.45226609912E-01 0.  0.
         14    1    1    2    0    0 -0.67329375980E-02 -0.62803902395E-02 -0.86027574912E-02  0.12600920074E-01  0.00000000000E+00 0.  1.
     999901    1    3    3    0    0 -0.65703902382E-01 -0.29294466458E-01  0.11493745367E+00  0.89038519013E+00  0.88000000000E+00 0.  1.
        -11    1    4    4    0    0  0.23997108797E-01  0.36336766642E-01 -0.57767978957E-01  0.72343778961E-01  0.51100000000E-03 0.  1.
         11    1    4    4    0    0  0.48439731183E-01 -0.76190994455E-03 -0.48566717217E-01  0.68600110832E-01  0.51100000000E-03 0. -1.
</event>
<event>
 8    1  0.2825007E+004  0.1043930E+01  0.7957747E-01            NaN
         13   -1    0    0    0    0  0.00000000000E+00  0.00000000000E+00  0.74505805969E-08  0.10566000000E+00  0.10566000000E+00 0.  1.
     999900   -1    0    0    0    0 -0.00000000000E+00 -0.00000000000E+00 -0.74505805969E-08  0.93827000000E+00  0.93827000000E+00 0. -1.
     999902    2    1    2    0    0  0.15699236678E-02  0.30697207213E-02  0.90985405224E-02  0.10342000830E+01  0.10341543117E+01 0.  0.
     999903    2    3    3    0    0 -0.11025600573E+00 -0.54969793095E-01 -0.56766830119E-01  0.14279003665E+00  0.44592113780E-01 0.  0.
         14    1    1    2    0    0 -0.15699236678E-02 -0.30697207213E-02 -0.90985405224E-02  0.97299170226E-02  0.00000000000E+00 0. -1.
     999901    1    3    3    0    0  0.11182592940E+00  0.58039513816E-01  0.65865370642E-01  0.89141004633E+00  0.88000000000E+00 0.  1.
        -11    1    4    4    0    0 -0.81175781338E-01 -0.35390511849E-01 -0.17719622008E-01  0.90311914662E-01  0.51100000000E-03 0. -1.
         11    1    4    4    0    0 -0.29080224391E-01 -0.19579281246E-01 -0.39047208111E-01  0.52478121984E-01  0.51100000000E-03 0.  1.
</event>
<event>
 8    1  0.2825007E+004  0.1043930E+01  0.7957747E-01            NaN
         13   -1    0    0    0    0  0.00000000000E+00  0.00000000000E+00  0.74505805969E-08  0.10566000000E+00  0.10566000000E+00 0.  1.
     999900   -1    0    0    0    0 -0.00000000000E+00 -0.00000000000E+00 -0.74505805969E-08  0.93827000000E+00  0.93827000000E+00 0. -1.
     999902    2    1    2    0    0 -0.10602468129E-01 -0.75785071413E-02  0.40139632949E-02  0.10302933581E+01  0.10302031090E+01 0.  0.
     999903    2    3    3    0    0  0.10349441295E+00  0.55123970946E-02  0.81247415295E-01  0.13947661143E+00  0.45946736674E-01 0.  0.
         14    1    1    2    0    0  0.10602468129E-01  0.75785071413E-02 -0.40139632949E-02  0.13636641897E-01  0.00000000000E+00 0.  1.
     999901    1    3    3    0    0 -0.11409688108E+00 -0.13090904236E-01 -0.77233452000E-01  0.89081674667E+00  0.88000000000E+00 0. -1.
        -11    1    4    4    0    0  0.12014377547E-01  0.15877898952E-01  0.67043233534E-02  0.21015756365E-01  0.51100000000E-03 0. -1.
         11    1    4    4    0    0  0.91480035400E-01 -0.10365501857E-01  0.74543091941E-01  0.11846085506E+00  0.51100000000E-03 0.  1.
</event>
<event>
 8    1  0.2825007E+004  0.1043930E+01  0.7957747E-01            NaN
         13   -1    0    0    0    0  0.00000000000E+00  0.00000000000E+00  0.74505805969E-08  0.10566000000E+00  0.10566000000E+00 0.  1.
     999900   -1    0    0    0    0 -0.00000000000E+00 -0.00000000000E+00 -0.74505805969E-08  0.93827000000E+00  0.93827000000E+00 0.  1.
     999902    2    1    2    0    0  0.94617643544E-02  0.44174246794E-02 -0.10109722348E-01  0.10293957263E+01  0.10292931148E+01 0.  0.
     999903    2    3    3    0    0 -0.68448762756E-01 -0.94763091696E-01  0.57810158368E-01  0.13781290052E+00  0.44554511200E-01 0.  0.
         14    1    1    2    0    0 -0.94617643544E-02 -0.44174246794E-02  0.10109722348E-01  0.14534273682E-01  0.00000000000E+00 0.  1.
     999901    1    3    3    0    0  0.77910527111E-01  0.99180516375E-01 -0.67919880716E-01  0.89158282580E+00  0.88000000000E+00 0. -1.
        -11    1    4    4    0    0 -0.52670895364E-01 -0.94765860976E-01  0.55684039805E-01  0.12188422800E+00  0.51100000000E-03 0. -1.
         11    1    4    4    0    0 -0.15777867392E-01  0.27692796456E-05  0.21261185639E-02  0.15928672521E-01  0.51100000000E-03 0.  1.
</event>
<event>
 8    1  0.2825007E+004  0.1043930E+01  0.7957747E-01            NaN
         13   -1    0    0    0    0  0.00000000000E+00  0.00000000000E+00  0.74505805969E-08  0.10566000000E+00  0.10566000000E+00 0.  1.
     999900   -1    0    0    0    0 -0.00000000000E+00 -0.00000000000E+00 -0.74505805969E-08  0.93827000000E+00  0.93827000000E+00 0. -1.
     999902    2    1    2    0    0  0.52691030240E-02 -0.37449221731E-02  0.13814513159E-01  0.10286778309E+01  0.10285647530E+01 0.  0.
     999903    2    3    3    0    0  0.10936918773E+00 -0.26240738051E-01  0.70933307908E-01  0.14041804564E+00  0.45116491583E-01 0.  0.
         14    1    1    2    0    0 -0.52691030240E-02  0.37449221731E-02 -0.13814513159E-01  0.15252169111E-01  0.00000000000E+00 0. -1.
     999901    1    3    3    0    0 -0.10410008471E+00  0.22495815878E-01 -0.57118794749E-01  0.88825978524E+00  0.88000000000E+00 0.  1.
        -11    1    4    4    0    0  0.22670261647E-01  0.12706488739E-01  0.18098585050E-01  0.31673577648E-01  0.51100000000E-03 0. -1.
         11    1    4    4    0    0  0.86698926087E-01 -0.38947226790E-01  0.52834722858E-01  0.10874446800E+00  0.51100000000E-03 0.  1.
</event>
<event>
 8    1  0.2825007E+004  0.1043930E+01  0.7957747E-01            NaN
         13   -1    0    0    0    0  0.00000000000E+00  0.00000000000E+00  0.74505805969E-08  0.10566000000E+00  0.10566000000E+00 0.  1.
     999900   -1    0    0    0    0 -0.00000000000E+00 -0.00000000000E+00 -0.74505805969E-08  0.93827000000E+00  0.93827000000E+00 0.  1.
     999902    2    1    2    0    0 -0.29823431795E-02 -0.14272318717E-01 -0.99735488675E-04  0.10293490741E+01  0.10292457981E+01 0.  0.
     999903    2    3    3    0    0 -0.96687257174E-01 -0.88176703775E-01  0.26593904912E-01  0.14089253637E+00  0.44943455993E-01 0.  0.
         14    1    1    2    0    0  0.29823431795E-02  0.14272318717E-01  0.99735488675E-04  0.14580925882E-01  0.00000000000E+00 0. -1.
     999901    1    3    3    0    0  0.93704913995E-01  0.73904385057E-01 -0.26693640401E-01  0.88845653775E+00  0.88000000000E+00 0.  1.
        -11    1    4    4    0    0 -0.45376501404E-01 -0.69387757643E-01  0.23428392890E-01  0.86155896518E-01  0.51100000000E-03 0.  1.
         11    1    4    4    0    0 -0.51310755770E-01 -0.18788946132E-01  0.31655120218E-02  0.54736639847E-01  0.51100000000E-03 0. -1.
</event>
<event>
 8    1  0.2825007E+004  0.1043930E+01  0.7957747E-01            NaN
         13   -1    0    0    0    0  0.00000000000E+00  0.00000000000E+00  0.74505805969E-08  0.10566000000E+00  0.10566000000E+00 0.  1.
     999900   -1    0    0    0    0 -0.00000000000E+00 -0.00000000000E+00 -0.74505805969E-08  0.93827000000E+00  0.93827000000E+00 0.  1.
     999902    2    1    2    0    0  0.29050909942E-02  0.51217073857E-03  0.16957459617E-01  0.10267178732E+01  0.10265735891E+01 0.  0.
     999903    2    3    3    0    0  0.10402273066E+00 -0.20681553342E-01 -0.72506623569E-01  0.13616873184E+00  0.45124914694E-01 0.  0.
         14    1    1    2    0    0 -0.29050909942E-02 -0.51217073857E-03 -0.16957459617E-01  0.17212126806E-01  0.00000000000E+00 0. -1.
     999901    1    3    3    0    0 -0.10111763966E+00  0.21193724080E-01  0.89464083186E-01  0.89054914136E+00  0.88000000000E+00 0. -1.
        -11    1    4    4    0    0  0.70671195639E-01  0.81283021752E-02 -0.46622551642E-01  0.85055338644E-01  0.51100000000E-03 0.  1.
         11    1    4    4    0    0  0.33351535021E-01 -0.28809855517E-01 -0.25884071927E-01  0.51113393193E-01  0.51100000000E-03 0. -1.
</event>
<event>
 8    1  0.2825007E+004  0.1043930E+01  0.7957747E-01            NaN
         13   -1    0    0    0    0  0.00000000000E+00  0.00000000000E+00  0.74505805969E-08  0.10566000000E+00  0.10566000000E+00 0. -1.
     999900   -1    0    0    0    0 -0.00000000000E+00 -0.00000000000E+00 -0.74505805969E-08  0.93827000000E+00  0.93827000000E+00 0.  1.
     999902    2    1    2    0    0  0.68289397750E-02 -0.11605560279E-01  0.61309321494E-03  0.10304504106E+01  0.10303622418E+01 0.  0.
     999903    2    3    3    0    0  0.48076960037E-01 -0.34422130606E-01 -0.11964557910E+00  0.14102129967E+00  0.45559468842E-01 0.  0.
         14    1    1    2    0    0 -0.68289397750E-02  0.11605560279E-01 -0.61309321494E-03  0.13479589427E-01  0.00000000000E+00 0. -1.
     999901    1    3    3    0    0 -0.41248020262E-01  0.22816570327E-01  0.12025867231E+00  0.88942911090E+00  0.88000000000E+00 0. -1.
        -11    1    4    4    0    0  0.45487202049E-01 -0.96033789022E-02 -0.56804601267E-01  0.73405274215E-01  0.51100000000E-03 0. -1.
         11    1    4    4    0    0  0.25897579885E-02 -0.24818751704E-01 -0.62840977829E-01  0.67616025454E-01  0.51100000000E-03 0.  1.
</event>
<event>
 8    1  0.2825007E+004  0.1043930E+01  0.7957747E-01            NaN
         13   -1    0    0    0    0  0.00000000000E+00  0.00000000000E+00  0.74505805969E-08  0.10566000000E+00  0.10566000000E+00 0. -1.
     999900   -1    0    0    0    0 -0.00000000000E+00 -0.00000000000E+00 -0.74505805969E-08  0.93827000000E+00  0.93827000000E+00 0. -1.
     999902    2    1    2    0    0 -0.96976816514E-02 -0.65327056209E-02 -0.55279478821E-02  0.10309963431E+01  0.10309152148E+01 0.  0.
     999903    2    3    3    0    0  0.54441958789E-02  0.12839482825E+00  0.31270464574E-01  0.13982361071E+00  0.45364401994E-01 0.  0.
         14    1    1    2    0    0  0.96976816514E-02  0.65327056209E-02  0.55279478821E-02  0.12933656866E-01  0.00000000000E+00 0.  1.
     999901    1    3    3    0    0 -0.15141877530E-01 -0.13492753387E+00 -0.36798412456E-01  0.89117273242E+00  0.88000000000E+00 0. -1.
        -11    1    4    4    0    0 -0.20811360593E-02  0.16116648889E-01  0.21378403549E-01  0.26858420617E-01  0.51100000000E-03 0. -1.
         11    1    4    4    0    0  0.75253319381E-02  0.11227817936E+00  0.98920610245E-02  0.11296519010E+00  0.51100000000E-03 0.  1.
</event>
<event>
 8    1  0.2825007E+004  0.1043930E+01  0.7957747E-01            NaN
         13   -1    0    0    0    0  0.00000000000E+00  0.00000000000E+00  0.74505805969E-08  0.10566000000E+00  0.10566000000E+00 0. -1.
     999900   -1    0    0    0    0 -0.00000000000E+00 -0.00000000000E+00 -0.74505805969E-08  0.93827000000E+00  0.93827000000E+00 0. -1.
     999902    2    1    2    0    0  0.11205765810E-01 -0.95063233360E-02  0.19661727187E-02  0.10291041710E+01  0.10289973710E+01 0.  0.
     999903    2    3    3    0    0  0.83560459770E-02  0.23339062580E-01 -0.12907196517E+00  0.13879078017E+00  0.44595662582E-01 0.  0.
         14    1    1    2    0    0 -0.11205765810E-01  0.95063233360E-02 -0.19661727187E-02  0.14825829013E-01  0.00000000000E+00 0.  1.
     999901    1    3    3    0    0  0.28497198328E-02 -0.32845385916E-01  0.13103813789E+00  0.89031339081E+00  0.88000000000E+00 0.  1.
        -11    1    4    4    0    0 -0.13697463885E-01  0.18233068443E-02 -0.14051964501E-01  0.19714557872E-01  0.51100000000E-03 0. -1.
         11    1    4    4    0    0  0.22053509862E-01  0.21515755735E-01 -0.11502000067E+00  0.11907622230E+00  0.51100000000E-03 0.  1.
</event>
<event>
 8    1  0.2825007E+004  0.1043930E+01  0.7957747E-01            NaN
         13   -1    0    0    0    0  0.00000000000E+00  0.00000000000E+00  0.74505805969E-08  0.10566000000E+00  0.10566000000E+00 0.  1.
     999900   -1    0    0    0    0 -0.00000000000E+00 -0.00000000000E+00 -0.74505805969E-08  0.93827000000E+00  0.93827000000E+00 0. -1.
     999902    2    1    2    0    0  0.13632179886E-02  0.12024307294E-01 -0.14565838935E-01  0.10249931050E+01  0.10248181591E+01 0.  0.
     999903    2    3    3    0    0  0.98217429890E-01 -0.53138520804E-01 -0.62645756785E-01  0.13598320007E+00  0.45788360202E-01 0.  0.
         14    1    1    2    0    0 -0.13632179886E-02 -0.12024307294E-01  0.14565838935E-01  0.18936895022E-01  0.00000000000E+00 0.  1.
     999901    1    3    3    0    0 -0.96854211901E-01  0.65162828098E-01  0.48079917850E-01  0.88900990491E+00  0.88000000000E+00 0.  1.
        -11    1    4    4    0    0  0.13025923610E-01 -0.16542019771E-01  0.44577633544E-02  0.21527793178E-01  0.51100000000E-03 0. -1.
         11    1    4    4    0    0  0.85191506279E-01 -0.36596501033E-01 -0.67103520140E-01  0.11445540689E+00  0.51100000000E-03 0.  1.
</event>
<event>
 8    1  0.2825007E+004  0.1043930E+01  0.7957747E-01            NaN
         13   -1    0    0    0    0  0.00000000000E+00  0.00000000000E+00  0.74505805969E-08  0.10566000000E+00  0.10566000000E+00 0.  1.
     999900   -1    0    0    0    0 -0.00000000000E+00 -0.00000000000E+00 -0.74505805969E-08  0.93827000000E+00  0.93827000000E+00 0.  1.
     999902    2    1    2    0    0  0.70592220834E-02  0.11004560685E-01  0.59106545428E-02  0.10295818709E+01  0.10294818891E+01 0.  0.
     999903    2    3    3    0    0 -0.77360750768E-02  0.13072018394E+00 -0.24411998388E-01  0.14083545341E+00  0.45728174320E-01 0.  0.
         14    1    1    2    0    0 -0.70592220834E-02 -0.11004560685E-01 -0.59106545428E-02  0.14348129126E-01  0.00000000000E+00 0.  1.
     999901    1    3    3    0    0  0.14795297160E-01 -0.11971562325E+00  0.30322652931E-01  0.88874641746E+00  0.88000000000E+00 0. -1.
        -11    1    4    4    0    0  0.15275400554E-02  0.23508124667E-01 -0.23413990238E-01  0.33218087902E-01  0.51100000000E-03 0. -1.
         11    1    4    4    0    0 -0.92636151322E-02  0.10721205927E+00 -0.99800814945E-03  0.10761736551E+00  0.51100000000E-03 0.  1.
</event>
<event>
 8    1  0.2825007E+004  0.1043930E+01  0.7957747E-01            NaN
         13   -1    0    0    0    0  0.00000000000E+00  0.00000000000E+00  0.74505805969E-08  0.10566000000E+00  0.10566000000E+00 0. -1.
     999900   -1    0    0    0    0 -0.00000000000E+00 -0.00000000000E+00 -0.74505805969E-08  0.93827000000E+00  0.93827000000E+00 0.  1.
     999902    2    1    2    0    0 -0.23572645527E-02  0.14273840691E-01  0.15584316809E-02  0.10293791260E+01  0.10292762783E+01 0.  0.
     999903    2    3    3    0    0 -0.12933622831E+00 -0.16667637847E-01  0.23547530125E-01  0.13945522322E+00  0.43446553410E-01 0.  0.
         14    1    1    2    0    0  0.23572645527E-02 -0.14273840691E-01 -0.15584316809E-02  0.14550873979E-01  0.00000000000E+00 0.  1.
     999901    1    3    3    0    0  0.12697896376E+00  0.30941478538E-01 -0.21989098444E-01  0.88992390280E+00  0.88000000000E+00 0. -1.
        -11    1    4    4    0    0 -0.75881878275E-01 -0.30999733288E-01  0.17102636108E-01  0.83736516510E-01  0.51100000000E-03 0.  1.
         11    1    4    4    0    0 -0.53454350033E-01  0.14332095441E-01  0.64448940170E-02  0.55718706707E-01  0.51100000000E-03 0. -1.
</event>
<event>
 8    1  0.2825007E+004  0.1043930E+01  0.7957747E-01            NaN
         13   -1    0    0    0    0  0.00000000000E+00  0.00000000000E+00  0.74505805969E-08  0.10566000000E+00  0.10566000000E+00 0.  1.
     999900   -1    0    0    0    0 -0.00000000000E+00 -0.00000000000E+00 -0.74505805969E-08  0.93827000000E+00  0.93827000000E+00 0. -1.
     999902    2    1    2    0    0 -0.24670379380E-02 -0.21364876542E-02 -0.49252684174E-02  0.10380216056E+01  0.10380047902E+01 0.  0.
     999903    2    3    3    0    0  0.12792652502E+00  0.46435021548E-01  0.29860338672E-01  0.14640974427E+00  0.44975174928E-01 0.  0.
         14    1    1    2    0    0  0.24670379380E-02  0.21364876542E-02  0.49252684174E-02  0.59083944238E-02  0.00000000000E+00 0.  1.
     999901    1    3    3    0    0 -0.13039356296E+00 -0.48571509202E-01 -0.34785607090E-01  0.89161186131E+00  0.88000000000E+00 0. -1.
        -11    1    4    4    0    0  0.59528530431E-01  0.94084671373E-02  0.32719955757E-01  0.68578581313E-01  0.51100000000E-03 0.  1.
         11    1    4    4    0    0  0.68397994593E-01  0.37026554410E-01 -0.28596170850E-02  0.77831162953E-01  0.51100000000E-03 0. -1.
</event>
<event>
 8    1  0.2825007E+004  0.1043930E+01  0.7957747E-01            NaN
         13   -1    0    0    0    0  0.00000000000E+00  0.00000000000E+00  0.74505805969E-08  0.10566000000E+00  0.10566000000E+00 0.  1.
     999900   -1    0    0    0    0 -0.00000000000E+00 -0.00000000000E+00 -0.74505805969E-08  0.93827000000E+00  0.93827000000E+00 0. -1.
     999902    2    1    2    0    0  0.46279184441E-02 -0.13815693051E-01  0.55841491002E-02  0.10283263554E+01  0.10282079651E+01 0.  0.
     999903    2    3    3    0    0 -0.58514452114E-01 -0.84684769035E-01 -0.81786475286E-01  0.13892036774E+00  0.44881954272E-01 0.  0.
         14    1    1    2    0    0 -0.46279184441E-02  0.13815693051E-01 -0.55841491002E-02  0.15603644599E-01  0.00000000000E+00 0.  1.
     999901    1    3    3    0    0  0.63142370558E-01  0.70869075984E-01  0.87370624386E-01  0.88940598767E+00  0.88000000000E+00 0.  1.
        -11    1    4    4    0    0 -0.35527368749E-01 -0.74716790531E-01 -0.44355370177E-01  0.93874664857E-01  0.51100000000E-03 0.  1.
         11    1    4    4    0    0 -0.22987083365E-01 -0.99679785035E-02 -0.37431105109E-01  0.45045702878E-01  0.51100000000E-03 0. -1.
</event>
<event>
 7    1  0.2825007E+004  0.1043930E+01  0.7957747E-01            NaN
         13   -1    0    0    0    0  0.00000000000E+00  0.00000000000E+00  0.74505805969E-08  0.10566000000E+00  0.10566000000E+00 0. -1.
     999900   -1    0    0    0    0 -0.00000000000E+00 -0.00000000000E+00 -0.74505805969E-08  0.93827000000E+00  0.93827000000E+00 0. -1.
     999902    2    1    2    0    0  0.62787678535E-02  0.12820893098E-01  0.62848688296E-02  0.10283319937E+01  0.10282136896E+01 0.  0.
         14    1    1    2    0    0 -0.62787678535E-02 -0.12820893098E-01 -0.62848688296E-02  0.15598006340E-01  0.00000000000E+00 0. -1.
     999901    1    3    3    0    0 -0.36424207635E-01 -0.87027837390E-01 -0.78259266647E-01  0.88849596521E+00  0.88000000000E+00 0. -1.
        -11    1    3    3    0    0  0.57397866016E-02  0.26855025610E-01  0.33818558412E-01  0.43567115635E-01  0.51100000000E-03 0. -1.
         11    1    3    3    0    0  0.36963188886E-01  0.72993704878E-01  0.50725577065E-01  0.96268912812E-01  0.51100000000E-03 0.  1.
</event>
<event>
 8    1  0.2825007E+004  0.1043930E+01  0.7957747E-01            NaN
         13   -1    0    0    0    0  0.00000000000E+00  0.00000000000E+00  0.74505805969E-08  0.10566000000E+00  0.10566000000E+00 0.  1.
     999900   -1    0    0    0    0 -0.00000000000E+00 -0.00000000000E+00 -0.74505805969E-08  0.93827000000E+00  0.93827000000E+00 0.  1.
     999902    2    1    2    0    0  0.33957724807E-02 -0.12658171647E-01 -0.45748167109E-02  0.10300487346E+01  0.10299551962E+01 0.  0.
     999903    2    3    3    0    0 -0.12550705046E+00 -0.42978946345E-01  0.57967700857E-02  0.14008083805E+00  0.44607500497E-01 0.  0.
         14    1    1    2    0    0 -0.33957724807E-02  0.12658171647E-01  0.45748167109E-02  0.13881265364E-01  0.00000000000E+00 0.  1.
     999901    1    3    3    0    0  0.12890282294E+00  0.30320774698E-01 -0.10371586797E-01  0.88996789659E+00  0.88000000000E+00 0.  1.
        -11    1    4    4    0    0 -0.49967561738E-01  0.23435936490E-02 -0.87767881732E-02  0.50789199530E-01  0.51100000000E-03 0.  1.
         11    1    4    4    0    0 -0.75539488724E-01 -0.45322539994E-01  0.14573558259E-01  0.89291638520E-01  0.51100000000E-03 0. -1.
</event>
<event>
 8    1  0.2825007E+004  0.1043930E+01  0.7957747E-01            NaN
         13   -1    0    0    0    0  0.00000000000E+00  0.00000000000E+00  0.74505805969E-08  0.10566000000E+00  0.10566000000E+00 0.  1.
     999900   -1    0    0    0    0 -0.00000000000E+00 -0.00000000000E+00 -0.74505805969E-08  0.93827000000E+00  0.93827000000E+00 0.  1.
     999902    2    1    2    0    0  0.13499381366E-01 -0.10642943891E-02 -0.28468652788E-02  0.10300927076E+01  0.10299997648E+01 0.  0.
     999903    2    3    3    0    0 -0.11985449788E+00  0.30830432847E-01 -0.43453607900E-01  0.13854941738E+00  0.44633045677E-01 0.  0.
         14    1    1    2    0    0 -0.13499381366E-01  0.10642943891E-02  0.28468652788E-02  0.13837292428E-01  0.00000000000E+00 0.  1.
     999901    1    3    3    0    0  0.13335387924E+00 -0.31894727236E-01  0.40606742621E-01  0.89154329019E+00  0.88000000000E+00 0. -1.
        -11    1    4    4    0    0 -0.85155162269E-01  0.39504524800E-04 -0.27384208281E-01  0.89451434901E-01  0.51100000000E-03 0.  1.
         11    1    4    4    0    0 -0.34699335609E-01  0.30790928322E-01 -0.16069399619E-01  0.49097982482E-01  0.51100000000E-03 0. -1.
</event>
<event>
 8    1  0.2825007E+004  0.1043930E+01  0.7957747E-01            NaN
         13   -1    0    0    0    0  0.00000000000E+00  0.00000000000E+00  0.74505805969E-08  0.10566000000E+00  0.10566000000E+00 0.  1.
     999900   -1    0    0    0    0 -0.00000000000E+00 -0.00000000000E+00 -0.74505805969E-08  0.93827000000E+00  0.93827000000E+00 0.  1.
     999902    2    1    2    0    0  0.10614057359E-01  0.24244799078E-01  0.93028191174E-02  0.10158762847E+01  0.10154888552E+01 0.  0.
     999903    2    3    3    0    0  0.74794823316E-01 -0.13251472693E-01 -0.91187924324E-01  0.12704360610E+00  0.45331812062E-01 0.  0.
         14    1    1    2    0    0 -0.10614057359E-01 -0.24244799078E-01 -0.93028191174E-02  0.28053715253E-01  0.00000000000E+00 0. -1.
     999901    1    3    3    0    0 -0.64180765957E-01  0.37496271771E-01  0.10049074344E+00  0.88883267865E+00  0.88000000000E+00 0. -1.
        -11    1    4    4    0    0  0.43531108438E-01  0.11483124164E-02 -0.79576738419E-01  0.90713805133E-01  0.51100000000E-03 0. -1.
         11    1    4    4    0    0  0.31263714877E-01 -0.14399785110E-01 -0.11611185905E-01  0.36329800966E-01  0.51100000000E-03 0.  1.
</event>
<event>
 8    1  0.2825007E+004  0.1043930E+01  0.7957747E-01            NaN
         13   -1    0    0    0    0  0.00000000000E+00  0.00000000000E+00  0.74505805969E-08  0.10566000000E+00  0.10566000000E+00 0. -1.
     999900   -1    0    0    0    0 -0.00000000000E+00 -0.00000000000E+00 -0.74505805969E-08  0.93827000000E+00  0.93827000000E+00 0.  1.
     999902    2    1    2    0    0  0.14264131914E-01 -0.39173660685E-02 -0.15353458165E-02  0.10290582650E+01  0.10289507977E+01 0.  0.
     999903    2    3    3    0    0 -0.79565795974E-01  0.71564490835E-01 -0.73661253958E-01  0.13793329465E+00  0.46340276234E-01 0.  0.
         14    1    1    2    0    0 -0.14264131914E-01  0.39173660685E-02  0.15353458165E-02  0.14871735035E-01  0.00000000000E+00 0. -1.
     999901    1    3    3    0    0  0.93829927888E-01 -0.75481856904E-01  0.72125908141E-01  0.89112497031E+00  0.88000000000E+00 0. -1.
        -11    1    4    4    0    0 -0.44353813226E-01  0.66398268263E-01 -0.41639549507E-01  0.90056115729E-01  0.51100000000E-03 0.  1.
         11    1    4    4    0    0 -0.35211982749E-01  0.51662225723E-02 -0.32021704451E-01  0.47877178924E-01  0.51100000000E-03 0. -1.
</event>
<event>
 8    1  0.2825007E+004  0.1043930E+01  0.7957747E-01            NaN
         13   -1    0    0    0    0  0.00000000000E+00  0.00000000000E+00  0.74505805969E-08  0.10566000000E+00  0.10566000000E+00 0. -1.
     999900   -1    0    0    0    0 -0.00000000000E+00 -0.00000000000E+00 -0.74505805969E-08  0.93827000000E+00  0.93827000000E+00 0.  1.
     999902    2    1    2    0    0 -0.79123215824E-02 -0.19846489725E-02 -0.11087865896E-01  0.10301646655E+01  0.10300726933E+01 0.  0.
     999903    2    3    3    0    0  0.95827298651E-01 -0.87550991961E-01 -0.26987456098E-01  0.13980726262E+00  0.44381308388E-01 0.  0.
         14    1    1    2    0    0  0.79123215824E-02  0.19846489725E-02  0.11087865896E-01  0.13765334522E-01  0.00000000000E+00 0. -1.
     999901    1    3    3    0    0 -0.10373962023E+00  0.85566342988E-01  0.15899590202E-01  0.89035740286E+00  0.88000000000E+00 0.  1.
        -11    1    4    4    0    0  0.55943163909E-01 -0.68833982306E-01 -0.11084101213E-02  0.88708761699E-01  0.51100000000E-03 0. -1.
         11    1    4    4    0    0  0.39884134742E-01 -0.18717009655E-01 -0.25879045977E-01  0.51098500920E-01  0.51100000000E-03 0.  1.
</event>
<event>
 8    1  0.2825007E+004  0.1043930E+01  0.7957747E-01            NaN
         13   -1    0    0    0    0  0.00000000000E+00  0.00000000000E+00  0.74505805969E-08  0.10566000000E+00  0.10566000000E+00 0. -1.
     999900   -1    0    0    0    0 -0.00000000000E+00 -0.00000000000E+00 -0.74505805969E-08  0.93827000000E+00  0.93827000000E+00 0.  1.
     999902    2    1    2    0    0  0.29481684824E-02 -0.12393252003E-01 -0.11258740977E-02  0.10311412555E+01  0.10310619462E+01 0.  0.
     999903    2    3    3    0    0  0.35348978901E-01  0.12273579479E+00  0.33762057699E-01  0.13955455779E+00  0.44966347720E-01 0.  0.
         14    1    1    2    0    0 -0.29481684824E-02  0.12393252003E-01  0.11258740977E-02  0.12788744469E-01  0.00000000000E+00 0. -1.
     999901    1    3    3    0    0 -0.32400810418E-01 -0.13512904680E+00 -0.34887931796E-01  0.89158669774E+00  0.88000000000E+00 0.  1.
        -11    1    4    4    0    0 -0.46537338003E-02 -0.14165281563E-02  0.21308101514E-02  0.53352847349E-02  0.51100000000E-03 0. -1.
         11    1    4    4    0    0  0.40002712701E-01  0.12415232295E+00  0.31631247547E-01  0.13421927306E+00  0.51100000000E-03 0.  1.
</event>
<event>
 8    1  0.2825007E+004  0.1043930E+01  0.7957747E-01            NaN
         13   -1    0    0    0    0  0.00000000000E+00  0.00000000000E+00  0.74505805969E-08  0.10566000000E+00  0.10566000000E+00 0.  1.
     999900   -1    0    0    0    0 -0.00000000000E+00 -0.00000000000E+00 -0.74505805969E-08  0.93827000000E+00  0.93827000000E+00 0. -1.
     999902    2    1    2    0    0 -0.13300527429E-01  0.66190571858E-03  0.35708173815E-02  0.10301425823E+01  0.10300503129E+01 0.  0.
     999903    2    3    3    0    0 -0.79831251541E-01 -0.10658425348E+00 -0.85011455888E-02  0.14105664262E+00  0.45732648487E-01 0.  0.
         14    1    1    2    0    0  0.13300527429E-01 -0.66190571858E-03 -0.35708173815E-02  0.13787417664E-01  0.00000000000E+00 0. -1.
     999901    1    3    3    0    0  0.66530724112E-01  0.10724615920E+00  0.12071962970E-01  0.88908593972E+00  0.88000000000E+00 0. -1.
        -11    1    4    4    0    0 -0.71658979510E-01 -0.65014724061E-01  0.41272181551E-02  0.96846366684E-01  0.51100000000E-03 0.  1.
         11    1    4    4    0    0 -0.81722720311E-02 -0.41569529420E-01 -0.12628363744E-01  0.44210275934E-01  0.51100000000E-03 0. -1.
</event>
<event>
 8    1  0.2825007E+004  0.1043930E+01  0.7957747E-01            NaN
         13   -1    0    0    0    0  0.00000000000E+00  0.00000000000E+00  0.74505805969E-08  0.10566000000E+00  0.10566000000E+00 0. -1.
     999900   -1    0    0    0    0 -0.00000000000E+00 -0.00000000000E+00 -0.74505805969E-08  0.93827000000E+00  0.93827000000E+00 0. -1.
     999902    2    1    2    0    0  0.47683650742E-02 -0.12681821656E-01 -0.70821129139E-02  0.10286420234E+01  0.10285284099E+01 0.  0.
     999903    2    3    3    0    0 -0.45818024715E-01 -0.79057927072E-01  0.94379258442E-01  0.13888970948E+00  0.45093899296E-01 0.  0.
         14    1    1    2    0    0 -0.47683650742E-02  0.12681821656E-01  0.70821129139E-02  0.15287976626E-01  0.00000000000E+00 0. -1.
     999901    1    3    3    0    0  0.50586389789E-01  0.66376105416E-01 -0.10146137136E+00  0.88975231389E+00  0.88000000000E+00 0. -1.
        -11    1    4    4    0    0  0.20929525707E-02 -0.17132252477E-01  0.39979555376E-01  0.43549058480E-01  0.51100000000E-03 0. -1.
         11    1    4    4    0    0 -0.47910977286E-01 -0.61925674595E-01  0.54399703066E-01  0.95340651000E-01  0.51100000000E-03 0.  1.
</event>
<event>
 8    1  0.2825007E+004  0.1043930E+01  0.7957747E-01            NaN
         13   -1    0    0    0    0  0.00000000000E+00  0.00000000000E+00  0.74505805969E-08  0.10566000000E+00  0.10566000000E+00 0. -1.
     999900   -1    0    0    0    0 -0.00000000000E+00 -0.00000000000E+00 -0.74505805969E-08  0.93827000000E+00  0.93827000000E+00 0. -1.
     999902    2    1    2    0    0  0.55627806243E-02 -0.12060360521E-01 -0.24777481399E-02  0.10304194093E+01  0.10303308319E+01 0.  0.
     999903    2    3    3    0    0 -0.12011134923E+00 -0.35953844130E-01  0.43339759518E-01  0.13999022659E+00  0.44715921823E-01 0.  0.
         14    1    1    2    0    0 -0.55627806243E-02  0.12060360521E-01  0.24777481399E-02  0.13510590661E-01  0.00000000000E+00 0. -1.
     999901    1    3    3    0    0  0.12567412986E+00  0.23893483610E-01 -0.45817507658E-01  0.89042918274E+00  0.88000000000E+00 0.  1.
        -11    1    4    4    0    0 -0.51053986404E-01 -0.32583920061E-02  0.37358374892E-01  0.63348527542E-01  0.51100000000E-03 0. -1.
         11    1    4    4    0    0 -0.69057362830E-01 -0.32695452124E-01  0.59813846257E-02  0.76641699053E-01  0.51100000000E-03 0.  1.
</event>
<event>
 8    1  0.2825007E+004  0.1043930E+01  0.7957747E-01            NaN
         13   -1    0    0    0    0  0.00000000000E+00  0.00000000000E+00  0.74505805969E-08  0.10566000000E+00  0.10566000000E+00 0. -1.
     999900   -1    0    0    0    0 -0.00000000000E+00 -0.00000000000E+00 -0.74505805969E-08  0.93827000000E+00  0.93827000000E+00 0.  1.
     999902    2    1    2    0    0  0.15081649254E-01  0.33005382120E-02  0.21166918040E-01  0.10177309902E+01  0.10173937194E+01 0.  0.
     999903    2    3    3    0    0  0.94255589044E-01  0.74302581466E-01  0.27781094015E-01  0.13130358186E+00  0.45429635099E-01 0.  0.
         14    1    1    2    0    0 -0.15081649254E-01 -0.33005382120E-02 -0.21166918040E-01  0.26199009829E-01  0.00000000000E+00 0.  1.
     999901    1    3    3    0    0 -0.79173939789E-01 -0.71002043254E-01 -0.66141759757E-02  0.88642740831E+00  0.88000000000E+00 0. -1.
        -11    1    4    4    0    0  0.37469898840E-01  0.22344254190E-01  0.32170339023E-01  0.54207479633E-01  0.51100000000E-03 0.  1.
         11    1    4    4    0    0  0.56785690204E-01  0.51958327276E-01 -0.43892450077E-02  0.77096102223E-01  0.51100000000E-03 0. -1.
</event>
<event>
 8    1  0.2825007E+004  0.1043930E+01  0.7957747E-01            NaN
         13   -1    0    0    0    0  0.00000000000E+00  0.00000000000E+00  0.74505805969E-08  0.10566000000E+00  0.10566000000E+00 0.  1.
     999900   -1    0    0    0    0 -0.00000000000E+00 -0.00000000000E+00 -0.74505805969E-08  0.93827000000E+00  0.93827000000E+00 0. -1.
     999902    2    1    2    0    0 -0.72997283403E-02  0.87623331396E-02  0.75613531762E-02  0.10302464852E+01  0.10301556104E+01 0.  0.
     999903    2    3    3    0    0  0.12078823914E+00 -0.36008423030E-01  0.38207454738E-01  0.13931992729E+00  0.45429366021E-01 0.  0.
         14    1    1    2    0    0  0.72997283403E-02 -0.87623331396E-02 -0.75613531762E-02  0.13683514817E-01  0.00000000000E+00 0. -1.
     999901    1    3    3    0    0 -0.12808796749E+00  0.44770756169E-01 -0.30646101561E-01  0.89092655790E+00  0.88000000000E+00 0.  1.
        -11    1    4    4    0    0  0.59563272764E-01 -0.25258352748E-01 -0.29490912657E-02  0.64766705228E-01  0.51100000000E-03 0.  1.
         11    1    4    4    0    0  0.61224966381E-01 -0.10750070282E-01  0.41156546003E-01  0.74553222059E-01  0.51100000000E-03 0. -1.
</event>
<event>
 8    1  0.2825007E+004  0.1043930E+01  0.7957747E-01            NaN
         13   -1    0    0    0    0  0.00000000000E+00  0.00000000000E+00  0.74505805969E-08  0.10566000000E+00  0.10566000000E+00 0. -1.
     999900   -1    0    0    0    0 -0.00000000000E+00 -0.00000000000E+00 -0.74505805969E-08  0.93827000000E+00  0.93827000000E+00 0. -1.
     999902    2    1    2    0    0  0.26733221241E-02  0.37015472194E-02 -0.13538590453E-01  0.10296421893E+01  0.10295430523E+01 0.  0.
     999903    2    3    3    0    0 -0.10597389266E+00 -0.50982316410E-01 -0.60718304475E-01  0.14002403097E+00  0.45720391944E-01 0.  0.
         14    1    1    2    0    0 -0.26733221241E-02 -0.37015472194E-02  0.13538590453E-01  0.14287810695E-01  0.00000000000E+00 0. -1.
     999901    1    3    3    0    0  0.10864721478E+00  0.54683863630E-01  0.47179714022E-01  0.88961815833E+00  0.88000000000E+00 0.  1.
        -11    1    4    4    0    0 -0.65816208830E-01 -0.53468904291E-01 -0.49758813556E-01  0.98320383026E-01  0.51100000000E-03 0.  1.
         11    1    4    4    0    0 -0.40157683829E-01  0.24865878813E-02 -0.10959490918E-01  0.41703647946E-01  0.51100000000E-03 0. -1.
</event>
<event>
 8    1  0.2825007E+004  0.1043930E+01  0.7957747E-01            NaN
         13   -1    0    0    0    0  0.00000000000E+00  0.00000000000E+00  0.74505805969E-08  0.10566000000E+00  0.10566000000E+00 0.  1.
     999900   -1    0    0    0    0 -0.00000000000E+00 -0.00000000000E+00 -0.74505805969E-08  0.93827000000E+00  0.93827000000E+00 0. -1.
     999902    2    1    2    0    0  0.37750938344E-02 -0.11717433044E-01 -0.51821500272E-02  0.10305731946E+01  0.10304866352E+01 0.  0.
     999903    2    3    3    0    0  0.88228675282E-01  0.33167025377E-01  0.93165213718E-01  0.13994463795E+00  0.44948792307E-01 0.  0.
         14    1    1    2    0    0 -0.37750938344E-02  0.11717433044E-01  0.51821500272E-02  0.13356805363E-01  0.00000000000E+00 0. -1.
     999901    1    3    3    0    0 -0.84453581448E-01 -0.44884458421E-01 -0.98347363745E-01  0.89062855668E+00  0.88000000000E+00 0. -1.
        -11    1    4    4    0    0  0.37374047776E-01  0.11680979208E-01  0.69716052189E-01  0.79961576875E-01  0.51100000000E-03 0. -1.
         11    1    4    4    0    0  0.50854627506E-01  0.21486046169E-01  0.23449161529E-01  0.59983061077E-01  0.51100000000E-03 0.  1.
</event>
<event>
 8    1  0.2825007E+004  0.1043930E+01  0.7957747E-01            NaN
         13   -1    0    0    0    0  0.00000000000E+00  0.00000000000E+00  0.74505805969E-08  0.10566000000E+00  0.10566000000E+00 0.  1.
     999900   -1    0    0    0    0 -0.00000000000E+00 -0.00000000000E+00 -0.74505805969E-08  0.93827000000E+00  0.93827000000E+00 0. -1.
     999902    2    1    2    0    0  0.82657276115E-02  0.75781468859E-02  0.50767774706E-02  0.10316204820E+01  0.10315470395E+01 0.  0.
     999903    2    3    3    0    0 -0.67032584988E-01  0.11636522648E+00 -0.16028271951E-01  0.14148010676E+00  0.41538918191E-01 0.  0.
         14    1    1    2    0    0 -0.82657276115E-02 -0.75781468859E-02 -0.50767774706E-02  0.12309517970E-01  0.00000000000E+00 0.  1.
     999901    1    3    3    0    0  0.75298312599E-01 -0.10878707959E+00  0.21105049422E-01  0.89014037527E+00  0.88000000000E+00 0.  1.
        -11    1    4    4    0    0 -0.24162627340E-01  0.78458409753E-01 -0.18665595603E-01  0.84191568468E-01  0.51100000000E-03 0.  1.
         11    1    4    4    0    0 -0.42869957648E-01  0.37906816727E-01  0.26373236516E-02  0.57288538296E-01  0.51100000000E-03 0. -1.
</event>
<event>
 8    1  0.2825007E+004  0.1043930E+01  0.7957747E-01            NaN
         13   -1    0    0    0    0  0.00000000000E+00  0.00000000000E+00  0.74505805969E-08  0.10566000000E+00  0.10566000000E+00 0.  1.
     999900   -1    0    0    0    0 -0.00000000000E+00 -0.00000000000E+00 -0.74505805969E-08  0.93827000000E+00  0.93827000000E+00 0. -1.
     999902    2    1    2    0    0  0.10848419072E-01  0.92950554466E-02 -0.26366983223E-02  0.10294028382E+01  0.10293003278E+01 0.  0.
     999903    2    3    3    0    0  0.11262602407E+00  0.21097856403E-01  0.68700326114E-01  0.14059073316E+00  0.43775319532E-01 0.  0.
         14    1    1    2    0    0 -0.10848419072E-01 -0.92950554466E-02  0.26366983223E-02  0.14527161807E-01  0.00000000000E+00 0.  1.
     999901    1    3    3    0    0 -0.10177760500E+00 -0.11802800956E-01 -0.71337024437E-01  0.88881210503E+00  0.88000000000E+00 0. -1.
        -11    1    4    4    0    0  0.54590197259E-01 -0.55820451560E-02  0.14354509846E-01  0.56723557177E-01  0.51100000000E-03 0.  1.
         11    1    4    4    0    0  0.58035826814E-01  0.26679901559E-01  0.54345816269E-01  0.83867175988E-01  0.51100000000E-03 0. -1.
</event>
<event>
 8    1  0.2825007E+004  0.1043930E+01  0.7957747E-01            NaN
         13   -1    0    0    0    0  0.00000000000E+00  0.00000000000E+00  0.74505805969E-08  0.10566000000E+00  0.10566000000E+00 0.  1.
     999900   -1    0    0    0    0 -0.00000000000E+00 -0.00000000000E+00 -0.74505805969E-08  0.93827000000E+00  0.93827000000E+00 0.  1.
     999902    2    1    2    0    0 -0.15993324632E-01 -0.31030917733E-02 -0.73393994577E-02  0.10260615251E+01  0.10259059269E+01 0.  0.
     999903    2    3    3    0    0  0.22262421167E-01 -0.12649203200E+00 -0.12202896803E-01  0.13661676218E+00  0.44937506175E-01 0.  0.
         14    1    1    2    0    0  0.15993324632E-01  0.31030917733E-02  0.73393994577E-02  0.17868474914E-01  0.00000000000E+00 0. -1.
     999901    1    3    3    0    0 -0.38255745799E-01  0.12338894023E+00  0.48634973453E-02  0.88944476291E+00  0.88000000000E+00 0.  1.
        -11    1    4    4    0    0  0.18234002421E-02 -0.31814803041E-01 -0.22788857243E-01  0.39180347324E-01  0.51100000000E-03 0. -1.
         11    1    4    4    0    0  0.20439020925E-01 -0.94677228962E-01  0.10585960440E-01  0.97436414855E-01  0.51100000000E-03 0.  1.
</event>
<event>
 8    1  0.2825007E+004  0.1043930E+01  0.7957747E-01            NaN
         13   -1    0    0    0    0  0.00000000000E+00  0.00000000000E+00  0.74505805969E-08  0.10566000000E+00  0.10566000000E+00 0.  1.
     999900   -1    0    0    0    0 -0.00000000000E+00 -0.00000000000E+00 -0.74505805969E-08  0.93827000000E+00  0.93827000000E+00 0. -1.
     999902    2    1    2    0    0  0.12012855563E-01  0.42290946040E-05 -0.21828751308E-02  0.10317204275E+01  0.10316481798E+01 0.  0.
     999903    2    3    3    0    0 -0.12880945911E+00  0.21380481673E-01 -0.22781715458E-01  0.14002979690E+00  0.45170075373E-01 0.  0.
         14    1    1    2    0    0 -0.12012855563E-01 -0.42290946040E-05  0.21828751308E-02  0.12209572494E-01  0.00000000000E+00 0.  1.
     999901    1    3    3    0    0  0.14082231467E+00 -0.21376252579E-01  0.20598840328E-01  0.89169063060E+00  0.88000000000E+00 0.  1.
        -11    1    4    4    0    0 -0.73180121522E-01 -0.10298371482E-01 -0.16337486094E-01  0.75687259258E-01  0.51100000000E-03 0.  1.
         11    1    4    4    0    0 -0.55629337585E-01  0.31678853155E-01 -0.64442293640E-02  0.64342537644E-01  0.51100000000E-03 0. -1.
</event>
<event>
 8    1  0.2825007E+004  0.1043930E+01  0.7957747E-01            NaN
         13   -1    0    0    0    0  0.00000000000E+00  0.00000000000E+00  0.74505805969E-08  0.10566000000E+00  0.10566000000E+00 0. -1.
     999900   -1    0    0    0    0 -0.00000000000E+00 -0.00000000000E+00 -0.74505805969E-08  0.93827000000E+00  0.93827000000E+00 0. -1.
     999902    2    1    2    0    0  0.12095104123E-01  0.68167486071E-02 -0.80544425759E-02  0.10278790296E+01  0.10277536990E+01 0.  0.
     999903    2    3    3    0    0 -0.84005529224E-01  0.25715473518E-01  0.94534309272E-01  0.13652222925E+00  0.44535030394E-01 0.  0.
         14    1    1    2    0    0 -0.12095104123E-01 -0.68167486071E-02  0.80544425759E-02  0.16050970392E-01  0.00000000000E+00 0. -1.
     999901    1    3    3    0    0  0.96100633347E-01 -0.18898724911E-01 -0.10258875185E+00  0.89135680035E+00  0.88000000000E+00 0. -1.
        -11    1    4    4    0    0 -0.74096486723E-01  0.11784851209E-01  0.92792194315E-01  0.11933073581E+00  0.51100000000E-03 0.  1.
         11    1    4    4    0    0 -0.99090425009E-02  0.13930622309E-01  0.17421149575E-02  0.17191493441E-01  0.51100000000E-03 0. -1.
</event>
<event>
 8    1  0.2825007E+004  0.1043930E+01  0.7957747E-01            NaN
         13   -1    0    0    0    0  0.00000000000E+00  0.00000000000E+00  0.74505805969E-08  0.10566000000E+00  0.10566000000E+00 0. -1.
     999900   -1    0    0    0    0 -0.00000000000E+00 -0.00000000000E+00 -0.74505805969E-08  0.93827000000E+00  0.93827000000E+00 0.  1.
     999902    2    1    2    0    0 -0.83725569405E-02  0.11489318576E-01 -0.24044418708E-02  0.10295117653E+01  0.10294107972E+01 0.  0.
     999903    2    3    3    0    0 -0.10043734875E+00  0.18722934205E-01 -0.85744399741E-01  0.14076331964E+00  0.44988896181E-01 0.  0.
         14    1    1    2    0    0  0.83725569405E-02 -0.11489318576E-01  0.24044418708E-02  0.14418234697E-01  0.00000000000E+00 0. -1.
     999901    1    3    3    0    0  0.92064791814E-01 -0.72336156293E-02  0.83339957871E-01  0.88874844566E+00  0.88000000000E+00 0. -1.
        -11    1    4    4    0    0 -0.54540535894E-01 -0.98497852501E-02 -0.57106305159E-01  0.79580647993E-01  0.51100000000E-03 0.  1.
         11    1    4    4    0    0 -0.45896812861E-01  0.28572719455E-01 -0.28638094582E-01  0.61182671649E-01  0.51100000000E-03 0. -1.
</event>
<event>
 8    1  0.2825007E+004  0.1043930E+01  0.7957747E-01            NaN
         13   -1    0    0    0    0  0.00000000000E+00  0.00000000000E+00  0.74505805969E-08  0.10566000000E+00  0.10566000000E+00 0.  1.
     999900   -1    0    0    0    0 -0.00000000000E+00 -0.00000000000E+00 -0.74505805969E-08  0.93827000000E+00  0.93827000000E+00 0.  1.
     999902    2    1    2    0    0  0.22113593662E-02 -0.11859449283E-01  0.52487036554E-02  0.10307738023E+01  0.10306898399E+01 0.  0.
     999903    2    3    3    0    0  0.14722028570E-01  0.82524109773E-01 -0.10300685421E+00  0.13904287940E+00  0.41176977553E-01 0.  0.
         14    1    1    2    0    0 -0.22113593662E-02  0.11859449283E-01 -0.52487036554E-02  0.13156197688E-01  0.00000000000E+00 0. -1.
     999901    1    3    3    0    0 -0.12510669204E-01 -0.94383559056E-01  0.10825555786E+00  0.89173092291E+00  0.88000000000E+00 0. -1.
        -11    1    4    4    0    0  0.12689025640E-01  0.68949896276E-01 -0.54996783346E-01  0.89106716176E-01  0.51100000000E-03 0. -1.
         11    1    4    4    0    0  0.20330029299E-02  0.13574213497E-01 -0.48010070860E-01  0.49936163228E-01  0.51100000000E-03 0.  1.
</event>
<event>
 8    1  0.2825007E+004  0.1043930E+01  0.7957747E-01            NaN
         13   -1    0    0    0    0  0.00000000000E+00  0.00000000000E+00  0.74505805969E-08  0.10566000000E+00  0.10566000000E+00 0.  1.
     999900   -1    0    0    0    0 -0.00000000000E+00 -0.00000000000E+00 -0.74505805969E-08  0.93827000000E+00  0.93827000000E+00 0.  1.
     999902    2    1    2    0    0  0.10993401310E-01  0.14774647064E-01  0.12177416829E-02  0.10254738909E+01  0.10253077943E+01 0.  0.
     999903    2    3    3    0    0 -0.68231456625E-01 -0.82483554584E-01  0.67048767136E-01  0.13414372771E+00  0.45165629188E-01 0.  0.
         14    1    1    2    0    0 -0.10993401310E-01 -0.14774647064E-01 -0.12177416829E-02  0.18456109097E-01  0.00000000000E+00 0. -1.
     999901    1    3    3    0    0  0.79224857935E-01  0.97258201647E-01 -0.65831025453E-01  0.89133016319E+00  0.88000000000E+00 0.  1.
        -11    1    4    4    0    0 -0.69779922465E-01 -0.72390657863E-01  0.71099814153E-01  0.12314661838E+00  0.51100000000E-03 0.  1.
         11    1    4    4    0    0  0.15484658402E-02 -0.10092896721E-01 -0.40510470179E-02  0.10997109330E-01  0.51100000000E-03 0. -1.
</event>
<event>
 8    1  0.2825007E+004  0.1043930E+01  0.7957747E-01            NaN
         13   -1    0    0    0    0  0.00000000000E+00  0.00000000000E+00  0.74505805969E-08  0.10566000000E+00  0.10566000000E+00 0.  1.
     999900   -1    0    0    0    0 -0.00000000000E+00 -0.00000000000E+00 -0.74505805969E-08  0.93827000000E+00  0.93827000000E+00 0.  1.
     999902    2    1    2    0    0  0.46527243788E-02 -0.16940793737E-01  0.32878507893E-02  0.10260568833E+01  0.10259012036E+01 0.  0.
     999903    2    3    3    0    0  0.96544464203E-01  0.17353654916E-01  0.82901105225E-01  0.13703580859E+00  0.47793688715E-01 0.  0.
         14    1    1    2    0    0 -0.46527243788E-02  0.16940793737E-01 -0.32878507893E-02  0.17873116667E-01  0.00000000000E+00 0. -1.
     999901    1    3    3    0    0 -0.91891739824E-01 -0.34294448653E-01 -0.79613254436E-01  0.88902107474E+00  0.88000000000E+00 0.  1.
        -11    1    4    4    0    0  0.36779444335E-01 -0.12360542421E-01  0.14390520853E-01  0.41386697693E-01  0.51100000000E-03 0.  1.
         11    1    4    4    0    0  0.59765019868E-01  0.29714197337E-01  0.68510584372E-01  0.95649110896E-01  0.51100000000E-03 0. -1.
</event>
<event>
 8    1  0.2825007E+004  0.1043930E+01  0.7957747E-01            NaN
         13   -1    0    0    0    0  0.00000000000E+00  0.00000000000E+00  0.74505805969E-08  0.10566000000E+00  0.10566000000E+00 0. -1.
     999900   -1    0    0    0    0 -0.00000000000E+00 -0.00000000000E+00 -0.74505805969E-08  0.93827000000E+00  0.93827000000E+00 0.  1.
     999902    2    1    2    0    0  0.20575597326E-02 -0.10386990383E-01 -0.11139231362E-01  0.10285610184E+01  0.10284461886E+01 0.  0.
     999903    2    3    3    0    0 -0.34269164562E-01 -0.38453620851E-01 -0.12513759014E+00  0.14002120921E+00  0.35964787878E-01 0.  0.
         14    1    1    2    0    0 -0.20575597326E-02  0.10386990383E-01  0.11139231362E-01  0.15368981638E-01  0.00000000000E+00 0. -1.
     999901    1    3    3    0    0  0.36326724295E-01  0.28066630468E-01  0.11399835877E+00  0.88853980915E+00  0.88000000000E+00 0. -1.
        -11    1    4    4    0    0  0.22878012609E-02 -0.67308656186E-02 -0.50903578842E-01  0.51400136639E-01  0.51100000000E-03 0.  1.
         11    1    4    4    0    0 -0.36556965823E-01 -0.31722755232E-01 -0.74234011294E-01  0.88621072571E-01  0.51100000000E-03 0. -1.
</event>
<event>
 8    1  0.2825007E+004  0.1043930E+01  0.7957747E-01            NaN
         13   -1    0    0    0    0  0.00000000000E+00  0.00000000000E+00  0.74505805969E-08  0.10566000000E+00  0.10566000000E+00 0. -1.
     999900   -1    0    0    0    0 -0.00000000000E+00 -0.00000000000E+00 -0.74505805969E-08  0.93827000000E+00  0.93827000000E+00 0.  1.
     999902    2    1    2    0    0  0.21143077465E-02 -0.12458452541E-01 -0.40912331829E-02  0.10306476235E+01  0.10305620322E+01 0.  0.
     999903    2    3    3    0    0 -0.74714780785E-01 -0.45094441519E-01  0.10143393054E+00  0.14042103615E+00  0.42584245952E-01 0.  0.
         14    1    1    2    0    0 -0.21143077465E-02  0.12458452541E-01  0.40912331829E-02  0.13282376516E-01  0.00000000000E+00 0. -1.
     999901    1    3    3    0    0  0.76829088532E-01  0.32635988978E-01 -0.10552516373E+00  0.89022658734E+00  0.88000000000E+00 0.  1.
        -11    1    4    4    0    0 -0.45199504259E-01 -0.45124218863E-01  0.85960309511E-01  0.10709167216E+00  0.51100000000E-03 0.  1.
         11    1    4    4    0    0 -0.29515276526E-01  0.29777343891E-04  0.15473621034E-01  0.33329363990E-01  0.51100000000E-03 0. -1.
</event>
<event>
 8    1  0.2825007E+004  0.1043930E+01  0.7957747E-01            NaN
         13   -1    0    0    0    0  0.00000000000E+00  0.00000000000E+00  0.74505805969E-08  0.10566000000E+00  0.10566000000E+00 0.  1.
     999900   -1    0    0    0    0 -0.00000000000E+00 -0.00000000000E+00 -0.74505805969E-08  0.93827000000E+00  0.93827000000E+00 0.  1.
     999902    2    1    2    0    0  0.60826888228E-02  0.10788867824E-01 -0.46139434396E-02  0.10307130697E+01  0.10306283253E+01 0.  0.
     999903    2    3    3    0    0 -0.58567500142E-01 -0.10915709709E+00  0.44166711005E-01  0.13889120763E+00  0.44661451806E-01 0.  0.
         14    1    1    2    0    0 -0.60826888228E-02 -0.10788867824E-01  0.46139434396E-02  0.13216930290E-01  0.00000000000E+00 0.  1.
     999901    1    3    3    0    0  0.64650188965E-01  0.11994596492E+00 -0.48780654445E-01  0.89182186208E+00  0.88000000000E+00 0.  1.
        -11    1    4    4    0    0 -0.46241748012E-01 -0.50213501401E-01  0.82180255971E-02  0.68756760016E-01  0.51100000000E-03 0.  1.
         11    1    4    4    0    0 -0.12325752130E-01 -0.58943595692E-01  0.35948685408E-01  0.70134447615E-01  0.51100000000E-03 0. -1.
</event>
<event>
 8    1  0.2825007E+004  0.1043930E+01  0.7957747E-01            NaN
         13   -1    0    0    0    0  0.00000000000E+00  0.00000000000E+00  0.74505805969E-08  0.10566000000E+00  0.10566000000E+00 0.  1.
     999900   -1    0    0    0    0 -0.00000000000E+00 -0.00000000000E+00 -0.74505805969E-08  0.93827000000E+00  0.93827000000E+00 0.  1.
     999902    2    1    2    0    0 -0.83996928303E-02  0.93705868694E-02  0.54147796518E-02  0.10302302709E+01  0.10301391792E+01 0.  0.
     999903    2    3    3    0    0 -0.18959999528E-01 -0.11275952759E+00  0.67189016432E-01  0.13958817600E+00  0.43546553316E-01 0.  0.
         14    1    1    2    0    0  0.83996928303E-02 -0.93705868694E-02 -0.54147796518E-02  0.13699729070E-01  0.00000000000E+00 0. -1.
     999901    1    3    3    0    0  0.10560306697E-01  0.12213011446E+00 -0.61774236780E-01  0.89064209493E+00  0.88000000000E+00 0.  1.
        -11    1    4    4    0    0  0.10423739480E-01 -0.36970734860E-01  0.35612916510E-01  0.52383494769E-01  0.51100000000E-03 0. -1.
         11    1    4    4    0    0 -0.29383739008E-01 -0.75788792726E-01  0.31576099922E-01  0.87204681229E-01  0.51100000000E-03 0.  1.
</event>
<event>
 8    1  0.2825007E+004  0.1043930E+01  0.7957747E-01            NaN
         13   -1    0    0    0    0  0.00000000000E+00  0.00000000000E+00  0.74505805969E-08  0.10566000000E+00  0.10566000000E+00 0.  1.
     999900   -1    0    0    0    0 -0.00000000000E+00 -0.00000000000E+00 -0.74505805969E-08  0.93827000000E+00  0.93827000000E+00 0.  1.
     999902    2    1    2    0    0  0.12407957721E-02  0.14327226594E-01 -0.50672263865E-02  0.10286825156E+01  0.10285695077E+01 0.  0.
     999903    2    3    3    0    0  0.41024471126E-02  0.12609902615E+00  0.41924661646E-01  0.14036423835E+00  0.45018303889E-01 0.  0.
         14    1    1    2    0    0 -0.12407957721E-02 -0.14327226594E-01  0.50672263865E-02  0.15247484359E-01  0.00000000000E+00 0. -1.
     999901    1    3    3    0    0 -0.28616513405E-02 -0.11177179956E+00 -0.46991888033E-01  0.88831827729E+00  0.88000000000E+00 0.  1.
        -11    1    4    4    0    0 -0.44450200697E-03  0.55024505705E-01  0.41863337702E-01  0.69142562685E-01  0.51100000000E-03 0.  1.
         11    1    4    4    0    0  0.45469491196E-02  0.71074520448E-01  0.61323943847E-04  0.71221675667E-01  0.51100000000E-03 0. -1.
</event>
<event>
 7    1  0.2825007E+004  0.1043930E+01  0.7957747E-01            NaN
         13   -1    0    0    0    0  0.00000000000E+00  0.00000000000E+00  0.74505805969E-08  0.10566000000E+00  0.10566000000E+00 0. -1.
     999900   -1    0    0    0    0 -0.00000000000E+00 -0.00000000000E+00 -0.74505805969E-08  0.93827000000E+00  0.93827000000E+00 0.  1.
     999903    2    1    2    0    0 -0.95351668540E-02  0.93883450623E-01 -0.40977814021E-02  0.10840924982E+00  0.53204811117E-01 0.  0.
         14    1    1    2    0    0 -0.20352754948E-01  0.86303053893E-02  0.42852770880E-01  0.48219049941E-01  0.00000000000E+00 0. -1.
     999901    1    1    2    0    0  0.29887921802E-01 -0.10251375601E+00 -0.38754989478E-01  0.88730170024E+00  0.88000000000E+00 0.  1.
        -11    1    3    3    0    0  0.78831611504E-02  0.23177463426E-01  0.20092307805E-01  0.31674926906E-01  0.51100000000E-03 0. -1.
         11    1    3    3    0    0 -0.17418328004E-01  0.70705987197E-01 -0.24190089207E-01  0.76734322912E-01  0.51100000000E-03 0.  1.
</event>
<event>
 8    1  0.2825007E+004  0.1043930E+01  0.7957747E-01            NaN
         13   -1    0    0    0    0  0.00000000000E+00  0.00000000000E+00  0.74505805969E-08  0.10566000000E+00  0.10566000000E+00 0. -1.
     999900   -1    0    0    0    0 -0.00000000000E+00 -0.00000000000E+00 -0.74505805969E-08  0.93827000000E+00  0.93827000000E+00 0. -1.
     999902    2    1    2    0    0 -0.26667946777E-02  0.20093028274E-01 -0.71193188489E-02  0.10224468373E+01  0.10222211154E+01 0.  0.
     999903    2    3    3    0    0 -0.10215962015E+00  0.73718065295E-01  0.28097421585E-01  0.13451965237E+00  0.37883118064E-01 0.  0.
         14    1    1    2    0    0  0.26667946777E-02 -0.20093028274E-01  0.71193188489E-02  0.21483162708E-01  0.00000000000E+00 0.  1.
     999901    1    3    3    0    0  0.99492825471E-01 -0.53625037021E-01 -0.35216740434E-01  0.88792718492E+00  0.88000000000E+00 0.  1.
        -11    1    4    4    0    0 -0.54053111029E-02 -0.41739596044E-02 -0.10615903518E-02  0.69301819582E-02  0.51100000000E-03 0. -1.
         11    1    4    4    0    0 -0.96754309046E-01  0.77892024900E-01  0.29159011937E-01  0.12758947041E+00  0.51100000000E-03 0.  1.
</event>
<event>
 8    1  0.2825007E+004  0.1043930E+01  0.7957747E-01            NaN
         13   -1    0    0    0    0  0.00000000000E+00  0.00000000000E+00  0.74505805969E-08  0.10566000000E+00  0.10566000000E+00 0. -1.
     999900   -1    0    0    0    0 -0.00000000000E+00 -0.00000000000E+00 -0.74505805969E-08  0.93827000000E+00  0.93827000000E+00 0. -1.
     999902    2    1    2    0    0  0.75010285170E-02  0.69436464251E-02  0.91088172579E-02  0.10302387544E+01  0.10301477762E+01 0.  0.
     999903    2    3    3    0    0 -0.39161681231E-01 -0.13510026794E-01 -0.12486863596E+00  0.13864146907E+00  0.43739256928E-01 0.  0.
         14    1    1    2    0    0 -0.75010285170E-02 -0.69436464251E-02 -0.91088172579E-02  0.13691245609E-01  0.00000000000E+00 0.  1.
     999901    1    3    3    0    0  0.46662709748E-01  0.20453673219E-01  0.13397745322E+00  0.89159728533E+00  0.88000000000E+00 0.  1.
        -11    1    4    4    0    0 -0.32035706393E-01 -0.18874063210E-01 -0.45458358014E-01  0.58730232253E-01  0.51100000000E-03 0. -1.
         11    1    4    4    0    0 -0.71259748385E-02  0.53640364161E-02 -0.79410277948E-01  0.79911236812E-01  0.51100000000E-03 0.  1.
</event>
<event>
 8    1  0.2825007E+004  0.1043930E+01  0.7957747E-01            NaN
         13   -1    0    0    0    0  0.00000000000E+00  0.00000000000E+00  0.74505805969E-08  0.10566000000E+00  0.10566000000E+00 0.  1.
     999900   -1    0    0    0    0 -0.00000000000E+00 -0.00000000000E+00 -0.74505805969E-08  0.93827000000E+00  0.93827000000E+00 0. -1.
     999902    2    1    2    0    0  0.13591278335E-01  0.96211643224E-03  0.32140848608E-02  0.10299307552E+01  0.10298356090E+01 0.  0.
     999903    2    3    3    0    0  0.60303905328E-01  0.10505630446E+00  0.55732702855E-01  0.14101238166E+00  0.45879946681E-01 0.  0.
         14    1    1    2    0    0 -0.13591278335E-01 -0.96211643224E-03 -0.32140848608E-02  0.13999244848E-01  0.00000000000E+00 0. -1.
     999901    1    3    3    0    0 -0.46712626993E-01 -0.10409418803E+00 -0.52518617994E-01  0.88891837350E+00  0.88000000000E+00 0. -1.
        -11    1    4    4    0    0 -0.11842415291E-02  0.25411105849E-01 -0.10694933475E-02  0.25466284878E-01  0.51100000000E-03 0.  1.
         11    1    4    4    0    0  0.61488146857E-01  0.79645198615E-01  0.56802196202E-01  0.11554609678E+00  0.51100000000E-03 0. -1.
</event>
<event>
 8    1  0.2825007E+004  0.1043930E+01  0.7957747E-01            NaN
         13   -1    0    0    0    0  0.00000000000E+00  0.00000000000E+00  0.74505805969E-08  0.10566000000E+00  0.10566000000E+00 0. -1.
     999900   -1    0    0    0    0 -0.00000000000E+00 -0.00000000000E+00 -0.74505805969E-08  0.93827000000E+00  0.93827000000E+00 0. -1.
     999902    2    1    2    0    0  0.13863120665E-01 -0.30485741871E-02 -0.10640213009E-02  0.10296958137E+01  0.10295974245E+01 0.  0.
     999903    2    3    3    0    0  0.10767499263E-01 -0.13235696835E+00  0.14689440051E-02  0.14023718080E+00  0.45055554262E-01 0.  0.
         14    1    1    2    0    0 -0.13863120665E-01  0.30485741871E-02  0.10640213009E-02  0.14234186330E-01  0.00000000000E+00 0.  1.
     999901    1    3    3    0    0  0.30956214022E-02  0.12930839417E+00 -0.25329653060E-02  0.88945863287E+00  0.88000000000E+00 0. -1.
        -11    1    4    4    0    0  0.14722929779E-01 -0.88028667998E-01 -0.18993279347E-01  0.91251393590E-01  0.51100000000E-03 0. -1.
         11    1    4    4    0    0 -0.39554305168E-02 -0.44328300357E-01  0.20462223352E-01  0.48985787210E-01  0.51100000000E-03 0.  1.
</event>
<event>
 8    1  0.2825007E+004  0.1043930E+01  0.7957747E-01            NaN
         13   -1    0    0    0    0  0.00000000000E+00  0.00000000000E+00  0.74505805969E-08  0.10566000000E+00  0.10566000000E+00 0.  1.
     999900   -1    0    0    0    0 -0.00000000000E+00 -0.00000000000E+00 -0.74505805969E-08  0.93827000000E+00  0.93827000000E+00 0. -1.
     999902    2    1    2    0    0  0.11335400957E-01  0.68000570364E-02 -0.28460387894E-02  0.10304084606E+01  0.10303197386E+01 0.  0.
     999903    2    3    3    0    0 -0.96484630291E-01 -0.21541925292E-01 -0.87218703267E-01  0.13937132693E+00  0.45209801394E-01 0.  0.
         14    1    1    2    0    0 -0.11335400957E-01 -0.68000570364E-02  0.28460387894E-02  0.13521539385E-01  0.00000000000E+00 0. -1.
     999901    1    3    3    0    0  0.10782003125E+00  0.28341982328E-01  0.84372664477E-01  0.89103713369E+00  0.88000000000E+00 0.  1.
        -11    1    4    4    0    0 -0.30757167640E-02  0.70948057888E-02  0.90046977937E-03  0.78018119445E-02  0.51100000000E-03 0.  1.
         11    1    4    4    0    0 -0.93408913527E-01 -0.28636731081E-01 -0.88119173046E-01  0.13156951498E+00  0.51100000000E-03 0. -1.
</event>
<event>
 8    1  0.2825007E+004  0.1043930E+01  0.7957747E-01            NaN
         13   -1    0    0    0    0  0.00000000000E+00  0.00000000000E+00  0.74505805969E-08  0.10566000000E+00  0.10566000000E+00 0.  1.
     999900   -1    0    0    0    0 -0.00000000000E+00 -0.00000000000E+00 -0.74505805969E-08  0.93827000000E+00  0.93827000000E+00 0. -1.
     999902    2    1    2    0    0  0.14028518658E-01 -0.43311168010E-02 -0.46448562802E-02  0.10285308897E+01  0.10284156059E+01 0.  0.
     999903    2    3    3    0    0 -0.10629011346E+00  0.98708429482E-02  0.73072764423E-01  0.13683682923E+00  0.44605685431E-01 0.  0.
         14    1    1    2    0    0 -0.14028518658E-01  0.43311168010E-02  0.46448562802E-02  0.15399110311E-01  0.00000000000E+00 0. -1.
     999901    1    3    3    0    0  0.12031863212E+00 -0.14201959749E-01 -0.77717620703E-01  0.89169406046E+00  0.88000000000E+00 0. -1.
        -11    1    4    4    0    0 -0.35958638883E-01  0.10074454673E-01  0.50819690692E-01  0.63066793404E-01  0.51100000000E-03 0. -1.
         11    1    4    4    0    0 -0.70331474577E-01 -0.20361172434E-03  0.22253073731E-01  0.73770035823E-01  0.51100000000E-03 0.  1.
</event>
<event>
 8    1  0.2825007E+004  0.1043930E+01  0.7957747E-01            NaN
         13   -1    0    0    0    0  0.00000000000E+00  0.00000000000E+00  0.74505805969E-08  0.10566000000E+00  0.10566000000E+00 0.  1.
     999900   -1    0    0    0    0 -0.00000000000E+00 -0.00000000000E+00 -0.74505805969E-08  0.93827000000E+00  0.93827000000E+00 0. -1.
     999902    2    1    2    0    0  0.10901491018E-01 -0.29344620419E-03  0.74175070457E-02  0.10307410642E+01  0.10306566807E+01 0.  0.
     999903    2    3    3    0    0 -0.10269493114E+00 -0.74686106475E-01 -0.35867544781E-01  0.13927485017E+00  0.44572858772E-01 0.  0.
         14    1    1    2    0    0 -0.10901491018E-01  0.29344620419E-03 -0.74175070457E-02  0.13188935813E-01  0.00000000000E+00 0.  1.
     999901    1    3    3    0    0  0.11359642215E+00  0.74392660271E-01  0.43285051827E-01  0.89146621402E+00  0.88000000000E+00 0.  1.
        -11    1    4    4    0    0  0.18583625354E-02  0.92148393616E-03 -0.66440785706E-02  0.69790790947E-02  0.51100000000E-03 0. -1.
         11    1    4    4    0    0 -0.10455329367E+00 -0.75607590411E-01 -0.29223466210E-01  0.13229577107E+00  0.51100000000E-03 0.  1.
</event>
<event>
 8    1  0.2825007E+004  0.1043930E+01  0.7957747E-01            NaN
         13   -1    0    0    0    0  0.00000000000E+00  0.00000000000E+00  0.74505805969E-08  0.10566000000E+00  0.10566000000E+00 0. -1.
     999900   -1    0    0    0    0 -0.00000000000E+00 -0.00000000000E+00 -0.74505805969E-08  0.93827000000E+00  0.93827000000E+00 0.  1.
     999902    2    1    2    0    0  0.10970369088E-01  0.47589047346E-02  0.50481557775E-02  0.10309500135E+01  0.10308682992E+01 0.  0.
     999903    2    3    3    0    0  0.14442949802E-01  0.80270450725E-01 -0.10585859399E+00  0.14077342456E+00  0.44262524567E-01 0.  0.
         14    1    1    2    0    0 -0.10970369088E-01 -0.47589047346E-02 -0.50481557775E-02  0.12979986477E-01  0.00000000000E+00 0.  1.
     999901    1    3    3    0    0 -0.34725807140E-02 -0.75511545991E-01  0.11090674977E+00  0.89017658896E+00  0.88000000000E+00 0. -1.
        -11    1    4    4    0    0  0.18943503783E-01  0.72124794700E-01 -0.65187414255E-01  0.99047980516E-01  0.51100000000E-03 0. -1.
         11    1    4    4    0    0 -0.45005539807E-02  0.81456560251E-02 -0.40671179738E-01  0.41725444042E-01  0.51100000000E-03 0.  1.
</event>
<event>
 8    1  0.2825007E+004  0.1043930E+01  0.7957747E-01            NaN
         13   -1    0    0    0    0  0.00000000000E+00  0.00000000000E+00  0.74505805969E-08  0.10566000000E+00  0.10566000000E+00 0.  1.
     999900   -1    0    0    0    0 -0.00000000000E+00 -0.00000000000E+00 -0.74505805969E-08  0.93827000000E+00  0.93827000000E+00 0. -1.
     999902    2    1    2    0    0 -0.62534421441E-02  0.48076827630E-02 -0.11469310740E-01  0.10300100704E+01  0.10299160066E+01 0.  0.
     999903    2    3    3    0    0  0.35668190694E-01  0.12619065205E+00  0.19835907895E-01  0.14013858231E+00  0.45266527570E-01 0.  0.
         14    1    1    2    0    0  0.62534421441E-02 -0.48076827630E-02  0.11469310740E-01  0.13919929635E-01  0.00000000000E+00 0.  1.
     999901    1    3    3    0    0 -0.41921632838E-01 -0.12138296929E+00 -0.31305218634E-01  0.88987148805E+00  0.88000000000E+00 0.  1.
        -11    1    4    4    0    0 -0.48605324043E-04  0.14854343131E-01  0.17806884476E-01  0.23194829770E-01  0.51100000000E-03 0.  1.
         11    1    4    4    0    0  0.35716796018E-01  0.11133630892E+00  0.20290234184E-02  0.11694375254E+00  0.51100000000E-03 0. -1.
</event>
<event>
 8    1  0.2825007E+004  0.1043930E+01  0.7957747E-01            NaN
         13   -1    0    0    0    0  0.00000000000E+00  0.00000000000E+00  0.74505805969E-08  0.10566000000E+00  0.10566000000E+00 0. -1.
     999900   -1    0    0    0    0 -0.00000000000E+00 -0.00000000000E+00 -0.74505805969E-08  0.93827000000E+00  0.93827000000E+00 0.  1.
     999902    2    1    2    0    0  0.73099937253E-02 -0.97294817583E-02  0.58295583276E-02  0.10304362024E+01  0.10303478464E+01 0.  0.
     999903    2    3    3    0    0 -0.21809534405E-01 -0.12396800939E+00 -0.45196119733E-01  0.14110948631E+00  0.45005274635E-01 0.  0.
         14    1    1    2    0    0 -0.73099937253E-02  0.97294817583E-02 -0.58295583276E-02  0.13493797606E-01  0.00000000000E+00 0. -1.
     999901    1    3    3    0    0  0.29119528130E-01  0.11423852763E+00  0.51025678061E-01  0.88932671608E+00  0.88000000000E+00 0. -1.
        -11    1    4    4    0    0  0.11318969703E-01 -0.61030883522E-01 -0.15135301571E-01  0.63892302301E-01  0.51100000000E-03 0. -1.
         11    1    4    4    0    0 -0.33128504108E-01 -0.62937125869E-01 -0.30060818162E-01  0.77217184012E-01  0.51100000000E-03 0.  1.
</event>
<event>
 8    1  0.2825007E+004  0.1043930E+01  0.7957747E-01            NaN
         13   -1    0    0    0    0  0.00000000000E+00  0.00000000000E+00  0.74505805969E-08  0.10566000000E+00  0.10566000000E+00 0. -1.
     999900   -1    0    0    0    0 -0.00000000000E+00 -0.00000000000E+00 -0.74505805969E-08  0.93827000000E+00  0.93827000000E+00 0. -1.
     999902    2    1    2    0    0 -0.49357609347E-02  0.12974597447E-01 -0.46501974033E-03  0.10300405019E+01  0.10299468517E+01 0.  0.
     999903    2    3    3    0    0 -0.53893944675E-01  0.17829770081E-01  0.12040578553E+00  0.14041685784E+00  0.44686494623E-01 0.  0.
         14    1    1    2    0    0  0.49357609347E-02 -0.12974597447E-01  0.46501974033E-03  0.13889498129E-01  0.00000000000E+00 0. -1.
     999901    1    3    3    0    0  0.48958183741E-01 -0.48551726344E-02 -0.12087080527E+00  0.88962364403E+00  0.88000000000E+00 0. -1.
        -11    1    4    4    0    0 -0.49437442731E-01  0.63389087556E-03  0.61626407319E-01  0.79009732068E-01  0.51100000000E-03 0. -1.
         11    1    4    4    0    0 -0.44565019447E-02  0.17195879206E-01  0.58779378212E-01  0.61407125769E-01  0.51100000000E-03 0.  1.
</event>
<event>
 8    1  0.2825007E+004  0.1043930E+01  0.7957747E-01            NaN
         13   -1    0    0    0    0  0.00000000000E+00  0.00000000000E+00  0.74505805969E-08  0.10566000000E+00  0.10566000000E+00 0.  1.
     999900   -1    0    0    0    0 -0.00000000000E+00 -0.00000000000E+00 -0.74505805969E-08  0.93827000000E+00  0.93827000000E+00 0.  1.
     999902    2    1    2    0    0  0.25641840572E-02 -0.12295833109E-01 -0.41458689469E-02  0.10307031039E+01  0.10306182308E+01 0.  0.
     999903    2    3    3    0    0 -0.13428969382E-01  0.53866221084E-01  0.11988952249E+00  0.13940182109E+00  0.44468675804E-01 0.  0.
         14    1    1    2    0    0 -0.25641840572E-02  0.12295833109E-01  0.41458689469E-02  0.13226896123E-01  0.00000000000E+00 0.  1.
     999901    1    3    3    0    0  0.15993153439E-01 -0.66162054193E-01 -0.12403539143E+00  0.89130128279E+00  0.88000000000E+00 0.  1.
        -11    1    4    4    0    0  0.16066770609E-01  0.12990154823E-01  0.37325031644E-01  0.42665024884E-01  0.51100000000E-03 0. -1.
         11    1    4    4    0    0 -0.29495739990E-01  0.40876066261E-01  0.82564490844E-01  0.96736796204E-01  0.51100000000E-03 0.  1.
</event>
<event>
 8    1  0.2825007E+004  0.1043930E+01  0.7957747E-01            NaN
         13   -1    0    0    0    0  0.00000000000E+00  0.00000000000E+00  0.74505805969E-08  0.10566000000E+00  0.10566000000E+00 0.  1.
     999900   -1    0    0    0    0 -0.00000000000E+00 -0.00000000000E+00 -0.74505805969E-08  0.93827000000E+00  0.93827000000E+00 0.  1.
     999902    2    1    2    0    0  0.16430703558E-02 -0.10858465114E-01  0.80312693208E-02  0.10303245881E+01  0.10302347547E+01 0.  0.
     999903    2    3    3    0    0  0.32681816523E-01  0.11311150737E+00  0.59917889024E-01  0.13958097793E+00  0.45059757456E-01 0.  0.
         14    1    1    2    0    0 -0.16430703558E-02  0.10858465114E-01 -0.80312693208E-02  0.13605411854E-01  0.00000000000E+00 0. -1.
     999901    1    3    3    0    0 -0.31038746167E-01 -0.12396997249E+00 -0.51886619704E-01  0.89074361022E+00  0.88000000000E+00 0.  1.
        -11    1    4    4    0    0  0.23925526817E-01  0.11249455102E+00  0.47660469141E-01  0.12449592878E+00  0.51100000000E-03 0.  1.
         11    1    4    4    0    0  0.87562897056E-02  0.61695635269E-03  0.12257419883E-01  0.15085049146E-01  0.51100000000E-03 0. -1.
</event>
<event>
 8    1  0.2825007E+004  0.1043930E+01  0.7957747E-01            NaN
         13   -1    0    0    0    0  0.00000000000E+00  0.00000000000E+00  0.74505805969E-08  0.10566000000E+00  0.10566000000E+00 0. -1.
     999900   -1    0    0    0    0 -0.00000000000E+00 -0.00000000000E+00 -0.74505805969E-08  0.93827000000E+00  0.93827000000E+00 0.  1.
     999902    2    1    2    0    0  0.47099056932E-02 -0.76111873019E-02  0.89677562362E-02  0.10312597973E+01  0.10311819604E+01 0.  0.
     999903    2    3    3    0    0  0.70259559945E-01  0.71638325028E-01  0.89218031595E-01  0.14164339175E+00  0.45105852051E-01 0.  0.
         14    1    1    2    0    0 -0.47099056932E-02  0.76111873019E-02 -0.89677562362E-02  0.12670202670E-01  0.00000000000E+00 0.  1.
     999901    1    3    3    0    0 -0.65549654252E-01 -0.79249512330E-01 -0.80250275358E-01  0.88961640558E+00  0.88000000000E+00 0.  1.
        -11    1    4    4    0    0  0.29364089421E-01  0.54389630488E-02  0.12526311062E-01  0.32388295053E-01  0.51100000000E-03 0. -1.
         11    1    4    4    0    0  0.40895470524E-01  0.66199361979E-01  0.76691720532E-01  0.10925509670E+00  0.51100000000E-03 0.  1.
</event>
<event>
 8    1  0.2825007E+004  0.1043930E+01  0.7957747E-01            NaN
         13   -1    0    0    0    0  0.00000000000E+00  0.00000000000E+00  0.74505805969E-08  0.10566000000E+00  0.10566000000E+00 0.  1.
     999900   -1    0    0    0    0 -0.00000000000E+00 -0.00000000000E+00 -0.74505805969E-08  0.93827000000E+00  0.93827000000E+00 0.  1.
     999902    2    1    2    0    0 -0.22059840314E-01 -0.10257604595E-01 -0.40792432516E-02  0.10192623039E+01  0.10189637623E+01 0.  0.
     999903    2    3    3    0    0 -0.10001217850E+00  0.72600349101E-01  0.90641327611E-02  0.13184202247E+00  0.45021259946E-01 0.  0.
         14    1    1    2    0    0  0.22059840314E-01  0.10257604595E-01  0.40792432516E-02  0.24667696127E-01  0.00000000000E+00 0.  1.
     999901    1    3    3    0    0  0.77952338188E-01 -0.82857953696E-01 -0.13143376013E-01  0.88742028141E+00  0.88000000000E+00 0.  1.
        -11    1    4    4    0    0 -0.42615281274E-01  0.46564070682E-01 -0.14123393718E-01  0.64683894809E-01  0.51100000000E-03 0. -1.
         11    1    4    4    0    0 -0.57396897228E-01  0.26036278418E-01  0.23187526479E-01  0.67158127657E-01  0.51100000000E-03 0.  1.
</event>
<event>
 8    1  0.2825007E+004  0.1043930E+01  0.7957747E-01            NaN
         13   -1    0    0    0    0  0.00000000000E+00  0.00000000000E+00  0.74505805969E-08  0.10566000000E+00  0.10566000000E+00 0.  1.
     999900   -1    0    0    0    0 -0.00000000000E+00 -0.00000000000E+00 -0.74505805969E-08  0.93827000000E+00  0.93827000000E+00 0.  1.
     999902    2    1    2    0    0  0.79688641776E-02  0.16263234481E-02  0.15546208900E-01  0.10263848487E+01  0.10262348782E+01 0.  0.
     999903    2    3    3    0    0 -0.10382965562E+00  0.74592549236E-01 -0.13496169071E-01  0.13584207100E+00  0.43889359584E-01 0.  0.
         14    1    1    2    0    0 -0.79688641776E-02 -0.16263234481E-02 -0.15546208900E-01  0.17545151336E-01  0.00000000000E+00 0. -1.
     999901    1    3    3    0    0  0.11179851980E+00 -0.72966225787E-01  0.29042377971E-01  0.89054277767E+00  0.88000000000E+00 0.  1.
        -11    1    4    4    0    0 -0.64051164925E-01  0.69636630410E-01 -0.14613150899E-01  0.95737230602E-01  0.51100000000E-03 0. -1.
         11    1    4    4    0    0 -0.39778490700E-01  0.49559188256E-02  0.11169818277E-02  0.40104840396E-01  0.51100000000E-03 0.  1.
</event>
<event>
 8    1  0.2825007E+004  0.1043930E+01  0.7957747E-01            NaN
         13   -1    0    0    0    0  0.00000000000E+00  0.00000000000E+00  0.74505805969E-08  0.10566000000E+00  0.10566000000E+00 0. -1.
     999900   -1    0    0    0    0 -0.00000000000E+00 -0.00000000000E+00 -0.74505805969E-08  0.93827000000E+00  0.93827000000E+00 0.  1.
     999902    2    1    2    0    0 -0.55481626040E-02  0.10258416386E-01  0.60962819677E-02  0.10307701418E+01  0.10306861323E+01 0.  0.
     999903    2    3    3    0    0  0.58197219123E-01  0.71770135085E-01 -0.96676221457E-01  0.14037171820E+00  0.42662147977E-01 0.  0.
         14    1    1    2    0    0  0.55481626040E-02 -0.10258416386E-01 -0.60962819677E-02  0.13159858239E-01  0.00000000000E+00 0.  1.
     999901    1    3    3    0    0 -0.63745381727E-01 -0.61511718699E-01  0.10277250343E+00  0.89039842357E+00  0.88000000000E+00 0. -1.
        -11    1    4    4    0    0  0.13743046550E-01  0.49555744469E-01 -0.57055337604E-01  0.76812862259E-01  0.51100000000E-03 0.  1.
         11    1    4    4    0    0  0.44454172573E-01  0.22214390616E-01 -0.39620883853E-01  0.63558855936E-01  0.51100000000E-03 0. -1.
</event>
<event>
 8    1  0.2825007E+004  0.1043930E+01  0.7957747E-01            NaN
         13   -1    0    0    0    0  0.00000000000E+00  0.00000000000E+00  0.74505805969E-08  0.10566000000E+00  0.10566000000E+00 0.  1.
     999900   -1    0    0    0    0 -0.00000000000E+00 -0.00000000000E+00 -0.74505805969E-08  0.93827000000E+00  0.93827000000E+00 0.  1.
     999902    2    1    2    0    0  0.11773941495E-01  0.74973192188E-02  0.13255568727E-02  0.10299088519E+01  0.10298134057E+01 0.  0.
     999903    2    3    3    0    0  0.55770317964E-01  0.11469605825E+00  0.41214152934E-01  0.14141667358E+00  0.45106041950E-01 0.  0.
         14    1    1    2    0    0 -0.11773941495E-01 -0.74973192188E-02 -0.13255568727E-02  0.14021148127E-01  0.00000000000E+00 0.  1.
     999901    1    3    3    0    0 -0.43996376470E-01 -0.10719873903E+00 -0.39888596062E-01  0.88849217829E+00  0.88000000000E+00 0.  1.
        -11    1    4    4    0    0  0.72761630416E-02  0.60957395159E-01  0.84881388938E-02  0.61976255099E-01  0.51100000000E-03 0.  1.
         11    1    4    4    0    0  0.48494154923E-01  0.53738663090E-01  0.32726014041E-01  0.79440418481E-01  0.51100000000E-03 0. -1.
</event>
