<event>
 8    1  0.2077555E+004  0.1043930E+01  0.7957747E-01            NaN
         13   -1    0    0    0    0  0.00000000000E+00  0.00000000000E+00  0.74505805969E-08  0.10566000000E+00  0.10566000000E+00 0.  1.
     999900   -1    0    0    0    0 -0.00000000000E+00 -0.00000000000E+00 -0.74505805969E-08  0.93827000000E+00  0.93827000000E+00 0.  1.
     999902    2    1    2    0    0  0.13110547129E-01 -0.28565870859E-02  0.54570903834E-02  0.10294446153E+01  0.10293426978E+01 0.  0.
     999903    2    3    3    0    0  0.44097936651E-01 -0.54244539606E-01 -0.11069745213E+00  0.13978579429E+00  0.48980039650E-01 0.  0.
         14    1    1    2    0    0 -0.13110547129E-01  0.28565870859E-02 -0.54570903834E-02  0.14485384746E-01  0.00000000000E+00 0. -1.
     999901    1    3    3    0    0 -0.30987389523E-01  0.51387952520E-01  0.11615454251E+00  0.88965882096E+00  0.88000000000E+00 0. -1.
        -11    1    4    4    0    0  0.23282705190E-01 -0.59280527975E-01 -0.87286235285E-01  0.10805282666E+00  0.51100000000E-03 0.  1.
         11    1    4    4    0    0  0.20815231461E-01  0.50359883690E-02 -0.23411216841E-01  0.31732967630E-01  0.51100000000E-03 0. -1.
</event>
<event>
 8    1  0.2077555E+004  0.1043930E+01  0.7957747E-01            NaN
         13   -1    0    0    0    0  0.00000000000E+00  0.00000000000E+00  0.74505805969E-08  0.10566000000E+00  0.10566000000E+00 0.  1.
     999900   -1    0    0    0    0 -0.00000000000E+00 -0.00000000000E+00 -0.74505805969E-08  0.93827000000E+00  0.93827000000E+00 0. -1.
     999902    2    1    2    0    0  0.12228069310E-01 -0.54694866603E-02  0.44608192651E-02  0.10298112227E+01  0.10297144335E+01 0.  0.
     999903    2    3    3    0    0  0.80405192777E-01  0.38551699166E-02 -0.10632966488E+00  0.14019917201E+00  0.43242951321E-01 0.  0.
         14    1    1    2    0    0 -0.12228069310E-01  0.54694866603E-02 -0.44608192651E-02  0.14118777281E-01  0.00000000000E+00 0.  1.
     999901    1    3    3    0    0 -0.68177123467E-01 -0.93246565769E-02  0.11079048415E+00  0.88961205071E+00  0.88000000000E+00 0.  1.
        -11    1    4    4    0    0  0.62095299143E-02  0.11245728469E-01 -0.33864723804E-01  0.36222994214E-01  0.51100000000E-03 0. -1.
         11    1    4    4    0    0  0.74195662863E-01 -0.73905585523E-02 -0.72464941077E-01  0.10397617780E+00  0.51100000000E-03 0.  1.
</event>
<event>
 8    1  0.2077555E+004  0.1043930E+01  0.7957747E-01            NaN
         13   -1    0    0    0    0  0.00000000000E+00  0.00000000000E+00  0.74505805969E-08  0.10566000000E+00  0.10566000000E+00 0. -1.
     999900   -1    0    0    0    0 -0.00000000000E+00 -0.00000000000E+00 -0.74505805969E-08  0.93827000000E+00  0.93827000000E+00 0.  1.
     999902    2    1    2    0    0 -0.13289315607E-01  0.47294864592E-02 -0.43507037884E-02  0.10291684765E+01  0.10290626077E+01 0.  0.
     999903    2    3    3    0    0  0.12544952811E+00 -0.17582298146E-01  0.28688681345E-01  0.13740736309E+00  0.44844416420E-01 0.  0.
         14    1    1    2    0    0  0.13289315607E-01 -0.47294864592E-02  0.43507037884E-02  0.14761523462E-01  0.00000000000E+00 0. -1.
     999901    1    3    3    0    0 -0.13873884371E+00  0.22311784605E-01 -0.33039385134E-01  0.89176111345E+00  0.88000000000E+00 0.  1.
        -11    1    4    4    0    0  0.71295015097E-01 -0.61203091547E-02 -0.64353964311E-02  0.71847844853E-01  0.51100000000E-03 0. -1.
         11    1    4    4    0    0  0.54154513009E-01 -0.11461988991E-01  0.35124077777E-01  0.65559518238E-01  0.51100000000E-03 0.  1.
</event>
<event>
 8    1  0.2077555E+004  0.1043930E+01  0.7957747E-01            NaN
         13   -1    0    0    0    0  0.00000000000E+00  0.00000000000E+00  0.74505805969E-08  0.10566000000E+00  0.10566000000E+00 0.  1.
     999900   -1    0    0    0    0 -0.00000000000E+00 -0.00000000000E+00 -0.74505805969E-08  0.93827000000E+00  0.93827000000E+00 0.  1.
     999902    2    1    2    0    0 -0.12552801983E-01 -0.39348681022E-02  0.17156702410E-02  0.10306635178E+01  0.10305781326E+01 0.  0.
     999903    2    3    3    0    0 -0.91873078193E-02 -0.10825730868E+00  0.78418853966E-01  0.14118171558E+00  0.44482678067E-01 0.  0.
         14    1    1    2    0    0  0.12552801983E-01  0.39348681022E-02 -0.17156702410E-02  0.13266482163E-01  0.00000000000E+00 0. -1.
     999901    1    3    3    0    0 -0.33654941633E-02  0.10432244058E+00 -0.76703183725E-01  0.88948180226E+00  0.88000000000E+00 0.  1.
        -11    1    4    4    0    0  0.73470327180E-02 -0.38063565421E-02  0.16933337240E-01  0.18853813167E-01  0.51100000000E-03 0.  1.
         11    1    4    4    0    0 -0.16534340537E-01 -0.10445095214E+00  0.61485516726E-01  0.12232790241E+00  0.51100000000E-03 0. -1.
</event>
<event>
 8    1  0.2077555E+004  0.1043930E+01  0.7957747E-01            NaN
         13   -1    0    0    0    0  0.00000000000E+00  0.00000000000E+00  0.74505805969E-08  0.10566000000E+00  0.10566000000E+00 0.  1.
     999900   -1    0    0    0    0 -0.00000000000E+00 -0.00000000000E+00 -0.74505805969E-08  0.93827000000E+00  0.93827000000E+00 0. -1.
     999902    2    1    2    0    0 -0.64453063357E-02 -0.12676108332E-01 -0.74567081104E-03  0.10296898553E+01  0.10295913832E+01 0.  0.
     999903    2    3    3    0    0 -0.62046537794E-01 -0.11465257291E+00 -0.30742600057E-01  0.14155106432E+00  0.45788765273E-01 0.  0.
         14    1    1    2    0    0  0.64453063357E-02  0.12676108332E-01  0.74567081104E-03  0.14240144703E-01  0.00000000000E+00 0.  1.
     999901    1    3    3    0    0  0.55601231458E-01  0.10197646458E+00  0.29996929246E-01  0.88813879097E+00  0.88000000000E+00 0.  1.
        -11    1    4    4    0    0 -0.22423801105E-01 -0.79907721659E-02 -0.49955096619E-03  0.23815750418E-01  0.51100000000E-03 0.  1.
         11    1    4    4    0    0 -0.39622736689E-01 -0.10666180075E+00 -0.30243049091E-01  0.11773531391E+00  0.51100000000E-03 0. -1.
</event>
<event>
 8    1  0.2077555E+004  0.1043930E+01  0.7957747E-01            NaN
         13   -1    0    0    0    0  0.00000000000E+00  0.00000000000E+00  0.74505805969E-08  0.10566000000E+00  0.10566000000E+00 0. -1.
     999900   -1    0    0    0    0 -0.00000000000E+00 -0.00000000000E+00 -0.74505805969E-08  0.93827000000E+00  0.93827000000E+00 0.  1.
     999902    2    1    2    0    0 -0.13088874009E-01  0.46455944327E-02  0.14452343123E-03  0.10300403975E+01  0.10299467459E+01 0.  0.
     999903    2    3    3    0    0 -0.50421937814E-01  0.11624750801E+00 -0.42041361432E-01  0.14120498324E+00  0.45994741987E-01 0.  0.
         14    1    1    2    0    0  0.13088874009E-01 -0.46455944327E-02 -0.14452343123E-03  0.13889602495E-01  0.00000000000E+00 0. -1.
     999901    1    3    3    0    0  0.37333063805E-01 -0.11160191357E+00  0.42185884863E-01  0.88883541426E+00  0.88000000000E+00 0. -1.
        -11    1    4    4    0    0 -0.17911063313E-01  0.75744365060E-01 -0.43652835886E-01  0.89240384520E-01  0.51100000000E-03 0.  1.
         11    1    4    4    0    0 -0.32510874501E-01  0.40503142946E-01  0.16114744541E-02  0.51964598722E-01  0.51100000000E-03 0. -1.
</event>
<event>
 8    1  0.2077555E+004  0.1043930E+01  0.7957747E-01            NaN
         13   -1    0    0    0    0  0.00000000000E+00  0.00000000000E+00  0.74505805969E-08  0.10566000000E+00  0.10566000000E+00 0.  1.
     999900   -1    0    0    0    0 -0.00000000000E+00 -0.00000000000E+00 -0.74505805969E-08  0.93827000000E+00  0.93827000000E+00 0. -1.
     999902    2    1    2    0    0 -0.38080069114E-02 -0.13719569300E-01 -0.13564854583E-02  0.10296272887E+01  0.10295279433E+01 0.  0.
     999903    2    3    3    0    0 -0.92172568470E-01  0.15739698575E-01 -0.94031532860E-01  0.13987181181E+00  0.44482289480E-01 0.  0.
         14    1    1    2    0    0  0.38080069114E-02  0.13719569300E-01  0.13564854583E-02  0.14302711323E-01  0.00000000000E+00 0. -1.
     999901    1    3    3    0    0  0.88364561559E-01 -0.29459267875E-01  0.92675047402E-01  0.88975547687E+00  0.88000000000E+00 0.  1.
        -11    1    4    4    0    0 -0.48807741261E-01  0.25071963958E-01 -0.31716351972E-01  0.63379705641E-01  0.51100000000E-03 0. -1.
         11    1    4    4    0    0 -0.43364827209E-01 -0.93322653832E-02 -0.62315180888E-01  0.76492106169E-01  0.51100000000E-03 0.  1.
</event>
<event>
 8    1  0.2077555E+004  0.1043930E+01  0.7957747E-01            NaN
         13   -1    0    0    0    0  0.00000000000E+00  0.00000000000E+00  0.74505805969E-08  0.10566000000E+00  0.10566000000E+00 0.  1.
     999900   -1    0    0    0    0 -0.00000000000E+00 -0.00000000000E+00 -0.74505805969E-08  0.93827000000E+00  0.93827000000E+00 0. -1.
     999902    2    1    2    0    0 -0.11510982957E-01  0.57003185679E-02 -0.32752771455E-02  0.10306739146E+01  0.10305886640E+01 0.  0.
     999903    2    3    3    0    0 -0.22427866623E-02  0.12916417122E+00 -0.35443077493E-01  0.14142479889E+00  0.45346982036E-01 0.  0.
         14    1    1    2    0    0  0.11510982957E-01 -0.57003185679E-02  0.32752771455E-02  0.13256085425E-01  0.00000000000E+00 0.  1.
     999901    1    3    3    0    0 -0.92681962950E-02 -0.12346385265E+00  0.32167800347E-01  0.88924911569E+00  0.88000000000E+00 0. -1.
        -11    1    4    4    0    0 -0.13755397050E-01  0.84051744077E-01 -0.40470604348E-02  0.85267499374E-01  0.51100000000E-03 0. -1.
         11    1    4    4    0    0  0.11512610387E-01  0.45112427140E-01 -0.31396017058E-01  0.56157299512E-01  0.51100000000E-03 0.  1.
</event>
<event>
 8    1  0.2077555E+004  0.1043930E+01  0.7957747E-01            NaN
         13   -1    0    0    0    0  0.00000000000E+00  0.00000000000E+00  0.74505805969E-08  0.10566000000E+00  0.10566000000E+00 0.  1.
     999900   -1    0    0    0    0 -0.00000000000E+00 -0.00000000000E+00 -0.74505805969E-08  0.93827000000E+00  0.93827000000E+00 0.  1.
     999902    2    1    2    0    0 -0.83231545477E-02 -0.57556364541E-02  0.94048408148E-02  0.10301150341E+01  0.10300223930E+01 0.  0.
     999903    2    3    3    0    0  0.11608265500E+00  0.33894819866E-01  0.49705713689E-01  0.13956850274E+00  0.48833056190E-01 0.  0.
         14    1    1    2    0    0  0.83231545477E-02  0.57556364541E-02 -0.94048408148E-02  0.13814965920E-01  0.00000000000E+00 0.  1.
     999901    1    3    3    0    0 -0.12440580955E+00 -0.39650456320E-01 -0.40300872874E-01  0.89054653134E+00  0.88000000000E+00 0. -1.
        -11    1    4    4    0    0  0.47315864106E-01  0.38728041669E-01  0.28342581817E-01  0.67395958875E-01  0.51100000000E-03 0.  1.
         11    1    4    4    0    0  0.68766790894E-01 -0.48332218034E-02  0.21363131872E-01  0.72172543860E-01  0.51100000000E-03 0. -1.
</event>
<event>
 8    1  0.2077555E+004  0.1043930E+01  0.7957747E-01            NaN
         13   -1    0    0    0    0  0.00000000000E+00  0.00000000000E+00  0.74505805969E-08  0.10566000000E+00  0.10566000000E+00 0. -1.
     999900   -1    0    0    0    0 -0.00000000000E+00 -0.00000000000E+00 -0.74505805969E-08  0.93827000000E+00  0.93827000000E+00 0. -1.
     999902    2    1    2    0    0  0.52895962851E-03 -0.12087087650E-01  0.66271176291E-02  0.10301352121E+01  0.10300428433E+01 0.  0.
     999903    2    3    3    0    0 -0.12588103231E+00 -0.41170080974E-01 -0.13551237281E-01  0.14039790669E+00  0.44574951599E-01 0.  0.
         14    1    1    2    0    0 -0.52895962851E-03  0.12087087650E-01 -0.66271176291E-02  0.13794787937E-01  0.00000000000E+00 0. -1.
     999901    1    3    3    0    0  0.12640999193E+00  0.29082993324E-01  0.20178354910E-01  0.88973730537E+00  0.88000000000E+00 0.  1.
        -11    1    4    4    0    0 -0.54696183257E-01 -0.21806597378E-01 -0.28031904997E-01  0.65216937760E-01  0.51100000000E-03 0.  1.
         11    1    4    4    0    0 -0.71184849049E-01 -0.19363483596E-01  0.14480667716E-01  0.75180968932E-01  0.51100000000E-03 0. -1.
</event>
<event>
 8    1  0.2077555E+004  0.1043930E+01  0.7957747E-01            NaN
         13   -1    0    0    0    0  0.00000000000E+00  0.00000000000E+00  0.74505805969E-08  0.10566000000E+00  0.10566000000E+00 0.  1.
     999900   -1    0    0    0    0 -0.00000000000E+00 -0.00000000000E+00 -0.74505805969E-08  0.93827000000E+00  0.93827000000E+00 0.  1.
     999902    2    1    2    0    0  0.51518929471E-02  0.45309273323E-02 -0.12419348316E-01  0.10297415711E+01  0.10296438178E+01 0.  0.
     999903    2    3    3    0    0 -0.11307648054E+00  0.66771531056E-01 -0.15169655932E-01  0.13965202205E+00  0.45031555495E-01 0.  0.
         14    1    1    2    0    0 -0.51518929471E-02 -0.45309273323E-02  0.12419348316E-01  0.14188428948E-01  0.00000000000E+00 0.  1.
     999901    1    3    3    0    0  0.11822837349E+00 -0.62240603724E-01  0.27503076167E-02  0.89008954900E+00  0.88000000000E+00 0. -1.
        -11    1    4    4    0    0 -0.79012854348E-01  0.60934183856E-01  0.45012081939E-02  0.99882570605E-01  0.51100000000E-03 0.  1.
         11    1    4    4    0    0 -0.34063626194E-01  0.58373472003E-02 -0.19670864126E-01  0.39769451446E-01  0.51100000000E-03 0. -1.
</event>
<event>
 8    1  0.2077555E+004  0.1043930E+01  0.7957747E-01            NaN
         13   -1    0    0    0    0  0.00000000000E+00  0.00000000000E+00  0.74505805969E-08  0.10566000000E+00  0.10566000000E+00 0.  1.
     999900   -1    0    0    0    0 -0.00000000000E+00 -0.00000000000E+00 -0.74505805969E-08  0.93827000000E+00  0.93827000000E+00 0.  1.
     999902    2    1    2    0    0  0.12680133380E-02 -0.39629891919E-02  0.13317145640E-01  0.10299779568E+01  0.10298834555E+01 0.  0.
     999903    2    3    3    0    0  0.73978859625E-01  0.10246024976E+00 -0.37815614948E-01  0.13912031826E+00  0.44198051607E-01 0.  0.
         14    1    1    2    0    0 -0.12680133380E-02  0.39629891919E-02 -0.13317145640E-01  0.13952043189E-01  0.00000000000E+00 0. -1.
     999901    1    3    3    0    0 -0.72710846287E-01 -0.10642323896E+00  0.51132760588E-01  0.89085763855E+00  0.88000000000E+00 0. -1.
        -11    1    4    4    0    0  0.58196365605E-01  0.61900678452E-01 -0.59386725637E-02  0.85170651725E-01  0.51100000000E-03 0. -1.
         11    1    4    4    0    0  0.15782494020E-01  0.40559571313E-01 -0.31876942384E-01  0.53949666536E-01  0.51100000000E-03 0.  1.
</event>
<event>
 8    1  0.2077555E+004  0.1043930E+01  0.7957747E-01            NaN
         13   -1    0    0    0    0  0.00000000000E+00  0.00000000000E+00  0.74505805969E-08  0.10566000000E+00  0.10566000000E+00 0. -1.
     999900   -1    0    0    0    0 -0.00000000000E+00 -0.00000000000E+00 -0.74505805969E-08  0.93827000000E+00  0.93827000000E+00 0.  1.
     999902    2    1    2    0    0  0.12449263681E-01  0.35139893709E-02  0.49536694993E-02  0.10300782446E+01  0.10299851061E+01 0.  0.
     999903    2    3    3    0    0 -0.35716555871E-01  0.80088221805E-01  0.10072272567E+00  0.14027193340E+00  0.42910979914E-01 0.  0.
         14    1    1    2    0    0 -0.12449263681E-01 -0.35139893709E-02 -0.49536694993E-02  0.13851755449E-01  0.00000000000E+00 0.  1.
     999901    1    3    3    0    0  0.48165819552E-01 -0.76574232434E-01 -0.95769056174E-01  0.88980631115E+00  0.88000000000E+00 0.  1.
        -11    1    4    4    0    0 -0.69625420380E-02 -0.58023648885E-03  0.24973178718E-01  0.25937124788E-01  0.51100000000E-03 0. -1.
         11    1    4    4    0    0 -0.28754013833E-01  0.80668458294E-01  0.75749546956E-01  0.11433480861E+00  0.51100000000E-03 0.  1.
</event>
<event>
 8    1  0.2077555E+004  0.1043930E+01  0.7957747E-01            NaN
         13   -1    0    0    0    0  0.00000000000E+00  0.00000000000E+00  0.74505805969E-08  0.10566000000E+00  0.10566000000E+00 0.  1.
     999900   -1    0    0    0    0 -0.00000000000E+00 -0.00000000000E+00 -0.74505805969E-08  0.93827000000E+00  0.93827000000E+00 0.  1.
     999902    2    1    2    0    0  0.90563946910E-02 -0.10217098409E-01  0.23951434563E-02  0.10300683949E+01  0.10299751230E+01 0.  0.
     999903    2    3    3    0    0  0.56444787819E-01 -0.84495522982E-01  0.87903079405E-01  0.14154459031E+00  0.44524287756E-01 0.  0.
         14    1    1    2    0    0 -0.90563946910E-02  0.10217098409E-01 -0.23951434563E-02  0.13861605133E-01  0.00000000000E+00 0. -1.
     999901    1    3    3    0    0 -0.47388393128E-01  0.74278424573E-01 -0.85507935949E-01  0.88852380456E+00  0.88000000000E+00 0.  1.
        -11    1    4    4    0    0  0.35110068424E-01 -0.15915296451E-01  0.24032933303E-01  0.45429688200E-01  0.51100000000E-03 0.  1.
         11    1    4    4    0    0  0.21334719395E-01 -0.68580226531E-01  0.63870146103E-01  0.96114902106E-01  0.51100000000E-03 0. -1.
</event>
<event>
 8    1  0.2077555E+004  0.1043930E+01  0.7957747E-01            NaN
         13   -1    0    0    0    0  0.00000000000E+00  0.00000000000E+00  0.74505805969E-08  0.10566000000E+00  0.10566000000E+00 0. -1.
     999900   -1    0    0    0    0 -0.00000000000E+00 -0.00000000000E+00 -0.74505805969E-08  0.93827000000E+00  0.93827000000E+00 0.  1.
     999902    2    1    2    0    0  0.10361055894E-01 -0.91309818375E-02 -0.28038799560E-02  0.10298378727E+01  0.10297414511E+01 0.  0.
     999903    2    3    3    0    0  0.90637142298E-01  0.89945099351E-01  0.36409707216E-01  0.13978280401E+00  0.43684700480E-01 0.  0.
         14    1    1    2    0    0 -0.10361055894E-01  0.91309818375E-02  0.28038799560E-02  0.14092127283E-01  0.00000000000E+00 0. -1.
     999901    1    3    3    0    0 -0.80276086404E-01 -0.99076081189E-01 -0.39213587172E-01  0.89005506871E+00  0.88000000000E+00 0.  1.
        -11    1    4    4    0    0  0.53455769677E-01  0.73646128524E-01  0.10469267470E-01  0.91603156281E-01  0.51100000000E-03 0.  1.
         11    1    4    4    0    0  0.37181372621E-01  0.16298970827E-01  0.25940439746E-01  0.48179647729E-01  0.51100000000E-03 0. -1.
</event>
<event>
 8    1  0.2077555E+004  0.1043930E+01  0.7957747E-01            NaN
         13   -1    0    0    0    0  0.00000000000E+00  0.00000000000E+00  0.74505805969E-08  0.10566000000E+00  0.10566000000E+00 0.  1.
     999900   -1    0    0    0    0 -0.00000000000E+00 -0.00000000000E+00 -0.74505805969E-08  0.93827000000E+00  0.93827000000E+00 0. -1.
     999902    2    1    2    0    0  0.38379358005E-02 -0.94525287111E-02 -0.90210744652E-02  0.10303116361E+01  0.10302216304E+01 0.  0.
     999903    2    3    3    0    0  0.16610408082E-01 -0.67497999254E-01  0.11265647183E+00  0.13995337229E+00  0.45426646483E-01 0.  0.
         14    1    1    2    0    0 -0.38379358005E-02  0.94525287111E-02  0.90210744652E-02  0.13618363879E-01  0.00000000000E+00 0.  1.
     999901    1    3    3    0    0 -0.12772472282E-01  0.58045470542E-01 -0.12167754629E+00  0.89035826383E+00  0.88000000000E+00 0. -1.
        -11    1    4    4    0    0 -0.11797558412E-02 -0.11536200243E-01 -0.13756043663E-02  0.11688847174E-01  0.51100000000E-03 0. -1.
         11    1    4    4    0    0  0.17790163923E-01 -0.55961799011E-01  0.11403207620E+00  0.12826452512E+00  0.51100000000E-03 0.  1.
</event>
<event>
 8    1  0.2077555E+004  0.1043930E+01  0.7957747E-01            NaN
         13   -1    0    0    0    0  0.00000000000E+00  0.00000000000E+00  0.74505805969E-08  0.10566000000E+00  0.10566000000E+00 0.  1.
     999900   -1    0    0    0    0 -0.00000000000E+00 -0.00000000000E+00 -0.74505805969E-08  0.93827000000E+00  0.93827000000E+00 0.  1.
     999902    2    1    2    0    0  0.88746754376E-02 -0.12195664152E-01 -0.42714010749E-04  0.10288470324E+01  0.10287364678E+01 0.  0.
     999903    2    3    3    0    0 -0.52540160333E-01  0.79739800941E-01 -0.88141608330E-01  0.13756406553E+00  0.45122330427E-01 0.  0.
         14    1    1    2    0    0 -0.88746754376E-02  0.12195664152E-01  0.42714010749E-04  0.15082967636E-01  0.00000000000E+00 0. -1.
     999901    1    3    3    0    0  0.61414835770E-01 -0.91935465093E-01  0.88098894319E-01  0.89128296684E+00  0.88000000000E+00 0.  1.
        -11    1    4    4    0    0  0.80024292861E-02  0.71783543588E-02 -0.12661126954E-01  0.16617247141E-01  0.51100000000E-03 0.  1.
         11    1    4    4    0    0 -0.60542589619E-01  0.72561446582E-01 -0.75480481376E-01  0.12094681839E+00  0.51100000000E-03 0. -1.
</event>
<event>
 8    1  0.2077555E+004  0.1043930E+01  0.7957747E-01            NaN
         13   -1    0    0    0    0  0.00000000000E+00  0.00000000000E+00  0.74505805969E-08  0.10566000000E+00  0.10566000000E+00 0. -1.
     999900   -1    0    0    0    0 -0.00000000000E+00 -0.00000000000E+00 -0.74505805969E-08  0.93827000000E+00  0.93827000000E+00 0.  1.
     999902    2    1    2    0    0  0.11235439350E-01 -0.52858525835E-02 -0.88564287705E-02  0.10286783881E+01  0.10285653185E+01 0.  0.
     999903    2    3    3    0    0  0.82722918646E-01 -0.87686935635E-01  0.54283564106E-01  0.13969747892E+00  0.45128708547E-01 0.  0.
         14    1    1    2    0    0 -0.11235439350E-01  0.52858525835E-02  0.88564287705E-02  0.15251611898E-01  0.00000000000E+00 0. -1.
     999901    1    3    3    0    0 -0.71487479296E-01  0.82401083051E-01 -0.63139992876E-01  0.88898090918E+00  0.88000000000E+00 0.  1.
        -11    1    4    4    0    0  0.15742293390E-01 -0.12500384061E-01 -0.76106435024E-02  0.21500288797E-01  0.51100000000E-03 0.  1.
         11    1    4    4    0    0  0.66980625256E-01 -0.75186551573E-01  0.61894207608E-01  0.11819719013E+00  0.51100000000E-03 0. -1.
</event>
<event>
 8    1  0.2077555E+004  0.1043930E+01  0.7957747E-01            NaN
         13   -1    0    0    0    0  0.00000000000E+00  0.00000000000E+00  0.74505805969E-08  0.10566000000E+00  0.10566000000E+00 0. -1.
     999900   -1    0    0    0    0 -0.00000000000E+00 -0.00000000000E+00 -0.74505805969E-08  0.93827000000E+00  0.93827000000E+00 0.  1.
     999902    2    1    2    0    0  0.12404502756E-01 -0.46113322701E-02 -0.29892589101E-02  0.10303626958E+01  0.10302733682E+01 0.  0.
     999903    2    3    3    0    0 -0.14941886482E-01 -0.12584481044E+00 -0.41599768297E-01  0.14079192704E+00  0.45073825116E-01 0.  0.
         14    1    1    2    0    0 -0.12404502756E-01  0.46113322701E-02  0.29892589101E-02  0.13567304182E-01  0.00000000000E+00 0. -1.
     999901    1    3    3    0    0  0.27346389238E-01  0.12123347817E+00  0.38610509387E-01  0.88957076878E+00  0.88000000000E+00 0. -1.
        -11    1    4    4    0    0 -0.46878076134E-02 -0.10710306806E+00 -0.17574085770E-01  0.10863771141E+00  0.51100000000E-03 0.  1.
         11    1    4    4    0    0 -0.10254078869E-01 -0.18741742375E-01 -0.24025682526E-01  0.32154215626E-01  0.51100000000E-03 0. -1.
</event>
<event>
 8    1  0.2077555E+004  0.1043930E+01  0.7957747E-01            NaN
         13   -1    0    0    0    0  0.00000000000E+00  0.00000000000E+00  0.74505805969E-08  0.10566000000E+00  0.10566000000E+00 0. -1.
     999900   -1    0    0    0    0 -0.00000000000E+00 -0.00000000000E+00 -0.74505805969E-08  0.93827000000E+00  0.93827000000E+00 0.  1.
     999902    2    1    2    0    0 -0.11886265108E-01  0.34037624600E-02  0.25590186053E-02  0.10313039367E+01  0.10312266446E+01 0.  0.
     999903    2    3    3    0    0  0.13162840420E+00 -0.81203570092E-02  0.91286638329E-02  0.13957952535E+00  0.44801053614E-01 0.  0.
         14    1    1    2    0    0  0.11886265108E-01 -0.34037624600E-02 -0.25590186053E-02  0.12626063256E-01  0.00000000000E+00 0. -1.
     999901    1    3    3    0    0 -0.14351466930E+00  0.11524119469E-01 -0.65696452276E-02  0.89172441139E+00  0.88000000000E+00 0. -1.
        -11    1    4    4    0    0  0.16510853545E-01 -0.10522214523E-01  0.14409085147E-01  0.24314772033E-01  0.51100000000E-03 0.  1.
         11    1    4    4    0    0  0.11511755065E+00  0.24018575134E-02 -0.52804213140E-02  0.11526475332E+00  0.51100000000E-03 0. -1.
</event>
<event>
 8    1  0.2077555E+004  0.1043930E+01  0.7957747E-01            NaN
         13   -1    0    0    0    0  0.00000000000E+00  0.00000000000E+00  0.74505805969E-08  0.10566000000E+00  0.10566000000E+00 0.  1.
     999900   -1    0    0    0    0 -0.00000000000E+00 -0.00000000000E+00 -0.74505805969E-08  0.93827000000E+00  0.93827000000E+00 0.  1.
     999902    2    1    2    0    0  0.12107240280E-01 -0.46927862182E-02 -0.63993917346E-02  0.10294538222E+01  0.10293520352E+01 0.  0.
     999903    2    3    3    0    0  0.11183529293E+00  0.48415816962E-01  0.53113440946E-01  0.14023619670E+00  0.44653434122E-01 0.  0.
         14    1    1    2    0    0 -0.12107240280E-01  0.46927862182E-02  0.63993917346E-02  0.14476177820E-01  0.00000000000E+00 0. -1.
     999901    1    3    3    0    0 -0.99728052646E-01 -0.53108603180E-01 -0.59512832680E-01  0.88921762548E+00  0.88000000000E+00 0.  1.
        -11    1    4    4    0    0  0.37667897342E-01  0.31667185393E-01  0.39244517762E-01  0.62945011052E-01  0.51100000000E-03 0. -1.
         11    1    4    4    0    0  0.74167395584E-01  0.16748631569E-01  0.13868923183E-01  0.77291185645E-01  0.51100000000E-03 0.  1.
</event>
<event>
 8    1  0.2077555E+004  0.1043930E+01  0.7957747E-01            NaN
         13   -1    0    0    0    0  0.00000000000E+00  0.00000000000E+00  0.74505805969E-08  0.10566000000E+00  0.10566000000E+00 0.  1.
     999900   -1    0    0    0    0 -0.00000000000E+00 -0.00000000000E+00 -0.74505805969E-08  0.93827000000E+00  0.93827000000E+00 0. -1.
     999902    2    1    2    0    0 -0.11518204110E-01  0.20159771759E-01  0.10576120503E-02  0.10206877117E+01  0.10204230499E+01 0.  0.
     999903    2    3    3    0    0  0.51240061769E-01 -0.63756228661E-01 -0.90349794086E-01  0.12976919186E+00  0.44570811529E-01 0.  0.
         14    1    1    2    0    0  0.11518204110E-01 -0.20159771759E-01 -0.10576120503E-02  0.23242288324E-01  0.00000000000E+00 0. -1.
     999901    1    3    3    0    0 -0.62758265879E-01  0.83916000419E-01  0.91407406137E-01  0.89091851982E+00  0.88000000000E+00 0.  1.
        -11    1    4    4    0    0  0.57304652008E-01 -0.53301087374E-01 -0.65208457987E-01  0.10186870555E+00  0.51100000000E-03 0.  1.
         11    1    4    4    0    0 -0.60645902388E-02 -0.10455141287E-01 -0.25141336099E-01  0.27900486303E-01  0.51100000000E-03 0. -1.
</event>
<event>
 8    1  0.2077555E+004  0.1043930E+01  0.7957747E-01            NaN
         13   -1    0    0    0    0  0.00000000000E+00  0.00000000000E+00  0.74505805969E-08  0.10566000000E+00  0.10566000000E+00 0.  1.
     999900   -1    0    0    0    0 -0.00000000000E+00 -0.00000000000E+00 -0.74505805969E-08  0.93827000000E+00  0.93827000000E+00 0. -1.
     999902    2    1    2    0    0  0.32745628619E-02 -0.62746798594E-02  0.11111321014E-01  0.10307559412E+01  0.10306717492E+01 0.  0.
     999903    2    3    3    0    0 -0.13093862184E+00  0.22505054095E-01 -0.59849999872E-02  0.13995083561E+00  0.43577700883E-01 0.  0.
         14    1    1    2    0    0 -0.32745628619E-02  0.62746798594E-02 -0.11111321014E-01  0.13174058750E-01  0.00000000000E+00 0. -1.
     999901    1    3    3    0    0  0.13421318470E+00 -0.28779733955E-01  0.17096321001E-01  0.89080510564E+00  0.88000000000E+00 0.  1.
        -11    1    4    4    0    0 -0.38604740151E-01  0.25314446136E-01  0.68950176899E-02  0.46679219523E-01  0.51100000000E-03 0.  1.
         11    1    4    4    0    0 -0.92333881692E-01 -0.28093920410E-02 -0.12880017677E-01  0.93271616091E-01  0.51100000000E-03 0. -1.
</event>
<event>
 8    1  0.2077555E+004  0.1043930E+01  0.7957747E-01            NaN
         13   -1    0    0    0    0  0.00000000000E+00  0.00000000000E+00  0.74505805969E-08  0.10566000000E+00  0.10566000000E+00 0.  1.
     999900   -1    0    0    0    0 -0.00000000000E+00 -0.00000000000E+00 -0.74505805969E-08  0.93827000000E+00  0.93827000000E+00 0.  1.
     999902    2    1    2    0    0  0.67985644443E-02 -0.83210233177E-02 -0.44456026560E-02  0.10323014450E+01  0.10322359469E+01 0.  0.
     999903    2    3    3    0    0  0.12407789890E-01  0.12162516409E+00 -0.46685944782E-01  0.14173885794E+00  0.54439807322E-01 0.  0.
         14    1    1    2    0    0 -0.67985644443E-02  0.83210233177E-02  0.44456026560E-02  0.11628554963E-01  0.00000000000E+00 0.  1.
     999901    1    3    3    0    0 -0.56092254458E-02 -0.12994618740E+00  0.42240342126E-01  0.89056258710E+00  0.88000000000E+00 0. -1.
        -11    1    4    4    0    0  0.29382855328E-02  0.39115903177E-01 -0.43569339037E-01  0.58627944091E-01  0.51100000000E-03 0. -1.
         11    1    4    4    0    0  0.94695043574E-02  0.82509260910E-01 -0.31166057448E-02  0.83110913851E-01  0.51100000000E-03 0.  1.
</event>
<event>
 8    1  0.2077555E+004  0.1043930E+01  0.7957747E-01            NaN
         13   -1    0    0    0    0  0.00000000000E+00  0.00000000000E+00  0.74505805969E-08  0.10566000000E+00  0.10566000000E+00 0. -1.
     999900   -1    0    0    0    0 -0.00000000000E+00 -0.00000000000E+00 -0.74505805969E-08  0.93827000000E+00  0.93827000000E+00 0.  1.
     999902    2    1    2    0    0  0.60001732684E-02  0.34961615217E-02 -0.10681102411E-01  0.10311898598E+01  0.10311111558E+01 0.  0.
     999903    2    3    3    0    0  0.53686269812E-01  0.74934802610E-01 -0.99011147561E-01  0.14260692040E+00  0.45123011823E-01 0.  0.
         14    1    1    2    0    0 -0.60001732684E-02 -0.34961615217E-02  0.10681102411E-01  0.12740140241E-01  0.00000000000E+00 0. -1.
     999901    1    3    3    0    0 -0.47686096544E-01 -0.71438641088E-01  0.88330045150E-01  0.88858293936E+00  0.88000000000E+00 0. -1.
        -11    1    4    4    0    0  0.19319568576E-01  0.53139091077E-01 -0.34217809482E-01  0.66091817475E-01  0.51100000000E-03 0. -1.
         11    1    4    4    0    0  0.34366701236E-01  0.21795711533E-01 -0.64793338079E-01  0.76515102924E-01  0.51100000000E-03 0.  1.
</event>
<event>
 8    1  0.2077555E+004  0.1043930E+01  0.7957747E-01            NaN
         13   -1    0    0    0    0  0.00000000000E+00  0.00000000000E+00  0.74505805969E-08  0.10566000000E+00  0.10566000000E+00 0.  1.
     999900   -1    0    0    0    0 -0.00000000000E+00 -0.00000000000E+00 -0.74505805969E-08  0.93827000000E+00  0.93827000000E+00 0.  1.
     999902    2    1    2    0    0 -0.11533122443E-04 -0.39626374069E-02 -0.13320214594E-01  0.10300328512E+01  0.10299390971E+01 0.  0.
     999903    2    3    3    0    0  0.51898778591E-01 -0.70695673973E-01 -0.10151399713E+00  0.14159257638E+00  0.45299056664E-01 0.  0.
         14    1    1    2    0    0  0.11533122443E-04  0.39626374069E-02  0.13320214594E-01  0.13897148810E-01  0.00000000000E+00 0.  1.
     999901    1    3    3    0    0 -0.51910311714E-01  0.66733036566E-01  0.88193782533E-01  0.88844027481E+00  0.88000000000E+00 0. -1.
        -11    1    4    4    0    0  0.21481814872E-01 -0.33540014150E-02 -0.39641750653E-01  0.45215563819E-01  0.51100000000E-03 0.  1.
         11    1    4    4    0    0  0.30416963720E-01 -0.67341672558E-01 -0.61872246474E-01  0.96377012558E-01  0.51100000000E-03 0. -1.
</event>
<event>
 8    1  0.2077555E+004  0.1043930E+01  0.7957747E-01            NaN
         13   -1    0    0    0    0  0.00000000000E+00  0.00000000000E+00  0.74505805969E-08  0.10566000000E+00  0.10566000000E+00 0.  1.
     999900   -1    0    0    0    0 -0.00000000000E+00 -0.00000000000E+00 -0.74505805969E-08  0.93827000000E+00  0.93827000000E+00 0. -1.
     999902    2    1    2    0    0 -0.12045777399E-01 -0.52423317490E-02  0.30596405081E-02  0.10304413309E+01  0.10303530425E+01 0.  0.
     999903    2    3    3    0    0 -0.92365141580E-01 -0.63237863222E-01  0.73798749835E-01  0.14206151145E+00  0.46956052158E-01 0.  0.
         14    1    1    2    0    0  0.12045777399E-01  0.52423317490E-02 -0.30596405081E-02  0.13488669147E-01  0.00000000000E+00 0. -1.
     999901    1    3    3    0    0  0.80319364180E-01  0.57995531473E-01 -0.70739109327E-01  0.88837981940E+00  0.88000000000E+00 0. -1.
        -11    1    4    4    0    0 -0.89248642320E-01 -0.44700546839E-01  0.49737142619E-01  0.11152355590E+00  0.51100000000E-03 0. -1.
         11    1    4    4    0    0 -0.31164992593E-02 -0.18537316384E-01  0.24061607216E-01  0.30537955550E-01  0.51100000000E-03 0.  1.
</event>
<event>
 8    1  0.2077555E+004  0.1043930E+01  0.7957747E-01            NaN
         13   -1    0    0    0    0  0.00000000000E+00  0.00000000000E+00  0.74505805969E-08  0.10566000000E+00  0.10566000000E+00 0. -1.
     999900   -1    0    0    0    0 -0.00000000000E+00 -0.00000000000E+00 -0.74505805969E-08  0.93827000000E+00  0.93827000000E+00 0.  1.
     999902    2    1    2    0    0 -0.54460436366E-02  0.30033111292E-02 -0.12823128682E-01  0.10296782668E+01  0.10295796333E+01 0.  0.
     999903    2    3    3    0    0  0.95744672275E-01 -0.84615928058E-01 -0.32386703770E-01  0.13934157460E+00  0.45169439689E-01 0.  0.
         14    1    1    2    0    0  0.54460436366E-02 -0.30033111292E-02  0.12823128682E-01  0.14251733166E-01  0.00000000000E+00 0. -1.
     999901    1    3    3    0    0 -0.10119071591E+00  0.87619239187E-01  0.19563575088E-01  0.89033669223E+00  0.88000000000E+00 0. -1.
        -11    1    4    4    0    0  0.22660225123E-01 -0.39023846331E-01 -0.27957484856E-01  0.53086989608E-01  0.51100000000E-03 0.  1.
         11    1    4    4    0    0  0.73084447151E-01 -0.45592081727E-01 -0.44292189134E-02  0.86254584996E-01  0.51100000000E-03 0. -1.
</event>
<event>
 8    1  0.2077555E+004  0.1043930E+01  0.7957747E-01            NaN
         13   -1    0    0    0    0  0.00000000000E+00  0.00000000000E+00  0.74505805969E-08  0.10566000000E+00  0.10566000000E+00 0.  1.
     999900   -1    0    0    0    0 -0.00000000000E+00 -0.00000000000E+00 -0.74505805969E-08  0.93827000000E+00  0.93827000000E+00 0.  1.
     999902    2    1    2    0    0 -0.90222305740E-02  0.23472601197E-02 -0.10800468795E-01  0.10296625405E+01  0.10295636876E+01 0.  0.
     999903    2    3    3    0    0 -0.96856261485E-03  0.42284108829E-01 -0.12684310671E+00  0.14110994933E+00  0.45099446849E-01 0.  0.
         14    1    1    2    0    0  0.90222305740E-02 -0.23472601197E-02  0.10800468795E-01  0.14267459507E-01  0.00000000000E+00 0.  1.
     999901    1    3    3    0    0 -0.80536679592E-02 -0.39936848710E-01  0.11604263792E+00  0.88855259117E+00  0.88000000000E+00 0. -1.
        -11    1    4    4    0    0  0.21381451414E-01  0.20052648473E-01 -0.48666126699E-01  0.56814858833E-01  0.51100000000E-03 0.  1.
         11    1    4    4    0    0 -0.22350014029E-01  0.22231460356E-01 -0.78176980012E-01  0.84295090494E-01  0.51100000000E-03 0. -1.
</event>
<event>
 8    1  0.2077555E+004  0.1043930E+01  0.7957747E-01            NaN
         13   -1    0    0    0    0  0.00000000000E+00  0.00000000000E+00  0.74505805969E-08  0.10566000000E+00  0.10566000000E+00 0. -1.
     999900   -1    0    0    0    0 -0.00000000000E+00 -0.00000000000E+00 -0.74505805969E-08  0.93827000000E+00  0.93827000000E+00 0.  1.
     999902    2    1    2    0    0  0.12838168173E-01  0.49854459661E-02  0.73995557704E-02  0.10282958496E+01  0.10281769924E+01 0.  0.
     999903    2    3    3    0    0 -0.29657323782E-02  0.66949214399E-01  0.11381823101E+00  0.13958093112E+00  0.45135947362E-01 0.  0.
         14    1    1    2    0    0 -0.12838168173E-01 -0.49854459661E-02 -0.73995557704E-02  0.15634150412E-01  0.00000000000E+00 0.  1.
     999901    1    3    3    0    0  0.15803900551E-01 -0.61963768433E-01 -0.10641867524E+00  0.88871491847E+00  0.88000000000E+00 0.  1.
        -11    1    4    4    0    0 -0.50031928918E-02  0.24830155979E-01  0.94928985060E-02  0.27054478892E-01  0.51100000000E-03 0. -1.
         11    1    4    4    0    0  0.20374605136E-02  0.42119058420E-01  0.10432533250E+00  0.11252645223E+00  0.51100000000E-03 0.  1.
</event>
<event>
 8    1  0.2077555E+004  0.1043930E+01  0.7957747E-01            NaN
         13   -1    0    0    0    0  0.00000000000E+00  0.00000000000E+00  0.74505805969E-08  0.10566000000E+00  0.10566000000E+00 0.  1.
     999900   -1    0    0    0    0 -0.00000000000E+00 -0.00000000000E+00 -0.74505805969E-08  0.93827000000E+00  0.93827000000E+00 0. -1.
     999902    2    1    2    0    0 -0.83296834123E-02  0.26218290271E-02 -0.10808957095E-01  0.10300342752E+01  0.10299405405E+01 0.  0.
     999903    2    3    3    0    0 -0.70092471599E-01 -0.13842357589E-01  0.11075127098E+00  0.13938136838E+00  0.45351476164E-01 0.  0.
         14    1    1    2    0    0  0.83296834123E-02 -0.26218290271E-02  0.10808957095E-01  0.13895724762E-01  0.00000000000E+00 0.  1.
     999901    1    3    3    0    0  0.61762788186E-01  0.16464186616E-01 -0.12156022807E+00  0.89065290686E+00  0.88000000000E+00 0. -1.
        -11    1    4    4    0    0 -0.39235823901E-02 -0.13692364727E-01  0.59641740099E-02  0.15450172919E-01  0.51100000000E-03 0.  1.
         11    1    4    4    0    0 -0.66168889209E-01 -0.14999286175E-03  0.10478709697E+00  0.12393119546E+00  0.51100000000E-03 0. -1.
</event>
<event>
 8    1  0.2077555E+004  0.1043930E+01  0.7957747E-01            NaN
         13   -1    0    0    0    0  0.00000000000E+00  0.00000000000E+00  0.74505805969E-08  0.10566000000E+00  0.10566000000E+00 0. -1.
     999900   -1    0    0    0    0 -0.00000000000E+00 -0.00000000000E+00 -0.74505805969E-08  0.93827000000E+00  0.93827000000E+00 0. -1.
     999902    2    1    2    0    0  0.24876438665E-03  0.23796617926E-02 -0.13664740638E-01  0.10300573719E+01  0.10299639506E+01 0.  0.
     999903    2    3    3    0    0 -0.12435234333E+00 -0.26767693786E-01  0.35108669245E-01  0.13946551818E+00  0.45144184371E-01 0.  0.
         14    1    1    2    0    0 -0.24876438665E-03 -0.23796617926E-02  0.13664740638E-01  0.13872628110E-01  0.00000000000E+00 0. -1.
     999901    1    3    3    0    0  0.12460110772E+00  0.29147355579E-01 -0.48773409884E-01  0.89059185371E+00  0.88000000000E+00 0.  1.
        -11    1    4    4    0    0 -0.72423530694E-01  0.73305086493E-02  0.20898050641E-01  0.75735683775E-01  0.51100000000E-03 0.  1.
         11    1    4    4    0    0 -0.51928812637E-01 -0.34098202436E-01  0.14210618604E-01  0.63729834405E-01  0.51100000000E-03 0. -1.
</event>
<event>
 8    1  0.2077555E+004  0.1043930E+01  0.7957747E-01            NaN
         13   -1    0    0    0    0  0.00000000000E+00  0.00000000000E+00  0.74505805969E-08  0.10566000000E+00  0.10566000000E+00 0. -1.
     999900   -1    0    0    0    0 -0.00000000000E+00 -0.00000000000E+00 -0.74505805969E-08  0.93827000000E+00  0.93827000000E+00 0. -1.
     999902    2    1    2    0    0  0.10191985354E-01  0.47840242646E-02  0.90236827149E-02  0.10295011988E+01  0.10294000816E+01 0.  0.
     999903    2    3    3    0    0  0.12156707390E+00  0.54191261602E-01 -0.11049799967E-01  0.14087955259E+00  0.44829721924E-01 0.  0.
         14    1    1    2    0    0 -0.10191985354E-01 -0.47840242646E-02 -0.90236827149E-02  0.14428801175E-01  0.00000000000E+00 0.  1.
     999901    1    3    3    0    0 -0.11137508855E+00 -0.49407237338E-01  0.20073482682E-01  0.88862164623E+00  0.88000000000E+00 0.  1.
        -11    1    4    4    0    0  0.70764010456E-01  0.54496784407E-01 -0.11613616623E-01  0.90069872313E-01  0.51100000000E-03 0.  1.
         11    1    4    4    0    0  0.50803063445E-01 -0.30552280427E-03  0.56381665648E-03  0.50809680277E-01  0.51100000000E-03 0. -1.
</event>
<event>
 8    1  0.2077555E+004  0.1043930E+01  0.7957747E-01            NaN
         13   -1    0    0    0    0  0.00000000000E+00  0.00000000000E+00  0.74505805969E-08  0.10566000000E+00  0.10566000000E+00 0.  1.
     999900   -1    0    0    0    0 -0.00000000000E+00 -0.00000000000E+00 -0.74505805969E-08  0.93827000000E+00  0.93827000000E+00 0. -1.
     999902    2    1    2    0    0 -0.13244988296E-01 -0.21381550848E-02 -0.32773765254E-02  0.10301190399E+01  0.10300264529E+01 0.  0.
     999903    2    3    3    0    0 -0.56372008868E-01  0.62302670036E-01  0.10273446655E+00  0.14037128310E+00  0.45719803423E-01 0.  0.
         14    1    1    2    0    0  0.13244988296E-01  0.21381550848E-02  0.32773765254E-02  0.13810960105E-01  0.00000000000E+00 0. -1.
     999901    1    3    3    0    0  0.43127020572E-01 -0.64440825121E-01 -0.10601184308E+00  0.88974775679E+00  0.88000000000E+00 0. -1.
        -11    1    4    4    0    0 -0.20302913964E-02  0.34580552589E-01  0.36610898885E-01  0.50403925826E-01  0.51100000000E-03 0.  1.
         11    1    4    4    0    0 -0.54341717471E-01  0.27722117447E-01  0.66123567665E-01  0.89967357276E-01  0.51100000000E-03 0. -1.
</event>
<event>
 8    1  0.2077555E+004  0.1043930E+01  0.7957747E-01            NaN
         13   -1    0    0    0    0  0.00000000000E+00  0.00000000000E+00  0.74505805969E-08  0.10566000000E+00  0.10566000000E+00 0. -1.
     999900   -1    0    0    0    0 -0.00000000000E+00 -0.00000000000E+00 -0.74505805969E-08  0.93827000000E+00  0.93827000000E+00 0. -1.
     999902    2    1    2    0    0  0.10462556462E-01  0.28429340478E-02 -0.85144161221E-02  0.10301444045E+01  0.10300521596E+01 0.  0.
     999903    2    3    3    0    0  0.48017817383E-01 -0.10786398207E+00 -0.61650472016E-01  0.14082451866E+00  0.45721055766E-01 0.  0.
         14    1    1    2    0    0 -0.10462556462E-01 -0.28429340478E-02  0.85144161221E-02  0.13785595512E-01  0.00000000000E+00 0. -1.
     999901    1    3    3    0    0 -0.37555260921E-01  0.11070691612E+00  0.53136055894E-01  0.88931988583E+00  0.88000000000E+00 0.  1.
        -11    1    4    4    0    0  0.34646583601E-01 -0.79592981949E-01 -0.20605553324E-01  0.89220392733E-01  0.51100000000E-03 0. -1.
         11    1    4    4    0    0  0.13371233782E-01 -0.28271000123E-01 -0.41044918693E-01  0.51604125923E-01  0.51100000000E-03 0.  1.
</event>
<event>
 8    1  0.2077555E+004  0.1043930E+01  0.7957747E-01            NaN
         13   -1    0    0    0    0  0.00000000000E+00  0.00000000000E+00  0.74505805969E-08  0.10566000000E+00  0.10566000000E+00 0.  1.
     999900   -1    0    0    0    0 -0.00000000000E+00 -0.00000000000E+00 -0.74505805969E-08  0.93827000000E+00  0.93827000000E+00 0.  1.
     999902    2    1    2    0    0  0.66690938195E-02  0.89680638523E-02  0.69982360060E-02  0.10307437083E+01  0.10306593588E+01 0.  0.
     999903    2    3    3    0    0 -0.62768380044E-01 -0.90494081958E-01 -0.71920949659E-01  0.13892392881E+00  0.44701080442E-01 0.  0.
         14    1    1    2    0    0 -0.66690938195E-02 -0.89680638523E-02 -0.69982360060E-02  0.13186291701E-01  0.00000000000E+00 0.  1.
     999901    1    3    3    0    0  0.69437473863E-01  0.99462145810E-01  0.78919185665E-01  0.89181977949E+00  0.88000000000E+00 0. -1.
        -11    1    4    4    0    0 -0.46750290425E-01 -0.28542855394E-01 -0.30477186230E-01  0.62684960320E-01  0.51100000000E-03 0. -1.
         11    1    4    4    0    0 -0.16018089619E-01 -0.61951226564E-01 -0.41443763429E-01  0.76238968487E-01  0.51100000000E-03 0.  1.
</event>
<event>
 8    1  0.2077555E+004  0.1043930E+01  0.7957747E-01            NaN
         13   -1    0    0    0    0  0.00000000000E+00  0.00000000000E+00  0.74505805969E-08  0.10566000000E+00  0.10566000000E+00 0.  1.
     999900   -1    0    0    0    0 -0.00000000000E+00 -0.00000000000E+00 -0.74505805969E-08  0.93827000000E+00  0.93827000000E+00 0.  1.
     999902    2    1    2    0    0  0.35589194031E-02 -0.11032443658E-01  0.71774044066E-02  0.10302956370E+01  0.10302054182E+01 0.  0.
     999903    2    3    3    0    0 -0.61690733906E-01  0.11175092737E+00 -0.28752332088E-01  0.13865433052E+00  0.45872762655E-01 0.  0.
         14    1    1    2    0    0 -0.35589194031E-02  0.11032443658E-01 -0.71774044066E-02  0.13634362999E-01  0.00000000000E+00 0. -1.
     999901    1    3    3    0    0  0.65249653309E-01 -0.12278337103E+00  0.35929736495E-01  0.89164130648E+00  0.88000000000E+00 0. -1.
        -11    1    4    4    0    0 -0.10522779378E-01  0.21018168863E-02 -0.12634275129E-01  0.16584105315E-01  0.51100000000E-03 0.  1.
         11    1    4    4    0    0 -0.51167954527E-01  0.10964911048E+00 -0.16118056959E-01  0.12207022520E+00  0.51100000000E-03 0. -1.
</event>
<event>
 8    1  0.2077555E+004  0.1043930E+01  0.7957747E-01            NaN
         13   -1    0    0    0    0  0.00000000000E+00  0.00000000000E+00  0.74505805969E-08  0.10566000000E+00  0.10566000000E+00 0. -1.
     999900   -1    0    0    0    0 -0.00000000000E+00 -0.00000000000E+00 -0.74505805969E-08  0.93827000000E+00  0.93827000000E+00 0.  1.
     999902    2    1    2    0    0 -0.28028950149E-02  0.13488593274E-01  0.41047209994E-04  0.10301532060E+01  0.10300610796E+01 0.  0.
     999903    2    3    3    0    0  0.49611269191E-02 -0.12980272029E+00 -0.15624665839E-01  0.13839197383E+00  0.45109303500E-01 0.  0.
         14    1    1    2    0    0  0.28028950149E-02 -0.13488593274E-01 -0.41047209994E-04  0.13776794033E-01  0.00000000000E+00 0. -1.
     999901    1    3    3    0    0 -0.77640219340E-02  0.14329131356E+00  0.15665713049E-01  0.89176123214E+00  0.88000000000E+00 0.  1.
        -11    1    4    4    0    0  0.14483803296E-01 -0.85918990848E-01 -0.28499035152E-01  0.91675022072E-01  0.51100000000E-03 0.  1.
         11    1    4    4    0    0 -0.95226763764E-02 -0.43883729443E-01  0.12874369313E-01  0.46716951756E-01  0.51100000000E-03 0. -1.
</event>
<event>
 8    1  0.2077555E+004  0.1043930E+01  0.7957747E-01            NaN
         13   -1    0    0    0    0  0.00000000000E+00  0.00000000000E+00  0.74505805969E-08  0.10566000000E+00  0.10566000000E+00 0. -1.
     999900   -1    0    0    0    0 -0.00000000000E+00 -0.00000000000E+00 -0.74505805969E-08  0.93827000000E+00  0.93827000000E+00 0. -1.
     999902    2    1    2    0    0  0.10658286376E-01 -0.46841730744E-02  0.97239151210E-02  0.10287611150E+01  0.10286492778E+01 0.  0.
     999903    2    3    3    0    0  0.69311993982E-01 -0.64524351304E-01  0.93846046346E-01  0.14078722054E+00  0.45237336686E-01 0.  0.
         14    1    1    2    0    0 -0.10658286376E-01  0.46841730744E-02 -0.97239151210E-02  0.15168884967E-01  0.00000000000E+00 0.  1.
     999901    1    3    3    0    0 -0.58653707606E-01  0.59840178230E-01 -0.84122131225E-01  0.88797389450E+00  0.88000000000E+00 0. -1.
        -11    1    4    4    0    0  0.44888638032E-01 -0.50638658819E-01  0.36408427870E-01  0.76844637628E-01  0.51100000000E-03 0.  1.
         11    1    4    4    0    0  0.24423355950E-01 -0.13885692486E-01  0.57437618476E-01  0.63942582908E-01  0.51100000000E-03 0. -1.
</event>
<event>
 8    1  0.2077555E+004  0.1043930E+01  0.7957747E-01            NaN
         13   -1    0    0    0    0  0.00000000000E+00  0.00000000000E+00  0.74505805969E-08  0.10566000000E+00  0.10566000000E+00 0.  1.
     999900   -1    0    0    0    0 -0.00000000000E+00 -0.00000000000E+00 -0.74505805969E-08  0.93827000000E+00  0.93827000000E+00 0.  1.
     999902    2    1    2    0    0  0.43967431419E-02  0.12080488439E-01  0.41228347103E-02  0.10304293586E+01  0.10303409124E+01 0.  0.
     999903    2    3    3    0    0 -0.13164109458E+00 -0.99874244636E-02  0.86877931112E-02  0.13969139216E+00  0.44822771745E-01 0.  0.
         14    1    1    2    0    0 -0.43967431419E-02 -0.12080488439E-01 -0.41228347103E-02  0.13500641364E-01  0.00000000000E+00 0.  1.
     999901    1    3    3    0    0  0.13603783772E+00  0.22067912902E-01 -0.45649584009E-02  0.89073796647E+00  0.88000000000E+00 0.  1.
        -11    1    4    4    0    0 -0.10191892445E+00 -0.12604229078E-01 -0.11977958086E-01  0.10339277708E+00  0.51100000000E-03 0.  1.
         11    1    4    4    0    0 -0.29722170128E-01  0.26168046143E-02  0.20665751197E-01  0.36298615085E-01  0.51100000000E-03 0. -1.
</event>
<event>
 8    1  0.2077555E+004  0.1043930E+01  0.7957747E-01            NaN
         13   -1    0    0    0    0  0.00000000000E+00  0.00000000000E+00  0.74505805969E-08  0.10566000000E+00  0.10566000000E+00 0. -1.
     999900   -1    0    0    0    0 -0.00000000000E+00 -0.00000000000E+00 -0.74505805969E-08  0.93827000000E+00  0.93827000000E+00 0.  1.
     999902    2    1    2    0    0 -0.83239715408E-02  0.96770471304E-02 -0.48452400523E-02  0.10302767918E+01  0.10301863218E+01 0.  0.
     999903    2    3    3    0    0  0.77870863416E-01 -0.51489545388E-01  0.92063857822E-01  0.13867022224E+00  0.45151212215E-01 0.  0.
         14    1    1    2    0    0  0.83239715408E-02 -0.96770471304E-02  0.48452400523E-02  0.13653208214E-01  0.00000000000E+00 0.  1.
     999901    1    3    3    0    0 -0.86194834956E-01  0.61166592519E-01 -0.96909097874E-01  0.89160656955E+00  0.88000000000E+00 0.  1.
        -11    1    4    4    0    0  0.57633487378E-01 -0.53723693709E-01  0.87597493778E-01  0.11781950675E+00  0.51100000000E-03 0. -1.
         11    1    4    4    0    0  0.20237376037E-01  0.22341483209E-02  0.44663640446E-02  0.20850715488E-01  0.51100000000E-03 0.  1.
</event>
<event>
 8    1  0.2077555E+004  0.1043930E+01  0.7957747E-01            NaN
         13   -1    0    0    0    0  0.00000000000E+00  0.00000000000E+00  0.74505805969E-08  0.10566000000E+00  0.10566000000E+00 0.  1.
     999900   -1    0    0    0    0 -0.00000000000E+00 -0.00000000000E+00 -0.74505805969E-08  0.93827000000E+00  0.93827000000E+00 0. -1.
     999902    2    1    2    0    0 -0.50374550922E-02 -0.12399965939E-01  0.17838426994E-02  0.10304275112E+01  0.10303390406E+01 0.  0.
     999903    2    3    3    0    0 -0.32498708283E-01 -0.13037611438E+00 -0.33399333356E-02  0.14211520963E+00  0.46167958733E-01 0.  0.
         14    1    1    2    0    0  0.50374550922E-02  0.12399965939E-01 -0.17838426994E-02  0.13502488803E-01  0.00000000000E+00 0.  1.
     999901    1    3    3    0    0  0.27461253191E-01  0.11797614844E+00  0.51237760350E-02  0.88831230156E+00  0.88000000000E+00 0.  1.
        -11    1    4    4    0    0 -0.21020392202E-01 -0.44251522311E-01 -0.21246540547E-01  0.53401598491E-01  0.51100000000E-03 0.  1.
         11    1    4    4    0    0 -0.11478316081E-01 -0.86124592069E-01  0.17906607211E-01  0.88713611142E-01  0.51100000000E-03 0. -1.
</event>
<event>
 8    1  0.2077555E+004  0.1043930E+01  0.7957747E-01            NaN
         13   -1    0    0    0    0  0.00000000000E+00  0.00000000000E+00  0.74505805969E-08  0.10566000000E+00  0.10566000000E+00 0.  1.
     999900   -1    0    0    0    0 -0.00000000000E+00 -0.00000000000E+00 -0.74505805969E-08  0.93827000000E+00  0.93827000000E+00 0. -1.
     999902    2    1    2    0    0 -0.74349014454E-02  0.22984171441E-02  0.12272295180E-01  0.10293983205E+01  0.10292957459E+01 0.  0.
     999903    2    3    3    0    0  0.10003630655E+00 -0.32508834324E-02  0.86527854501E-01  0.13973841727E+00  0.44965817959E-01 0.  0.
         14    1    1    2    0    0  0.74349014454E-02 -0.22984171441E-02 -0.12272295180E-01  0.14531679526E-01  0.00000000000E+00 0. -1.
     999901    1    3    3    0    0 -0.10747120799E+00  0.55493005764E-02 -0.74255559321E-01  0.88965990321E+00  0.88000000000E+00 0. -1.
        -11    1    4    4    0    0  0.57843050486E-01  0.16379663034E-01  0.64746809503E-01  0.88354526271E-01  0.51100000000E-03 0. -1.
         11    1    4    4    0    0  0.42193256062E-01 -0.19630546467E-01  0.21781044998E-01  0.51383890996E-01  0.51100000000E-03 0.  1.
</event>
<event>
 8    1  0.2077555E+004  0.1043930E+01  0.7957747E-01            NaN
         13   -1    0    0    0    0  0.00000000000E+00  0.00000000000E+00  0.74505805969E-08  0.10566000000E+00  0.10566000000E+00 0.  1.
     999900   -1    0    0    0    0 -0.00000000000E+00 -0.00000000000E+00 -0.74505805969E-08  0.93827000000E+00  0.93827000000E+00 0.  1.
     999902    2    1    2    0    0 -0.65319435531E-02 -0.30922753575E-02 -0.12072399902E-01  0.10298597728E+01  0.10297636527E+01 0.  0.
     999903    2    3    3    0    0  0.13089090231E+00 -0.12827899147E-01  0.18558240319E-02  0.13903217089E+00  0.45050162655E-01 0.  0.
         14    1    1    2    0    0  0.65319435531E-02  0.30922753575E-02  0.12072399902E-01  0.14070227179E-01  0.00000000000E+00 0. -1.
     999901    1    3    3    0    0 -0.13742284587E+00  0.97356237891E-02 -0.13928223934E-01  0.89082760193E+00  0.88000000000E+00 0. -1.
        -11    1    4    4    0    0  0.48119131661E-01 -0.18388195000E-01 -0.16447146753E-01  0.54077225377E-01  0.51100000000E-03 0. -1.
         11    1    4    4    0    0  0.82771770652E-01  0.55602958532E-02  0.18302970785E-01  0.84954945515E-01  0.51100000000E-03 0.  1.
</event>
<event>
 8    1  0.2077555E+004  0.1043930E+01  0.7957747E-01            NaN
         13   -1    0    0    0    0  0.00000000000E+00  0.00000000000E+00  0.74505805969E-08  0.10566000000E+00  0.10566000000E+00 0. -1.
     999900   -1    0    0    0    0 -0.00000000000E+00 -0.00000000000E+00 -0.74505805969E-08  0.93827000000E+00  0.93827000000E+00 0.  1.
     999902    2    1    2    0    0 -0.48538819095E-02  0.10578700488E-01 -0.74259869015E-02  0.10301236842E+01  0.10300311599E+01 0.  0.
     999903    2    3    3    0    0 -0.11948433041E+00  0.59277854146E-01 -0.20575545964E-01  0.14125661982E+00  0.41709835132E-01 0.  0.
         14    1    1    2    0    0  0.48538819095E-02 -0.10578700488E-01  0.74259869015E-02  0.13806315767E-01  0.00000000000E+00 0. -1.
     999901    1    3    3    0    0  0.11463044850E+00 -0.48699153658E-01  0.13149559063E-01  0.88886706441E+00  0.88000000000E+00 0.  1.
        -11    1    4    4    0    0 -0.38782912458E-01  0.14561883603E-01 -0.25866941092E-01  0.48841811138E-01  0.51100000000E-03 0. -1.
         11    1    4    4    0    0 -0.80701417950E-01  0.44715970543E-01  0.52913951278E-02  0.92414808684E-01  0.51100000000E-03 0.  1.
</event>
<event>
 8    1  0.2077555E+004  0.1043930E+01  0.7957747E-01            NaN
         13   -1    0    0    0    0  0.00000000000E+00  0.00000000000E+00  0.74505805969E-08  0.10566000000E+00  0.10566000000E+00 0.  1.
     999900   -1    0    0    0    0 -0.00000000000E+00 -0.00000000000E+00 -0.74505805969E-08  0.93827000000E+00  0.93827000000E+00 0. -1.
     999902    2    1    2    0    0 -0.11610236942E-01  0.40654246132E-02 -0.12584264411E-02  0.10315643655E+01  0.10314902478E+01 0.  0.
     999903    2    3    3    0    0 -0.10754088432E+00  0.65261006264E-01  0.50251550809E-01  0.14274443658E+00  0.45019052364E-01 0.  0.
         14    1    1    2    0    0  0.11610236942E-01 -0.40654246132E-02  0.12584264411E-02  0.12365634486E-01  0.00000000000E+00 0.  1.
     999901    1    3    3    0    0  0.95930647378E-01 -0.61195581651E-01 -0.51509977250E-01  0.88881992894E+00  0.88000000000E+00 0.  1.
        -11    1    4    4    0    0 -0.10524062330E+00  0.55095592980E-01  0.55439217910E-01  0.13109111778E+00  0.51100000000E-03 0.  1.
         11    1    4    4    0    0 -0.23002610253E-02  0.10165413284E-01 -0.51876671009E-02  0.11653318796E-01  0.51100000000E-03 0. -1.
</event>
<event>
 8    1  0.2077555E+004  0.1043930E+01  0.7957747E-01            NaN
         13   -1    0    0    0    0  0.00000000000E+00  0.00000000000E+00  0.74505805969E-08  0.10566000000E+00  0.10566000000E+00 0.  1.
     999900   -1    0    0    0    0 -0.00000000000E+00 -0.00000000000E+00 -0.74505805969E-08  0.93827000000E+00  0.93827000000E+00 0.  1.
     999902    2    1    2    0    0 -0.65633478158E-02  0.12031323573E-01 -0.38835270222E-02  0.10296852794E+01  0.10295867436E+01 0.  0.
     999903    2    3    3    0    0  0.90045345646E-01 -0.29615079292E-01  0.90054129257E-01  0.13845469997E+00  0.45549320021E-01 0.  0.
         14    1    1    2    0    0  0.65633478158E-02 -0.12031323573E-01  0.38835270222E-02  0.14244720552E-01  0.00000000000E+00 0.  1.
     999901    1    3    3    0    0 -0.96608693462E-01  0.41646402865E-01 -0.93937656279E-01  0.89123057947E+00  0.88000000000E+00 0.  1.
        -11    1    4    4    0    0  0.31275416728E-01  0.10691116805E-01  0.36957513869E-01  0.49583975460E-01  0.51100000000E-03 0. -1.
         11    1    4    4    0    0  0.58769928918E-01 -0.40306196096E-01  0.53096615387E-01  0.88870724513E-01  0.51100000000E-03 0.  1.
</event>
<event>
 8    1  0.2077555E+004  0.1043930E+01  0.7957747E-01            NaN
         13   -1    0    0    0    0  0.00000000000E+00  0.00000000000E+00  0.74505805969E-08  0.10566000000E+00  0.10566000000E+00 0.  1.
     999900   -1    0    0    0    0 -0.00000000000E+00 -0.00000000000E+00 -0.74505805969E-08  0.93827000000E+00  0.93827000000E+00 0.  1.
     999902    2    1    2    0    0 -0.13959963606E-01  0.18579029910E-02  0.56560907050E-03  0.10298355933E+01  0.10297391402E+01 0.  0.
     999903    2    3    3    0    0 -0.16291361918E-01  0.78141837528E-01 -0.10550997439E+00  0.14018582876E+00  0.46348210792E-01 0.  0.
         14    1    1    2    0    0  0.13959963606E-01 -0.18579029910E-02 -0.56560907050E-03  0.14094406729E-01  0.00000000000E+00 0.  1.
     999901    1    3    3    0    0  0.23313983116E-02 -0.76283934537E-01  0.10607558346E+00  0.88964976451E+00  0.88000000000E+00 0. -1.
        -11    1    4    4    0    0 -0.28021946078E-01  0.60673101566E-01 -0.59060695285E-01  0.89190142752E-01  0.51100000000E-03 0. -1.
         11    1    4    4    0    0  0.11730584160E-01  0.17468735962E-01 -0.46449279108E-01  0.50995686009E-01  0.51100000000E-03 0.  1.
</event>
<event>
 8    1  0.2077555E+004  0.1043930E+01  0.7957747E-01            NaN
         13   -1    0    0    0    0  0.00000000000E+00  0.00000000000E+00  0.74505805969E-08  0.10566000000E+00  0.10566000000E+00 0. -1.
     999900   -1    0    0    0    0 -0.00000000000E+00 -0.00000000000E+00 -0.74505805969E-08  0.93827000000E+00  0.93827000000E+00 0.  1.
     999902    2    1    2    0    0  0.84889647285E-02  0.11139792069E-01  0.75604135187E-04  0.10299241724E+01  0.10298289362E+01 0.  0.
     999903    2    3    3    0    0 -0.67002119370E-01 -0.11219595730E+00 -0.13991803959E-01  0.13801133880E+00  0.42120567712E-01 0.  0.
         14    1    1    2    0    0 -0.84889647285E-02 -0.11139792069E-01 -0.75604135187E-04  0.14005827554E-01  0.00000000000E+00 0.  1.
     999901    1    3    3    0    0  0.75491084098E-01  0.12333574937E+00  0.14067408095E-01  0.89191283365E+00  0.88000000000E+00 0. -1.
        -11    1    4    4    0    0 -0.34240434937E-01 -0.44263772458E-01  0.13786903028E-01  0.57637043236E-01  0.51100000000E-03 0.  1.
         11    1    4    4    0    0 -0.32761684433E-01 -0.67932184845E-01 -0.27778706987E-01  0.80374295565E-01  0.51100000000E-03 0. -1.
</event>
<event>
 8    1  0.2077555E+004  0.1043930E+01  0.7957747E-01            NaN
         13   -1    0    0    0    0  0.00000000000E+00  0.00000000000E+00  0.74505805969E-08  0.10566000000E+00  0.10566000000E+00 0.  1.
     999900   -1    0    0    0    0 -0.00000000000E+00 -0.00000000000E+00 -0.74505805969E-08  0.93827000000E+00  0.93827000000E+00 0. -1.
     999902    2    1    2    0    0 -0.23085616388E-02  0.30122118668E-02 -0.12800817308E-01  0.10305784532E+01  0.10304919624E+01 0.  0.
     999903    2    3    3    0    0 -0.12177564363E+00 -0.32121391407E-01 -0.45582925203E-01  0.14120709078E+00  0.44727488751E-01 0.  0.
         14    1    1    2    0    0  0.23085616388E-02 -0.30122118668E-02  0.12800817308E-01  0.13351546762E-01  0.00000000000E+00 0.  1.
     999901    1    3    3    0    0  0.11946708199E+00  0.35133603274E-01  0.32782107894E-01  0.88937136246E+00  0.88000000000E+00 0.  1.
        -11    1    4    4    0    0 -0.84591699544E-01 -0.60045302572E-02 -0.44453905157E-01  0.95750826733E-01  0.51100000000E-03 0.  1.
         11    1    4    4    0    0 -0.37183944085E-01 -0.26116861150E-01 -0.11290200457E-02  0.45456264049E-01  0.51100000000E-03 0. -1.
</event>
<event>
 8    1  0.2077555E+004  0.1043930E+01  0.7957747E-01            NaN
         13   -1    0    0    0    0  0.00000000000E+00  0.00000000000E+00  0.74505805969E-08  0.10566000000E+00  0.10566000000E+00 0.  1.
     999900   -1    0    0    0    0 -0.00000000000E+00 -0.00000000000E+00 -0.74505805969E-08  0.93827000000E+00  0.93827000000E+00 0.  1.
     999902    2    1    2    0    0 -0.13091682869E-01  0.24033072106E-02 -0.65917994521E-02  0.10290767220E+01  0.10289695234E+01 0.  0.
     999903    2    3    3    0    0 -0.11362728256E+00 -0.30893268938E-01  0.59197042773E-01  0.14028864801E+00  0.48073500812E-01 0.  0.
         14    1    1    2    0    0  0.13091682869E-01 -0.24033072106E-02  0.65917994521E-02  0.14853277952E-01  0.00000000000E+00 0.  1.
     999901    1    3    3    0    0  0.10053559969E+00  0.33296576149E-01 -0.65788842225E-01  0.88878807404E+00  0.88000000000E+00 0.  1.
        -11    1    4    4    0    0 -0.90994939345E-01 -0.26043098845E-01  0.23137821929E-01  0.97436861138E-01  0.51100000000E-03 0. -1.
         11    1    4    4    0    0 -0.22632343214E-01 -0.48501700929E-02  0.36059220845E-01  0.42851786873E-01  0.51100000000E-03 0.  1.
</event>
<event>
 8    1  0.2077555E+004  0.1043930E+01  0.7957747E-01            NaN
         13   -1    0    0    0    0  0.00000000000E+00  0.00000000000E+00  0.74505805969E-08  0.10566000000E+00  0.10566000000E+00 0.  1.
     999900   -1    0    0    0    0 -0.00000000000E+00 -0.00000000000E+00 -0.74505805969E-08  0.93827000000E+00  0.93827000000E+00 0.  1.
     999902    2    1    2    0    0  0.12610605944E-01  0.15659912547E-02  0.50172960540E-02  0.10302679002E+01  0.10301773116E+01 0.  0.
     999903    2    3    3    0    0 -0.95951301613E-02 -0.12540674999E+00  0.42230821235E-01  0.14009936662E+00  0.45005230816E-01 0.  0.
         14    1    1    2    0    0 -0.12610605944E-01 -0.15659912547E-02 -0.50172960540E-02  0.13662099786E-01  0.00000000000E+00 0.  1.
     999901    1    3    3    0    0  0.22205736105E-01  0.12697274124E+00 -0.37213525181E-01  0.89016853359E+00  0.88000000000E+00 0. -1.
        -11    1    4    4    0    0 -0.26408913738E-01 -0.95766455894E-01  0.34405577373E-01  0.10513158267E+00  0.51100000000E-03 0.  1.
         11    1    4    4    0    0  0.16813783577E-01 -0.29640294095E-01  0.78252438618E-02  0.34967783955E-01  0.51100000000E-03 0. -1.
</event>
<event>
 8    1  0.2077555E+004  0.1043930E+01  0.7957747E-01            NaN
         13   -1    0    0    0    0  0.00000000000E+00  0.00000000000E+00  0.74505805969E-08  0.10566000000E+00  0.10566000000E+00 0.  1.
     999900   -1    0    0    0    0 -0.00000000000E+00 -0.00000000000E+00 -0.74505805969E-08  0.93827000000E+00  0.93827000000E+00 0.  1.
     999902    2    1    2    0    0 -0.17539788146E-01 -0.12427023689E-01 -0.32009811699E-02  0.10221970442E+01  0.10219659857E+01 0.  0.
     999903    2    3    3    0    0 -0.92788359255E-01 -0.71727876056E-01 -0.49888969067E-01  0.13576672731E+00  0.46788109526E-01 0.  0.
         14    1    1    2    0    0  0.17539788146E-01  0.12427023689E-01  0.32009811699E-02  0.21732955768E-01  0.00000000000E+00 0. -1.
     999901    1    3    3    0    0  0.75248571109E-01  0.59300852368E-01  0.46687987898E-01  0.88643031692E+00  0.88000000000E+00 0. -1.
        -11    1    4    4    0    0 -0.38697987932E-01 -0.27347405485E-01 -0.45443655957E-01  0.65656696875E-01  0.51100000000E-03 0.  1.
         11    1    4    4    0    0 -0.54090371323E-01 -0.44380470571E-01 -0.44453131104E-02  0.70110030435E-01  0.51100000000E-03 0. -1.
</event>
<event>
 8    1  0.2077555E+004  0.1043930E+01  0.7957747E-01            NaN
         13   -1    0    0    0    0  0.00000000000E+00  0.00000000000E+00  0.74505805969E-08  0.10566000000E+00  0.10566000000E+00 0.  1.
     999900   -1    0    0    0    0 -0.00000000000E+00 -0.00000000000E+00 -0.74505805969E-08  0.93827000000E+00  0.93827000000E+00 0.  1.
     999902    2    1    2    0    0 -0.10272301248E-01  0.12085249245E-01 -0.17967328449E-02  0.10279674917E+01  0.10278435495E+01 0.  0.
     999903    2    3    3    0    0  0.59455832531E-01  0.87977561366E-01 -0.77577947171E-01  0.13871811828E+00  0.44151230188E-01 0.  0.
         14    1    1    2    0    0  0.10272301248E-01 -0.12085249245E-01  0.17967328449E-02  0.15962508298E-01  0.00000000000E+00 0.  1.
     999901    1    3    3    0    0 -0.69728133780E-01 -0.75892312121E-01  0.75781214326E-01  0.88924937342E+00  0.88000000000E+00 0.  1.
        -11    1    4    4    0    0  0.24854912904E-01  0.54349987589E-01 -0.18761545334E-01  0.62641396462E-01  0.51100000000E-03 0. -1.
         11    1    4    4    0    0  0.34600919627E-01  0.33627573777E-01 -0.58816401837E-01  0.76076721822E-01  0.51100000000E-03 0.  1.
</event>
<event>
 8    1  0.2077555E+004  0.1043930E+01  0.7957747E-01            NaN
         13   -1    0    0    0    0  0.00000000000E+00  0.00000000000E+00  0.74505805969E-08  0.10566000000E+00  0.10566000000E+00 0.  1.
     999900   -1    0    0    0    0 -0.00000000000E+00 -0.00000000000E+00 -0.74505805969E-08  0.93827000000E+00  0.93827000000E+00 0. -1.
     999902    2    1    2    0    0 -0.89746236219E-02  0.12154835979E-02 -0.10036209601E-01  0.10304116135E+01  0.10303229331E+01 0.  0.
     999903    2    3    3    0    0 -0.25958890000E-01  0.11987968797E+00  0.51077267151E-01  0.14018438650E+00  0.44696436573E-01 0.  0.
         14    1    1    2    0    0  0.89746236219E-02 -0.12154835979E-02  0.10036209601E-01  0.13518386468E-01  0.00000000000E+00 0.  1.
     999901    1    3    3    0    0  0.16984266379E-01 -0.11866420437E+00 -0.61113476752E-01  0.89022722703E+00  0.88000000000E+00 0. -1.
        -11    1    4    4    0    0  0.97069835430E-02  0.65889165175E-02  0.37241373402E-02  0.12319483362E-01  0.51100000000E-03 0. -1.
         11    1    4    4    0    0 -0.35665873543E-01  0.11329077145E+00  0.47353129810E-01  0.12786490314E+00  0.51100000000E-03 0.  1.
</event>
<event>
 8    1  0.2077555E+004  0.1043930E+01  0.7957747E-01            NaN
         13   -1    0    0    0    0  0.00000000000E+00  0.00000000000E+00  0.74505805969E-08  0.10566000000E+00  0.10566000000E+00 0.  1.
     999900   -1    0    0    0    0 -0.00000000000E+00 -0.00000000000E+00 -0.74505805969E-08  0.93827000000E+00  0.93827000000E+00 0. -1.
     999902    2    1    2    0    0  0.12179099124E-01 -0.42557911481E-02  0.77374558045E-02  0.10288863822E+01  0.10287763980E+01 0.  0.
     999903    2    3    3    0    0  0.42264171571E-01 -0.20116736091E-02 -0.12397807394E+00  0.13857232054E+00  0.45182055863E-01 0.  0.
         14    1    1    2    0    0 -0.12179099124E-01  0.42557911481E-02 -0.77374558045E-02  0.15043617786E-01  0.00000000000E+00 0. -1.
     999901    1    3    3    0    0 -0.30085072447E-01 -0.22441175390E-02  0.13171552974E+00  0.89031406168E+00  0.88000000000E+00 0.  1.
        -11    1    4    4    0    0  0.18262098447E-01  0.77140132537E-02 -0.10396364128E+00  0.10583813146E+00  0.51100000000E-03 0.  1.
         11    1    4    4    0    0  0.24002073125E-01 -0.97256868628E-02 -0.20014432654E-01  0.32734189080E-01  0.51100000000E-03 0. -1.
</event>
<event>
 8    1  0.2077555E+004  0.1043930E+01  0.7957747E-01            NaN
         13   -1    0    0    0    0  0.00000000000E+00  0.00000000000E+00  0.74505805969E-08  0.10566000000E+00  0.10566000000E+00 0. -1.
     999900   -1    0    0    0    0 -0.00000000000E+00 -0.00000000000E+00 -0.74505805969E-08  0.93827000000E+00  0.93827000000E+00 0. -1.
     999902    2    1    2    0    0 -0.74320148911E-02  0.98675867529E-02 -0.58738853543E-02  0.10302513070E+01  0.10301604967E+01 0.  0.
     999903    2    3    3    0    0  0.97011871182E-01  0.80376981118E-01  0.43108253557E-01  0.13992588896E+00  0.43001984058E-01 0.  0.
         14    1    1    2    0    0  0.74320148911E-02 -0.98675867529E-02  0.58738853543E-02  0.13678693023E-01  0.00000000000E+00 0.  1.
     999901    1    3    3    0    0 -0.10444388607E+00 -0.70509394365E-01 -0.48982138911E-01  0.89032541802E+00  0.88000000000E+00 0. -1.
        -11    1    4    4    0    0  0.66060410178E-01  0.57833888033E-01  0.49965605471E-01  0.10102256802E+00  0.51100000000E-03 0.  1.
         11    1    4    4    0    0  0.30951461004E-01  0.22543093086E-01 -0.68573519140E-02  0.38903320944E-01  0.51100000000E-03 0. -1.
</event>
<event>
 8    1  0.2077555E+004  0.1043930E+01  0.7957747E-01            NaN
         13   -1    0    0    0    0  0.00000000000E+00  0.00000000000E+00  0.74505805969E-08  0.10566000000E+00  0.10566000000E+00 0. -1.
     999900   -1    0    0    0    0 -0.00000000000E+00 -0.00000000000E+00 -0.74505805969E-08  0.93827000000E+00  0.93827000000E+00 0.  1.
     999902    2    1    2    0    0  0.84113974328E-02 -0.89277001634E-02 -0.55720457714E-02  0.10304576902E+01  0.10303696173E+01 0.  0.
     999903    2    3    3    0    0  0.65284763370E-01  0.45576102872E-02 -0.11715739710E+00  0.14148765473E+00  0.44833342561E-01 0.  0.
         14    1    1    2    0    0 -0.84113974328E-02  0.89277001634E-02  0.55720457714E-02  0.13472309789E-01  0.00000000000E+00 0. -1.
     999901    1    3    3    0    0 -0.56873365937E-01 -0.13485310451E-01  0.11158535133E+00  0.88897003548E+00  0.88000000000E+00 0. -1.
        -11    1    4    4    0    0  0.36511801314E-01 -0.17824683725E-01 -0.78235180367E-01  0.88158014684E-01  0.51100000000E-03 0. -1.
         11    1    4    4    0    0  0.28772962056E-01  0.22382294012E-01 -0.38922216736E-01  0.53329640045E-01  0.51100000000E-03 0.  1.
</event>
<event>
 8    1  0.2077555E+004  0.1043930E+01  0.7957747E-01            NaN
         13   -1    0    0    0    0  0.00000000000E+00  0.00000000000E+00  0.74505805969E-08  0.10566000000E+00  0.10566000000E+00 0. -1.
     999900   -1    0    0    0    0 -0.00000000000E+00 -0.00000000000E+00 -0.74505805969E-08  0.93827000000E+00  0.93827000000E+00 0. -1.
     999902    2    1    2    0    0  0.10280212395E-02  0.10851349333E-01 -0.81179535881E-02  0.10303392024E+01  0.10302495630E+01 0.  0.
     999903    2    3    3    0    0  0.79534786889E-01 -0.94257935943E-01 -0.49942097706E-01  0.13963131919E+00  0.42336170859E-01 0.  0.
         14    1    1    2    0    0 -0.10280212395E-02 -0.10851349333E-01  0.81179535881E-02  0.13590797639E-01  0.00000000000E+00 0. -1.
     999901    1    3    3    0    0 -0.78506765649E-01  0.10510928528E+00  0.41824144118E-01  0.89070788317E+00  0.88000000000E+00 0.  1.
        -11    1    4    4    0    0  0.52317228234E-01 -0.84627725444E-01 -0.27984128561E-01  0.10335529428E+00  0.51100000000E-03 0. -1.
         11    1    4    4    0    0  0.27217558655E-01 -0.96302104982E-02 -0.21957969145E-01  0.36276024911E-01  0.51100000000E-03 0.  1.
</event>
<event>
 8    1  0.2077555E+004  0.1043930E+01  0.7957747E-01            NaN
         13   -1    0    0    0    0  0.00000000000E+00  0.00000000000E+00  0.74505805969E-08  0.10566000000E+00  0.10566000000E+00 0.  1.
     999900   -1    0    0    0    0 -0.00000000000E+00 -0.00000000000E+00 -0.74505805969E-08  0.93827000000E+00  0.93827000000E+00 0. -1.
     999902    2    1    2    0    0 -0.34606760450E-03 -0.14051219709E-01  0.58888203683E-03  0.10298621885E+01  0.10297661016E+01 0.  0.
     999903    2    3    3    0    0 -0.93916078382E-01  0.74259528027E-01  0.53746767413E-01  0.13891892665E+00  0.45552671619E-01 0.  0.
         14    1    1    2    0    0  0.34606760450E-03  0.14051219709E-01 -0.58888203683E-03  0.14067811491E-01  0.00000000000E+00 0. -1.
     999901    1    3    3    0    0  0.93570010778E-01 -0.88310747735E-01 -0.53157885376E-01  0.89094326186E+00  0.88000000000E+00 0. -1.
        -11    1    4    4    0    0 -0.72186339084E-01  0.75836193477E-01  0.52408432364E-01  0.11708501482E+00  0.51100000000E-03 0.  1.
         11    1    4    4    0    0 -0.21729739298E-01 -0.15766654509E-02  0.13383350488E-02  0.21833911826E-01  0.51100000000E-03 0. -1.
</event>
<event>
 8    1  0.2077555E+004  0.1043930E+01  0.7957747E-01            NaN
         13   -1    0    0    0    0  0.00000000000E+00  0.00000000000E+00  0.74505805969E-08  0.10566000000E+00  0.10566000000E+00 0.  1.
     999900   -1    0    0    0    0 -0.00000000000E+00 -0.00000000000E+00 -0.74505805969E-08  0.93827000000E+00  0.93827000000E+00 0. -1.
     999902    2    1    2    0    0 -0.18747572582E-02 -0.13836570064E-01 -0.83804177810E-02  0.10276451362E+01  0.10275160968E+01 0.  0.
     999903    2    3    3    0    0 -0.38009092635E-01 -0.12271341646E+00 -0.32601555598E-01  0.13986896996E+00  0.44689972354E-01 0.  0.
         14    1    1    2    0    0  0.18747572582E-02  0.13836570064E-01  0.83804177810E-02  0.16284863773E-01  0.00000000000E+00 0.  1.
     999901    1    3    3    0    0  0.36134335377E-01  0.10887684639E+00  0.24221137817E-01  0.88777616627E+00  0.88000000000E+00 0.  1.
        -11    1    4    4    0    0  0.39747174695E-02 -0.47070335885E-01  0.48577982689E-03  0.47243115925E-01  0.51100000000E-03 0. -1.
         11    1    4    4    0    0 -0.41983810104E-01 -0.75643080572E-01 -0.33087335425E-01  0.92625854035E-01  0.51100000000E-03 0.  1.
</event>
<event>
 8    1  0.2077555E+004  0.1043930E+01  0.7957747E-01            NaN
         13   -1    0    0    0    0  0.00000000000E+00  0.00000000000E+00  0.74505805969E-08  0.10566000000E+00  0.10566000000E+00 0. -1.
     999900   -1    0    0    0    0 -0.00000000000E+00 -0.00000000000E+00 -0.74505805969E-08  0.93827000000E+00  0.93827000000E+00 0.  1.
     999902    2    1    2    0    0  0.13301576088E-01  0.75254999966E-03  0.27311135736E-02  0.10303301015E+01  0.10302403413E+01 0.  0.
     999903    2    3    3    0    0  0.85579717663E-01 -0.72842077173E-02  0.10368674364E+00  0.14157774090E+00  0.43776342409E-01 0.  0.
         14    1    1    2    0    0 -0.13301576088E-01 -0.75254999966E-03 -0.27311135736E-02  0.13599898503E-01  0.00000000000E+00 0.  1.
     999901    1    3    3    0    0 -0.72278141575E-01  0.80367577170E-02 -0.10095563007E+00  0.88875236060E+00  0.88000000000E+00 0. -1.
        -11    1    4    4    0    0  0.71386047589E-01  0.95547722354E-02  0.91353391940E-01  0.11633127182E+00  0.51100000000E-03 0.  1.
         11    1    4    4    0    0  0.14193670074E-01 -0.16838979953E-01  0.12333351700E-01  0.25246469083E-01  0.51100000000E-03 0. -1.
</event>
<event>
 8    1  0.2077555E+004  0.1043930E+01  0.7957747E-01            NaN
         13   -1    0    0    0    0  0.00000000000E+00  0.00000000000E+00  0.74505805969E-08  0.10566000000E+00  0.10566000000E+00 0. -1.
     999900   -1    0    0    0    0 -0.00000000000E+00 -0.00000000000E+00 -0.74505805969E-08  0.93827000000E+00  0.93827000000E+00 0. -1.
     999902    2    1    2    0    0 -0.36347709489E-02 -0.10310031604E-01 -0.75411568563E-02  0.10306492862E+01  0.10305637165E+01 0.  0.
     999903    2    3    3    0    0 -0.19660509836E-01  0.64994301800E-01 -0.11530580696E+00  0.14073873637E+00  0.43602383919E-01 0.  0.
         14    1    1    2    0    0  0.36347709489E-02  0.10310031604E-01  0.75411568563E-02  0.13280713771E-01  0.00000000000E+00 0. -1.
     999901    1    3    3    0    0  0.16025738888E-01 -0.75304333404E-01  0.10776465010E+00  0.88991054986E+00  0.88000000000E+00 0.  1.
        -11    1    4    4    0    0  0.23084655581E-02  0.18179207876E-01 -0.51418881912E-02  0.19039767525E-01  0.51100000000E-03 0. -1.
         11    1    4    4    0    0 -0.21968975395E-01  0.46815093924E-01 -0.11016391877E+00  0.12169896885E+00  0.51100000000E-03 0.  1.
</event>
<event>
 8    1  0.2077555E+004  0.1043930E+01  0.7957747E-01            NaN
         13   -1    0    0    0    0  0.00000000000E+00  0.00000000000E+00  0.74505805969E-08  0.10566000000E+00  0.10566000000E+00 0.  1.
     999900   -1    0    0    0    0 -0.00000000000E+00 -0.00000000000E+00 -0.74505805969E-08  0.93827000000E+00  0.93827000000E+00 0. -1.
     999902    2    1    2    0    0 -0.30802851952E-02 -0.74967614878E-02  0.11366692268E-01  0.10299696532E+01  0.10298750386E+01 0.  0.
     999903    2    3    3    0    0 -0.47958641450E-01 -0.80475954637E-01 -0.93191861702E-01  0.13964807045E+00  0.45171339691E-01 0.  0.
         14    1    1    2    0    0  0.30802851952E-02  0.74967614878E-02 -0.11366692268E-01  0.13960346801E-01  0.00000000000E+00 0. -1.
     999901    1    3    3    0    0  0.44878356254E-01  0.72979193150E-01  0.10455855397E+00  0.89032158274E+00  0.88000000000E+00 0.  1.
        -11    1    4    4    0    0 -0.25435287150E-01 -0.42217938043E-01 -0.78853423606E-01  0.92991567684E-01  0.51100000000E-03 0.  1.
         11    1    4    4    0    0 -0.22523354300E-01 -0.38258016594E-01 -0.14338438096E-01  0.46656502770E-01  0.51100000000E-03 0. -1.
</event>
<event>
 7    1  0.2077555E+004  0.1043930E+01  0.7957747E-01            NaN
         13   -1    0    0    0    0  0.00000000000E+00  0.00000000000E+00  0.74505805969E-08  0.10566000000E+00  0.10566000000E+00 0. -1.
     999900   -1    0    0    0    0 -0.00000000000E+00 -0.00000000000E+00 -0.74505805969E-08  0.93827000000E+00  0.93827000000E+00 0. -1.
     999902    2    1    2    0    0 -0.41841778972E-02  0.12737987547E-02  0.12564915672E-01  0.10306256017E+01  0.10305397246E+01 0.  0.
         14    1    1    2    0    0  0.41841778972E-02 -0.12737987547E-02 -0.12564915672E-01  0.13304398287E-01  0.00000000000E+00 0.  1.
     999901    1    3    3    0    0  0.65879318184E-01  0.11955934765E+00  0.97932987808E-02  0.89057870560E+00  0.88000000000E+00 0. -1.
        -11    1    3    3    0    0 -0.46395282214E-01 -0.71086454155E-01  0.14074202388E-01  0.86047373405E-01  0.51100000000E-03 0. -1.
         11    1    3    3    0    0 -0.23668213868E-01 -0.47199094743E-01 -0.11302585497E-01  0.53999522703E-01  0.51100000000E-03 0.  1.
</event>
<event>
 8    1  0.2077555E+004  0.1043930E+01  0.7957747E-01            NaN
         13   -1    0    0    0    0  0.00000000000E+00  0.00000000000E+00  0.74505805969E-08  0.10566000000E+00  0.10566000000E+00 0. -1.
     999900   -1    0    0    0    0 -0.00000000000E+00 -0.00000000000E+00 -0.74505805969E-08  0.93827000000E+00  0.93827000000E+00 0.  1.
     999902    2    1    2    0    0 -0.14638871748E-01  0.28418853903E-02 -0.15515423094E-02  0.10289373297E+01  0.10288280946E+01 0.  0.
     999903    2    3    3    0    0  0.62311095227E-01  0.11412122497E+00 -0.16155297124E-01  0.13847808950E+00  0.44820319821E-01 0.  0.
         14    1    1    2    0    0  0.14638871748E-01 -0.28418853903E-02  0.15515423094E-02  0.14992670282E-01  0.00000000000E+00 0.  1.
     999901    1    3    3    0    0 -0.76949966976E-01 -0.11127933958E+00  0.14603754815E-01  0.89045924022E+00  0.88000000000E+00 0.  1.
        -11    1    4    4    0    0  0.40745077918E-01  0.10659219026E+00 -0.18122245226E-01  0.11554537330E+00  0.51100000000E-03 0.  1.
         11    1    4    4    0    0  0.21566017310E-01  0.75290347121E-02  0.19669481015E-02  0.22932716196E-01  0.51100000000E-03 0. -1.
</event>
<event>
 8    1  0.2077555E+004  0.1043930E+01  0.7957747E-01            NaN
         13   -1    0    0    0    0  0.00000000000E+00  0.00000000000E+00  0.74505805969E-08  0.10566000000E+00  0.10566000000E+00 0. -1.
     999900   -1    0    0    0    0 -0.00000000000E+00 -0.00000000000E+00 -0.74505805969E-08  0.93827000000E+00  0.93827000000E+00 0.  1.
     999902    2    1    2    0    0 -0.10684290744E-01  0.62161579739E-02 -0.74960337440E-02  0.10294736792E+01  0.10293721732E+01 0.  0.
     999903    2    3    3    0    0 -0.29246341466E-02 -0.72748309678E-01 -0.11070688294E+00  0.13989620715E+00  0.44878333276E-01 0.  0.
         14    1    1    2    0    0  0.10684290744E-01 -0.62161579739E-02  0.74960337440E-02  0.14456320782E-01  0.00000000000E+00 0. -1.
     999901    1    3    3    0    0 -0.77596565974E-02  0.78964467652E-01  0.10321084920E+00  0.88957747207E+00  0.88000000000E+00 0. -1.
        -11    1    4    4    0    0 -0.22014355789E-01 -0.30538293023E-01 -0.36653687089E-01  0.52544962649E-01  0.51100000000E-03 0. -1.
         11    1    4    4    0    0  0.19089721642E-01 -0.42210016655E-01 -0.74053195854E-01  0.87351244499E-01  0.51100000000E-03 0.  1.
</event>
<event>
 8    1  0.2077555E+004  0.1043930E+01  0.7957747E-01            NaN
         13   -1    0    0    0    0  0.00000000000E+00  0.00000000000E+00  0.74505805969E-08  0.10566000000E+00  0.10566000000E+00 0. -1.
     999900   -1    0    0    0    0 -0.00000000000E+00 -0.00000000000E+00 -0.74505805969E-08  0.93827000000E+00  0.93827000000E+00 0.  1.
     999902    2    1    2    0    0  0.44784909299E-02 -0.12477883944E-01 -0.23705068738E-02  0.10304624920E+01  0.10303744822E+01 0.  0.
     999903    2    3    3    0    0 -0.10171611772E+00  0.24602980002E-01 -0.80902742288E-01  0.13983372682E+00  0.45351319916E-01 0.  0.
         14    1    1    2    0    0 -0.44784909299E-02  0.12477883944E-01  0.23705068738E-02  0.13467507994E-01  0.00000000000E+00 0. -1.
     999901    1    3    3    0    0  0.10619460865E+00 -0.37080863946E-01  0.78532235414E-01  0.89062876519E+00  0.88000000000E+00 0. -1.
        -11    1    4    4    0    0 -0.68198779123E-01  0.15537636506E-01 -0.25506992294E-01  0.74453739993E-01  0.51100000000E-03 0.  1.
         11    1    4    4    0    0 -0.33517338595E-01  0.90653434964E-02 -0.55395749993E-01  0.65379986827E-01  0.51100000000E-03 0. -1.
</event>
<event>
 8    1  0.2375770E+004  0.1043930E+01  0.7957747E-01            NaN
         13   -1    0    0    0    0  0.00000000000E+00  0.00000000000E+00  0.74505805969E-08  0.10566000000E+00  0.10566000000E+00 0. -1.
     999900   -1    0    0    0    0 -0.00000000000E+00 -0.00000000000E+00 -0.74505805969E-08  0.93827000000E+00  0.93827000000E+00 0.  1.
     999902    2    1    2    0    0 -0.76765553813E-02 -0.11555532495E-01 -0.20150505468E-01  0.10194656851E+01  0.10191721054E+01 0.  0.
     999903    2    3    3    0    0  0.18626028203E-01 -0.77956874079E-01 -0.96947061443E-01  0.13323847095E+00  0.43926692054E-01 0.  0.
         14    1    1    2    0    0  0.76765553813E-02  0.11555532495E-01  0.20150505468E-01  0.24464314918E-01  0.00000000000E+00 0. -1.
     999901    1    3    3    0    0 -0.26302583584E-01  0.66401341584E-01  0.76796555974E-01  0.88622721414E+00  0.88000000000E+00 0. -1.
        -11    1    4    4    0    0  0.18606451977E-01 -0.11922242125E-01 -0.41462881446E-01  0.46986929791E-01  0.51100000000E-03 0.  1.
         11    1    4    4    0    0  0.19576226293E-04 -0.66034631954E-01 -0.55484179997E-01  0.86251541154E-01  0.51100000000E-03 0. -1.
</event>
<event>
 8    1  0.2077555E+004  0.1043930E+01  0.7957747E-01            NaN
         13   -1    0    0    0    0  0.00000000000E+00  0.00000000000E+00  0.74505805969E-08  0.10566000000E+00  0.10566000000E+00 0.  1.
     999900   -1    0    0    0    0 -0.00000000000E+00 -0.00000000000E+00 -0.74505805969E-08  0.93827000000E+00  0.93827000000E+00 0.  1.
     999902    2    1    2    0    0 -0.11055286529E-01  0.20135995721E-02 -0.51053426404E-02  0.10315874530E+01  0.10315136134E+01 0.  0.
     999903    2    3    3    0    0  0.12050884399E+00 -0.29168658362E-01 -0.47759426535E-01  0.14023969564E+00  0.44866661340E-01 0.  0.
         14    1    1    2    0    0  0.11055286529E-01 -0.20135995721E-02  0.51053426404E-02  0.12342547020E-01  0.00000000000E+00 0.  1.
     999901    1    3    3    0    0 -0.13156413051E+00  0.31182257934E-01  0.42654083894E-01  0.89134775734E+00  0.88000000000E+00 0. -1.
        -11    1    4    4    0    0  0.27391034131E-01 -0.19609345402E-01 -0.29683701431E-01  0.44901875568E-01  0.51100000000E-03 0.  1.
         11    1    4    4    0    0  0.93117809855E-01 -0.95593129599E-02 -0.18075725104E-01  0.95337820069E-01  0.51100000000E-03 0. -1.
</event>
<event>
 8    1  0.2077555E+004  0.1043930E+01  0.7957747E-01            NaN
         13   -1    0    0    0    0  0.00000000000E+00  0.00000000000E+00  0.74505805969E-08  0.10566000000E+00  0.10566000000E+00 0. -1.
     999900   -1    0    0    0    0 -0.00000000000E+00 -0.00000000000E+00 -0.74505805969E-08  0.93827000000E+00  0.93827000000E+00 0.  1.
     999902    2    1    2    0    0 -0.47931888325E-02 -0.99141856375E-02 -0.79133631968E-02  0.10303695039E+01  0.10302802665E+01 0.  0.
     999903    2    3    3    0    0  0.85083727014E-02 -0.67134514723E-01 -0.11629400568E+00  0.14177653680E+00  0.44686185293E-01 0.  0.
         14    1    1    2    0    0  0.47931888325E-02  0.99141856375E-02  0.79133631968E-02  0.13560496050E-01  0.00000000000E+00 0. -1.
     999901    1    3    3    0    0 -0.13301561534E-01  0.57220329086E-01  0.10838064249E+00  0.88859296715E+00  0.88000000000E+00 0. -1.
        -11    1    4    4    0    0  0.10987792802E-01 -0.33015046637E-02 -0.32583920255E-02  0.11937745319E-01  0.51100000000E-03 0.  1.
         11    1    4    4    0    0 -0.24794201006E-02 -0.63833010060E-01 -0.11303561366E+00  0.12983879148E+00  0.51100000000E-03 0. -1.
</event>
<event>
 8    1  0.2077555E+004  0.1043930E+01  0.7957747E-01            NaN
         13   -1    0    0    0    0  0.00000000000E+00  0.00000000000E+00  0.74505805969E-08  0.10566000000E+00  0.10566000000E+00 0.  1.
     999900   -1    0    0    0    0 -0.00000000000E+00 -0.00000000000E+00 -0.74505805969E-08  0.93827000000E+00  0.93827000000E+00 0.  1.
     999902    2    1    2    0    0  0.17181859491E-02  0.10724812966E-01 -0.60165069452E-02  0.10315133929E+01  0.10314386592E+01 0.  0.
     999903    2    3    3    0    0 -0.11253193845E+00  0.72737446193E-01  0.12583253078E-01  0.14176926750E+00  0.44564713603E-01 0.  0.
         14    1    1    2    0    0 -0.17181859491E-02 -0.10724812966E-01  0.60165069452E-02  0.12416607102E-01  0.00000000000E+00 0. -1.
     999901    1    3    3    0    0  0.11425012440E+00 -0.62012633227E-01 -0.18599760024E-01  0.88974412540E+00  0.88000000000E+00 0.  1.
        -11    1    4    4    0    0 -0.71778899581E-01  0.29558224719E-01  0.24106854478E-01  0.81285303884E-01  0.51100000000E-03 0.  1.
         11    1    4    4    0    0 -0.40753038873E-01  0.43179221474E-01 -0.11523601400E-01  0.60483963617E-01  0.51100000000E-03 0. -1.
</event>
<event>
 8    1  0.2077555E+004  0.1043930E+01  0.7957747E-01            NaN
         13   -1    0    0    0    0  0.00000000000E+00  0.00000000000E+00  0.74505805969E-08  0.10566000000E+00  0.10566000000E+00 0. -1.
     999900   -1    0    0    0    0 -0.00000000000E+00 -0.00000000000E+00 -0.74505805969E-08  0.93827000000E+00  0.93827000000E+00 0. -1.
     999902    2    1    2    0    0  0.85647283666E-02  0.12076668170E-01 -0.48535501233E-02  0.10283493250E+01  0.10282312856E+01 0.  0.
     999903    2    3    3    0    0 -0.13971718983E-01  0.12164047047E+00 -0.50318852767E-01  0.14010430697E+00  0.45887001423E-01 0.  0.
         14    1    1    2    0    0 -0.85647283666E-02 -0.12076668170E-01  0.48535501233E-02  0.15580675046E-01  0.00000000000E+00 0. -1.
     999901    1    3    3    0    0  0.22536447350E-01 -0.10956380230E+00  0.45465302644E-01  0.88824501799E+00  0.88000000000E+00 0.  1.
        -11    1    4    4    0    0  0.24274515014E-02  0.37999727545E-01  0.51243480674E-02  0.38423845180E-01  0.51100000000E-03 0.  1.
         11    1    4    4    0    0 -0.16399170485E-01  0.83640742924E-01 -0.55443200835E-01  0.10168046179E+00  0.51100000000E-03 0. -1.
</event>
<event>
 8    1  0.2077555E+004  0.1043930E+01  0.7957747E-01            NaN
         13   -1    0    0    0    0  0.00000000000E+00  0.00000000000E+00  0.74505805969E-08  0.10566000000E+00  0.10566000000E+00 0.  1.
     999900   -1    0    0    0    0 -0.00000000000E+00 -0.00000000000E+00 -0.74505805969E-08  0.93827000000E+00  0.93827000000E+00 0. -1.
     999902    2    1    2    0    0  0.18381033938E-02 -0.13749579299E-01  0.34145656691E-02  0.10296440344E+01  0.10295449231E+01 0.  0.
     999903    2    3    3    0    0  0.10651467862E+00 -0.79685253933E-01  0.13548323172E-01  0.14093294993E+00  0.44535635810E-01 0.  0.
         14    1    1    2    0    0 -0.18381033938E-02  0.13749579299E-01 -0.34145656691E-02  0.14285965620E-01  0.00000000000E+00 0. -1.
     999901    1    3    3    0    0 -0.10467657523E+00  0.65935674634E-01 -0.10133757503E-01  0.88871108445E+00  0.88000000000E+00 0. -1.
        -11    1    4    4    0    0  0.26266463145E-01  0.10906373629E-02  0.48554559194E-02  0.26738607839E-01  0.51100000000E-03 0. -1.
         11    1    4    4    0    0  0.80248215480E-01 -0.80775891296E-01  0.86928672522E-02  0.11419434209E+00  0.51100000000E-03 0.  1.
</event>
<event>
 8    1  0.2077555E+004  0.1043930E+01  0.7957747E-01            NaN
         13   -1    0    0    0    0  0.00000000000E+00  0.00000000000E+00  0.74505805969E-08  0.10566000000E+00  0.10566000000E+00 0. -1.
     999900   -1    0    0    0    0 -0.00000000000E+00 -0.00000000000E+00 -0.74505805969E-08  0.93827000000E+00  0.93827000000E+00 0.  1.
     999902    2    1    2    0    0  0.91392575465E-02 -0.69841577746E-02  0.86007746778E-02  0.10295676251E+01  0.10294674433E+01 0.  0.
     999903    2    3    3    0    0  0.11805016901E+00 -0.12053546205E-01 -0.59896082619E-01  0.14019756442E+00  0.44572255690E-01 0.  0.
         14    1    1    2    0    0 -0.91392575465E-02  0.69841577746E-02 -0.86007746778E-02  0.14362374921E-01  0.00000000000E+00 0.  1.
     999901    1    3    3    0    0 -0.10891091146E+00  0.50693884304E-02  0.68496857297E-01  0.88937006066E+00  0.88000000000E+00 0. -1.
        -11    1    4    4    0    0  0.57001716537E-01 -0.23317648284E-01 -0.14453371643E-01  0.63261911783E-01  0.51100000000E-03 0. -1.
         11    1    4    4    0    0  0.61048452472E-01  0.11264102079E-01 -0.45442710977E-01  0.76935652638E-01  0.51100000000E-03 0.  1.
</event>
<event>
 8    1  0.2077555E+004  0.1043930E+01  0.7957747E-01            NaN
         13   -1    0    0    0    0  0.00000000000E+00  0.00000000000E+00  0.74505805969E-08  0.10566000000E+00  0.10566000000E+00 0. -1.
     999900   -1    0    0    0    0 -0.00000000000E+00 -0.00000000000E+00 -0.74505805969E-08  0.93827000000E+00  0.93827000000E+00 0.  1.
     999902    2    1    2    0    0 -0.74539127507E-02 -0.11939675978E-01  0.14853324055E-02  0.10297764531E+01  0.10296791833E+01 0.  0.
     999903    2    3    3    0    0 -0.17932557505E-01 -0.13349474344E+00  0.14946751174E-01  0.14125709696E+00  0.39846441841E-01 0.  0.
         14    1    1    2    0    0  0.74539127507E-02  0.11939675978E-01 -0.14853324055E-02  0.14153546909E-01  0.00000000000E+00 0.  1.
     999901    1    3    3    0    0  0.10478644755E-01  0.12155506746E+00 -0.13461418768E-01  0.88851935613E+00  0.88000000000E+00 0. -1.
        -11    1    4    4    0    0 -0.30348774538E-02 -0.12069492005E+00  0.11172011960E-01  0.12124994507E+00  0.51100000000E-03 0. -1.
         11    1    4    4    0    0 -0.14897680052E-01 -0.12799823383E-01  0.37747392138E-02  0.20007151888E-01  0.51100000000E-03 0.  1.
</event>
<event>
 8    1  0.2077555E+004  0.1043930E+01  0.7957747E-01            NaN
         13   -1    0    0    0    0  0.00000000000E+00  0.00000000000E+00  0.74505805969E-08  0.10566000000E+00  0.10566000000E+00 0.  1.
     999900   -1    0    0    0    0 -0.00000000000E+00 -0.00000000000E+00 -0.74505805969E-08  0.93827000000E+00  0.93827000000E+00 0. -1.
     999902    2    1    2    0    0  0.67624583313E-03 -0.75422970247E-03 -0.13814312331E-01  0.10300785959E+01  0.10299854622E+01 0.  0.
     999903    2    3    3    0    0 -0.10347647485E+00 -0.67963348099E-01 -0.49399925959E-01  0.14067925322E+00  0.44987799129E-01 0.  0.
         14    1    1    2    0    0 -0.67624583313E-03  0.75422970247E-03  0.13814312331E-01  0.13851404118E-01  0.00000000000E+00 0.  1.
     999901    1    3    3    0    0  0.10415272069E+00  0.67209118396E-01  0.35585613628E-01  0.88939934266E+00  0.88000000000E+00 0.  1.
        -11    1    4    4    0    0 -0.58720048064E-01 -0.59228668388E-01 -0.18039244321E-01  0.85333197880E-01  0.51100000000E-03 0.  1.
         11    1    4    4    0    0 -0.44756426788E-01 -0.87346797105E-02 -0.31360681637E-01  0.55346055345E-01  0.51100000000E-03 0. -1.
</event>
<event>
 8    1  0.2077555E+004  0.1043930E+01  0.7957747E-01            NaN
         13   -1    0    0    0    0  0.00000000000E+00  0.00000000000E+00  0.74505805969E-08  0.10566000000E+00  0.10566000000E+00 0. -1.
     999900   -1    0    0    0    0 -0.00000000000E+00 -0.00000000000E+00 -0.74505805969E-08  0.93827000000E+00  0.93827000000E+00 0. -1.
     999902    2    1    2    0    0 -0.11212213958E-01 -0.25002039267E-02 -0.76523427502E-02  0.10301269891E+01  0.10300345094E+01 0.  0.
     999903    2    3    3    0    0  0.10167719498E+00  0.57507820359E-01 -0.62762009239E-01  0.13918251437E+00  0.42276484256E-01 0.  0.
         14    1    1    2    0    0  0.11212213958E-01  0.25002039267E-02  0.76523427502E-02  0.13803010942E-01  0.00000000000E+00 0. -1.
     999901    1    3    3    0    0 -0.11288940894E+00 -0.60008024286E-01  0.55109666488E-01  0.89094447468E+00  0.88000000000E+00 0.  1.
        -11    1    4    4    0    0  0.57320278973E-01  0.91605129707E-02 -0.22866997678E-01  0.62391426360E-01  0.51100000000E-03 0.  1.
         11    1    4    4    0    0  0.44356916012E-01  0.48347307389E-01 -0.39895011561E-01  0.76791088013E-01  0.51100000000E-03 0. -1.
</event>
<event>
 8    1  0.2077555E+004  0.1043930E+01  0.7957747E-01            NaN
         13   -1    0    0    0    0  0.00000000000E+00  0.00000000000E+00  0.74505805969E-08  0.10566000000E+00  0.10566000000E+00 0. -1.
     999900   -1    0    0    0    0 -0.00000000000E+00 -0.00000000000E+00 -0.74505805969E-08  0.93827000000E+00  0.93827000000E+00 0.  1.
     999902    2    1    2    0    0 -0.12297335862E-01 -0.57919161365E-02 -0.21244140580E-02  0.10301719516E+01  0.10300800774E+01 0.  0.
     999903    2    3    3    0    0  0.86470447480E-01 -0.24774585696E-01 -0.96566352522E-01  0.13942243766E+00  0.44973740113E-01 0.  0.
         14    1    1    2    0    0  0.12297335862E-01  0.57919161365E-02  0.21244140580E-02  0.13758048442E-01  0.00000000000E+00 0. -1.
     999901    1    3    3    0    0 -0.98767783342E-01  0.18982669559E-01  0.94441938464E-01  0.89074951390E+00  0.88000000000E+00 0. -1.
        -11    1    4    4    0    0  0.25418319005E-01 -0.18067156197E-01 -0.60833592508E-01  0.68363002951E-01  0.51100000000E-03 0.  1.
         11    1    4    4    0    0  0.61052128475E-01 -0.67074294992E-02 -0.35732760014E-01  0.71059434708E-01  0.51100000000E-03 0. -1.
</event>
<event>
 8    1  0.2077555E+004  0.1043930E+01  0.7957747E-01            NaN
         13   -1    0    0    0    0  0.00000000000E+00  0.00000000000E+00  0.74505805969E-08  0.10566000000E+00  0.10566000000E+00 0.  1.
     999900   -1    0    0    0    0 -0.00000000000E+00 -0.00000000000E+00 -0.74505805969E-08  0.93827000000E+00  0.93827000000E+00 0. -1.
     999902    2    1    2    0    0  0.50553279051E-02  0.10273696155E-01  0.63239441638E-02  0.10308495779E+01  0.10307665860E+01 0.  0.
     999903    2    3    3    0    0  0.10735138933E+00  0.58660230889E-01  0.57062424776E-01  0.14215382886E+00  0.44567333974E-01 0.  0.
         14    1    1    2    0    0 -0.50553279051E-02 -0.10273696155E-01 -0.63239441638E-02  0.13080422114E-01  0.00000000000E+00 0. -1.
     999901    1    3    3    0    0 -0.10229606143E+00 -0.48386534735E-01 -0.50738480612E-01  0.88869574903E+00  0.88000000000E+00 0. -1.
        -11    1    4    4    0    0  0.82447189148E-01  0.21810275217E-01  0.31934867084E-01  0.91067688892E-01  0.51100000000E-03 0. -1.
         11    1    4    4    0    0  0.24904200185E-01  0.36849955673E-01  0.25127557692E-01  0.51086139965E-01  0.51100000000E-03 0.  1.
</event>
<event>
 8    1  0.2077555E+004  0.1043930E+01  0.7957747E-01            NaN
         13   -1    0    0    0    0  0.00000000000E+00  0.00000000000E+00  0.74505805969E-08  0.10566000000E+00  0.10566000000E+00 0. -1.
     999900   -1    0    0    0    0 -0.00000000000E+00 -0.00000000000E+00 -0.74505805969E-08  0.93827000000E+00  0.93827000000E+00 0. -1.
     999902    2    1    2    0    0  0.13088579838E-02 -0.92858289571E-02  0.10549230024E-01  0.10298152565E+01  0.10297185230E+01 0.  0.
     999903    2    3    3    0    0  0.81342560962E-01  0.90963156454E-01  0.51182228177E-01  0.13958703119E+00  0.44429840632E-01 0.  0.
         14    1    1    2    0    0 -0.13088579838E-02  0.92858289571E-02 -0.10549230024E-01  0.14114743453E-01  0.00000000000E+00 0.  1.
     999901    1    3    3    0    0 -0.80033702978E-01 -0.10024898541E+00 -0.40632998153E-01  0.89022822536E+00  0.88000000000E+00 0. -1.
        -11    1    4    4    0    0  0.19024151295E-01  0.51297547921E-01  0.31513838653E-01  0.63140635908E-01  0.51100000000E-03 0.  1.
         11    1    4    4    0    0  0.62318409667E-01  0.39665608532E-01  0.19668389524E-01  0.76446395279E-01  0.51100000000E-03 0. -1.
</event>
<event>
 8    1  0.2077555E+004  0.1043930E+01  0.7957747E-01            NaN
         13   -1    0    0    0    0  0.00000000000E+00  0.00000000000E+00  0.74505805969E-08  0.10566000000E+00  0.10566000000E+00 0.  1.
     999900   -1    0    0    0    0 -0.00000000000E+00 -0.00000000000E+00 -0.74505805969E-08  0.93827000000E+00  0.93827000000E+00 0. -1.
     999902    2    1    2    0    0 -0.62406817432E-02 -0.66029968221E-02 -0.10694280779E-01  0.10298974194E+01  0.10298018165E+01 0.  0.
     999903    2    3    3    0    0 -0.10503586217E+00 -0.76180928437E-01 -0.33233418517E-01  0.14135389830E+00  0.45170767752E-01 0.  0.
         14    1    1    2    0    0  0.62406817432E-02  0.66029968221E-02  0.10694280779E-01  0.14032580555E-01  0.00000000000E+00 0.  1.
     999901    1    3    3    0    0  0.98795180422E-01  0.69577931615E-01  0.22539137737E-01  0.88854352115E+00  0.88000000000E+00 0.  1.
        -11    1    4    4    0    0 -0.41412456907E-01 -0.71998136741E-02 -0.73702280104E-03  0.42043230461E-01  0.51100000000E-03 0.  1.
         11    1    4    4    0    0 -0.63623405258E-01 -0.68981114763E-01 -0.32496395715E-01  0.99310667837E-01  0.51100000000E-03 0. -1.
</event>
<event>
 8    1  0.2077555E+004  0.1043930E+01  0.7957747E-01            NaN
         13   -1    0    0    0    0  0.00000000000E+00  0.00000000000E+00  0.74505805969E-08  0.10566000000E+00  0.10566000000E+00 0. -1.
     999900   -1    0    0    0    0 -0.00000000000E+00 -0.00000000000E+00 -0.74505805969E-08  0.93827000000E+00  0.93827000000E+00 0.  1.
     999902    2    1    2    0    0 -0.13279587013E-01 -0.51646932605E-03 -0.13863466963E-01  0.10247255763E+01  0.10245456051E+01 0.  0.
     999903    2    3    3    0    0 -0.10329926697E+00 -0.30958500232E-01  0.68642154708E-01  0.13577257554E+00  0.45752372330E-01 0.  0.
         14    1    1    2    0    0  0.13279587013E-01  0.51646932605E-03  0.13863466963E-01  0.19204423658E-01  0.00000000000E+00 0. -1.
     999901    1    3    3    0    0  0.90019679954E-01  0.30442030906E-01 -0.82505621671E-01  0.88895300080E+00  0.88000000000E+00 0. -1.
        -11    1    4    4    0    0 -0.24043630149E-01  0.12115124510E-01  0.16488321530E-01  0.31575279263E-01  0.51100000000E-03 0. -1.
         11    1    4    4    0    0 -0.79255636817E-01 -0.43073624742E-01  0.52153833179E-01  0.10419729628E+00  0.51100000000E-03 0.  1.
</event>
<event>
 8    1  0.2077555E+004  0.1043930E+01  0.7957747E-01            NaN
         13   -1    0    0    0    0  0.00000000000E+00  0.00000000000E+00  0.74505805969E-08  0.10566000000E+00  0.10566000000E+00 0.  1.
     999900   -1    0    0    0    0 -0.00000000000E+00 -0.00000000000E+00 -0.74505805969E-08  0.93827000000E+00  0.93827000000E+00 0.  1.
     999902    2    1    2    0    0 -0.12605235433E-02 -0.25600725510E-03 -0.13007337769E-01  0.10308592198E+01  0.10307763510E+01 0.  0.
     999903    2    3    3    0    0  0.49860432907E-01  0.69569741907E-01 -0.10401923316E+00  0.14194293997E+00  0.44741318499E-01 0.  0.
         14    1    1    2    0    0  0.12605235433E-02  0.25600725510E-03  0.13007337769E-01  0.13070780204E-01  0.00000000000E+00 0.  1.
     999901    1    3    3    0    0 -0.51120956450E-01 -0.69825749162E-01  0.91011895394E-01  0.88891627982E+00  0.88000000000E+00 0. -1.
        -11    1    4    4    0    0  0.55452102280E-01  0.62539333894E-01 -0.77673528746E-01  0.11410320819E+00  0.51100000000E-03 0. -1.
         11    1    4    4    0    0 -0.55916693732E-02  0.70304080136E-02 -0.26345704417E-01  0.27839731778E-01  0.51100000000E-03 0.  1.
</event>
<event>
 8    1  0.2077555E+004  0.1043930E+01  0.7957747E-01            NaN
         13   -1    0    0    0    0  0.00000000000E+00  0.00000000000E+00  0.74505805969E-08  0.10566000000E+00  0.10566000000E+00 0. -1.
     999900   -1    0    0    0    0 -0.00000000000E+00 -0.00000000000E+00 -0.74505805969E-08  0.93827000000E+00  0.93827000000E+00 0. -1.
     999902    2    1    2    0    0 -0.43260432861E-02  0.18420132861E-03  0.12929719741E-01  0.10302945230E+01  0.10302042894E+01 0.  0.
     999903    2    3    3    0    0 -0.73920985908E-01 -0.89310978664E-01 -0.64345157387E-01  0.13966314587E+00  0.43871767317E-01 0.  0.
         14    1    1    2    0    0  0.43260432861E-02 -0.18420132861E-03 -0.12929719741E-01  0.13635477008E-01  0.00000000000E+00 0.  1.
     999901    1    3    3    0    0  0.69594942622E-01  0.89495179993E-01  0.77274877128E-01  0.89063137712E+00  0.88000000000E+00 0.  1.
        -11    1    4    4    0    0 -0.23116333702E-01 -0.29336145070E-01 -0.45434598238E-01  0.58817838531E-01  0.51100000000E-03 0.  1.
         11    1    4    4    0    0 -0.50804652206E-01 -0.59974833594E-01 -0.18910559149E-01  0.80845307339E-01  0.51100000000E-03 0. -1.
</event>
<event>
 8    1  0.2077555E+004  0.1043930E+01  0.7957747E-01            NaN
         13   -1    0    0    0    0  0.00000000000E+00  0.00000000000E+00  0.74505805969E-08  0.10566000000E+00  0.10566000000E+00 0.  1.
     999900   -1    0    0    0    0 -0.00000000000E+00 -0.00000000000E+00 -0.74505805969E-08  0.93827000000E+00  0.93827000000E+00 0.  1.
     999902    2    1    2    0    0 -0.11815532802E-01 -0.48950664991E-02 -0.55897592596E-02  0.10299724250E+01  0.10298778483E+01 0.  0.
     999903    2    3    3    0    0 -0.72078074777E-01 -0.10943432041E+00 -0.18718593341E-01  0.14164118280E+00  0.50405551092E-01 0.  0.
         14    1    1    2    0    0  0.11815532802E-01  0.48950664991E-02  0.55897592596E-02  0.13957575005E-01  0.00000000000E+00 0.  1.
     999901    1    3    3    0    0  0.60262541975E-01  0.10453925391E+00  0.13128834082E-01  0.88833124219E+00  0.88000000000E+00 0.  1.
        -11    1    4    4    0    0 -0.32130577077E-01 -0.40204585830E-01  0.16846501493E-01  0.54155779365E-01  0.51100000000E-03 0. -1.
         11    1    4    4    0    0 -0.39947497700E-01 -0.69229734583E-01 -0.35565094834E-01  0.87485403436E-01  0.51100000000E-03 0.  1.
</event>
<event>
 8    1  0.2077555E+004  0.1043930E+01  0.7957747E-01            NaN
         13   -1    0    0    0    0  0.00000000000E+00  0.00000000000E+00  0.74505805969E-08  0.10566000000E+00  0.10566000000E+00 0.  1.
     999900   -1    0    0    0    0 -0.00000000000E+00 -0.00000000000E+00 -0.74505805969E-08  0.93827000000E+00  0.93827000000E+00 0. -1.
     999902    2    1    2    0    0 -0.80884746225E-02  0.31375952068E-03 -0.10772958790E-01  0.10304548930E+01  0.10303667833E+01 0.  0.
     999903    2    3    3    0    0 -0.44754104364E-01  0.11051974923E+00 -0.61989281752E-01  0.14134700289E+00  0.43803645358E-01 0.  0.
         14    1    1    2    0    0  0.80884746225E-02 -0.31375952068E-03  0.10772958790E-01  0.13475106970E-01  0.00000000000E+00 0.  1.
     999901    1    3    3    0    0  0.36665629742E-01 -0.11020598971E+00  0.51216322962E-01  0.88910789014E+00  0.88000000000E+00 0.  1.
        -11    1    4    4    0    0 -0.31727796470E-01  0.56977527482E-01 -0.55916550703E-01  0.85907004780E-01  0.51100000000E-03 0.  1.
         11    1    4    4    0    0 -0.13026307894E-01  0.53542221748E-01 -0.60727310491E-02  0.55439998110E-01  0.51100000000E-03 0. -1.
</event>
<event>
 8    1  0.2077555E+004  0.1043930E+01  0.7957747E-01            NaN
         13   -1    0    0    0    0  0.00000000000E+00  0.00000000000E+00  0.74505805969E-08  0.10566000000E+00  0.10566000000E+00 0.  1.
     999900   -1    0    0    0    0 -0.00000000000E+00 -0.00000000000E+00 -0.74505805969E-08  0.93827000000E+00  0.93827000000E+00 0. -1.
     999902    2    1    2    0    0 -0.90914645295E-02  0.76050859292E-02  0.69916170958E-02  0.10301686495E+01  0.10300767309E+01 0.  0.
     999903    2    3    3    0    0 -0.10280936036E+00 -0.59308013701E-01  0.61488199175E-01  0.14099471576E+00  0.44849817921E-01 0.  0.
         14    1    1    2    0    0  0.90914645295E-02 -0.76050859292E-02 -0.69916170958E-02  0.13761350548E-01  0.00000000000E+00 0.  1.
     999901    1    3    3    0    0  0.93717895830E-01  0.66913099630E-01 -0.54496582079E-01  0.88917393369E+00  0.88000000000E+00 0.  1.
        -11    1    4    4    0    0 -0.67833472307E-01 -0.31737941493E-01  0.60776275658E-01  0.96450472779E-01  0.51100000000E-03 0. -1.
         11    1    4    4    0    0 -0.34975888053E-01 -0.27570072207E-01  0.71192351706E-03  0.44544242980E-01  0.51100000000E-03 0.  1.
</event>
<event>
 8    1  0.2077555E+004  0.1043930E+01  0.7957747E-01            NaN
         13   -1    0    0    0    0  0.00000000000E+00  0.00000000000E+00  0.74505805969E-08  0.10566000000E+00  0.10566000000E+00 0. -1.
     999900   -1    0    0    0    0 -0.00000000000E+00 -0.00000000000E+00 -0.74505805969E-08  0.93827000000E+00  0.93827000000E+00 0. -1.
     999902    2    1    2    0    0  0.13326577626E-01 -0.56831162014E-02 -0.10763691842E-01  0.10258813839E+01  0.10257226045E+01 0.  0.
     999903    2    3    3    0    0 -0.10503208609E-01  0.32339515904E-02 -0.13031691983E+00  0.13743310340E+00  0.42244318932E-01 0.  0.
         14    1    1    2    0    0 -0.13326577626E-01  0.56831162014E-02  0.10763691842E-01  0.18048616098E-01  0.00000000000E+00 0.  1.
     999901    1    3    3    0    0  0.23829786235E-01 -0.89170677918E-02  0.11955322799E+00  0.88844828050E+00  0.88000000000E+00 0.  1.
        -11    1    4    4    0    0  0.85567813721E-02  0.53840387148E-02 -0.10588265383E+00  0.10636542617E+00  0.51100000000E-03 0.  1.
         11    1    4    4    0    0 -0.19059989981E-01 -0.21500871243E-02 -0.24434265998E-01  0.31067677231E-01  0.51100000000E-03 0. -1.
</event>
<event>
 8    1  0.2077555E+004  0.1043930E+01  0.7957747E-01            NaN
         13   -1    0    0    0    0  0.00000000000E+00  0.00000000000E+00  0.74505805969E-08  0.10566000000E+00  0.10566000000E+00 0. -1.
     999900   -1    0    0    0    0 -0.00000000000E+00 -0.00000000000E+00 -0.74505805969E-08  0.93827000000E+00  0.93827000000E+00 0.  1.
     999902    2    1    2    0    0  0.11214245410E-01 -0.37801467303E-02 -0.64394905585E-02  0.10304572183E+01  0.10303691391E+01 0.  0.
     999903    2    3    3    0    0 -0.76599786099E-01  0.10498896323E+00  0.20292258125E-01  0.13902207770E+00  0.45001696848E-01 0.  0.
         14    1    1    2    0    0 -0.11214245410E-01  0.37801467303E-02  0.64394905585E-02  0.13472781750E-01  0.00000000000E+00 0. -1.
     999901    1    3    3    0    0  0.87814031510E-01 -0.10876910996E+00 -0.26731748684E-01  0.89143514055E+00  0.88000000000E+00 0.  1.
        -11    1    4    4    0    0 -0.72810296802E-01  0.82852697642E-01  0.30364082268E-01  0.11440344156E+00  0.51100000000E-03 0. -1.
         11    1    4    4    0    0 -0.37894892972E-02  0.22136265587E-01 -0.10071824142E-01  0.24618636149E-01  0.51100000000E-03 0.  1.
</event>
<event>
 7    1  0.2077555E+004  0.1043930E+01  0.7957747E-01            NaN
         13   -1    0    0    0    0  0.00000000000E+00  0.00000000000E+00  0.74505805969E-08  0.10566000000E+00  0.10566000000E+00 0. -1.
     999900   -1    0    0    0    0 -0.00000000000E+00 -0.00000000000E+00 -0.74505805969E-08  0.93827000000E+00  0.93827000000E+00 0.  1.
     999902    2    1    2    0    0 -0.16230356840E-02  0.13080193623E-01 -0.20674882872E-03  0.10307478736E+01  0.10306635778E+01 0.  0.
         14    1    1    2    0    0  0.16230356840E-02 -0.13080193623E-01  0.20674882872E-03  0.13182126351E-01  0.00000000000E+00 0.  1.
     999901    1    3    3    0    0  0.59733260135E-01  0.89883039115E-01  0.76762256469E-01  0.88990980841E+00  0.88000000000E+00 0. -1.
        -11    1    3    3    0    0 -0.57555568413E-01 -0.21391075578E-01 -0.31255388776E-01  0.68901248307E-01  0.51100000000E-03 0. -1.
         11    1    3    3    0    0 -0.38007274060E-02 -0.55411769913E-01 -0.45713616521E-01  0.71936816931E-01  0.51100000000E-03 0.  1.
</event>
<event>
 8    1  0.2077555E+004  0.1043930E+01  0.7957747E-01            NaN
         13   -1    0    0    0    0  0.00000000000E+00  0.00000000000E+00  0.74505805969E-08  0.10566000000E+00  0.10566000000E+00 0. -1.
     999900   -1    0    0    0    0 -0.00000000000E+00 -0.00000000000E+00 -0.74505805969E-08  0.93827000000E+00  0.93827000000E+00 0. -1.
     999902    2    1    2    0    0  0.53164589439E-02 -0.86840563007E-02  0.87591311684E-02  0.10304986952E+01  0.10304111611E+01 0.  0.
     999903    2    3    3    0    0  0.32058126551E-01  0.37410300007E-01 -0.12235292894E+00  0.13919056736E+00  0.44458079097E-01 0.  0.
         14    1    1    2    0    0 -0.53164589439E-02  0.86840563007E-02 -0.87591311684E-02  0.13431304790E-01  0.00000000000E+00 0.  1.
     999901    1    3    3    0    0 -0.26741667607E-01 -0.46094356308E-01  0.13111206011E+00  0.89130812785E+00  0.88000000000E+00 0.  1.
        -11    1    4    4    0    0  0.32375078105E-01  0.22484022064E-01 -0.11676775611E+00  0.12324222863E+00  0.51100000000E-03 0. -1.
         11    1    4    4    0    0 -0.31695155409E-03  0.14926277943E-01 -0.55851728271E-02  0.15948338724E-01  0.51100000000E-03 0.  1.
</event>
<event>
 8    1  0.2077555E+004  0.1043930E+01  0.7957747E-01            NaN
         13   -1    0    0    0    0  0.00000000000E+00  0.00000000000E+00  0.74505805969E-08  0.10566000000E+00  0.10566000000E+00 0.  1.
     999900   -1    0    0    0    0 -0.00000000000E+00 -0.00000000000E+00 -0.74505805969E-08  0.93827000000E+00  0.93827000000E+00 0.  1.
     999902    2    1    2    0    0  0.60504649192E-02 -0.37299395397E-03  0.23186504345E-01  0.10199641653E+01  0.10196825669E+01 0.  0.
     999903    2    3    3    0    0  0.10918796477E+00 -0.52878613495E-01  0.14450400240E-01  0.13234346730E+00  0.50870618777E-01 0.  0.
         14    1    1    2    0    0 -0.60504649192E-02  0.37299395397E-03 -0.23186504345E-01  0.23965834723E-01  0.00000000000E+00 0. -1.
     999901    1    3    3    0    0 -0.10313749985E+00  0.52505619542E-01  0.87361041051E-02  0.88762069798E+00  0.88000000000E+00 0.  1.
        -11    1    4    4    0    0  0.97444138205E-01 -0.24109782427E-01  0.13117264291E-01  0.10123717411E+00  0.51100000000E-03 0.  1.
         11    1    4    4    0    0  0.11743826564E-01 -0.28768831068E-01  0.13331359487E-02  0.31106293187E-01  0.51100000000E-03 0. -1.
</event>
<event>
 8    1  0.2077555E+004  0.1043930E+01  0.7957747E-01            NaN
         13   -1    0    0    0    0  0.00000000000E+00  0.00000000000E+00  0.74505805969E-08  0.10566000000E+00  0.10566000000E+00 0. -1.
     999900   -1    0    0    0    0 -0.00000000000E+00 -0.00000000000E+00 -0.74505805969E-08  0.93827000000E+00  0.93827000000E+00 0. -1.
     999902    2    1    2    0    0  0.40367511201E-02  0.12814716605E-01 -0.31228233647E-02  0.10301363657E+01  0.10300440125E+01 0.  0.
     999903    2    3    3    0    0  0.95633545431E-01 -0.49163228780E-01 -0.78289558025E-01  0.14003453083E+00  0.43790602351E-01 0.  0.
         14    1    1    2    0    0 -0.40367511201E-02 -0.12814716605E-01  0.31228233647E-02  0.13793634294E-01  0.00000000000E+00 0. -1.
     999901    1    3    3    0    0 -0.91596794311E-01  0.61977945385E-01  0.75166734661E-01  0.89010183487E+00  0.88000000000E+00 0.  1.
        -11    1    4    4    0    0  0.49990579943E-01 -0.29635760917E-01 -0.15805954219E-01  0.60228114016E-01  0.51100000000E-03 0. -1.
         11    1    4    4    0    0  0.45642965488E-01 -0.19527467863E-01 -0.62483603806E-01  0.79806416818E-01  0.51100000000E-03 0.  1.
</event>
<event>
 8    1  0.2077555E+004  0.1043930E+01  0.7957747E-01            NaN
         13   -1    0    0    0    0  0.00000000000E+00  0.00000000000E+00  0.74505805969E-08  0.10566000000E+00  0.10566000000E+00 0.  1.
     999900   -1    0    0    0    0 -0.00000000000E+00 -0.00000000000E+00 -0.74505805969E-08  0.93827000000E+00  0.93827000000E+00 0. -1.
     999902    2    1    2    0    0 -0.16434421850E-02 -0.56692847159E-02  0.13659976425E-01  0.10290492525E+01  0.10289416540E+01 0.  0.
     999903    2    3    3    0    0  0.38359905732E-01  0.61478271735E-01  0.11174942234E+00  0.14015634464E+00  0.43644097935E-01 0.  0.
         14    1    1    2    0    0  0.16434421850E-02  0.56692847159E-02 -0.13659976425E-01  0.14880747539E-01  0.00000000000E+00 0. -1.
     999901    1    3    3    0    0 -0.40003347917E-01 -0.67147556451E-01 -0.98089445917E-01  0.88889290783E+00  0.88000000000E+00 0. -1.
        -11    1    4    4    0    0  0.23746129443E-01  0.32277680196E-01  0.95734047185E-01  0.10378341011E+00  0.51100000000E-03 0. -1.
         11    1    4    4    0    0  0.14613776290E-01  0.29200591539E-01  0.16015375156E-01  0.36372934527E-01  0.51100000000E-03 0.  1.
</event>
<event>
 8    1  0.2077555E+004  0.1043930E+01  0.7957747E-01            NaN
         13   -1    0    0    0    0  0.00000000000E+00  0.00000000000E+00  0.74505805969E-08  0.10566000000E+00  0.10566000000E+00 0. -1.
     999900   -1    0    0    0    0 -0.00000000000E+00 -0.00000000000E+00 -0.74505805969E-08  0.93827000000E+00  0.93827000000E+00 0.  1.
     999902    2    1    2    0    0  0.25946572654E-02 -0.11468607982E-01  0.54938855807E-02  0.10309514025E+01  0.10308697058E+01 0.  0.
     999903    2    3    3    0    0 -0.29244700616E-01  0.17575229729E-01  0.12964501717E+00  0.14119256283E+00  0.44309909826E-01 0.  0.
         14    1    1    2    0    0 -0.25946572654E-02  0.11468607982E-01 -0.54938855807E-02  0.12978597541E-01  0.00000000000E+00 0.  1.
     999901    1    3    3    0    0  0.31839357881E-01 -0.29043837710E-01 -0.12415113159E+00  0.88975883963E+00  0.88000000000E+00 0.  1.
        -11    1    4    4    0    0 -0.38275658845E-01  0.15212474297E-01  0.73332066820E-01  0.84108849590E-01  0.51100000000E-03 0. -1.
         11    1    4    4    0    0  0.90309582288E-02  0.23627554321E-02  0.56312950347E-01  0.57083713242E-01  0.51100000000E-03 0.  1.
</event>
<event>
 8    1  0.2077555E+004  0.1043930E+01  0.7957747E-01            NaN
         13   -1    0    0    0    0  0.00000000000E+00  0.00000000000E+00  0.74505805969E-08  0.10566000000E+00  0.10566000000E+00 0. -1.
     999900   -1    0    0    0    0 -0.00000000000E+00 -0.00000000000E+00 -0.74505805969E-08  0.93827000000E+00  0.93827000000E+00 0. -1.
     999902    2    1    2    0    0  0.77268911683E-03 -0.12615477490E-01  0.69456806527E-02  0.10295081485E+01  0.10294071294E+01 0.  0.
     999903    2    3    3    0    0  0.66877232679E-02 -0.77948855760E-01 -0.10662338964E+00  0.13978832088E+00  0.45293240978E-01 0.  0.
         14    1    1    2    0    0 -0.77268911683E-03  0.12615477490E-01 -0.69456806527E-02  0.14421851493E-01  0.00000000000E+00 0.  1.
     999901    1    3    3    0    0 -0.59150341511E-02  0.65333378270E-01  0.11356907030E+00  0.88971982763E+00  0.88000000000E+00 0.  1.
        -11    1    4    4    0    0  0.13252754166E-01 -0.19525460858E-01 -0.60881155382E-01  0.65296671557E-01  0.51100000000E-03 0.  1.
         11    1    4    4    0    0 -0.65650308980E-02 -0.58423394902E-01 -0.45742234262E-01  0.74491649323E-01  0.51100000000E-03 0. -1.
</event>
<event>
 8    1  0.2077555E+004  0.1043930E+01  0.7957747E-01            NaN
         13   -1    0    0    0    0  0.00000000000E+00  0.00000000000E+00  0.74505805969E-08  0.10566000000E+00  0.10566000000E+00 0.  1.
     999900   -1    0    0    0    0 -0.00000000000E+00 -0.00000000000E+00 -0.74505805969E-08  0.93827000000E+00  0.93827000000E+00 0. -1.
     999902    2    1    2    0    0 -0.88067890787E-02  0.29321479444E-02  0.99224042612E-02  0.10303428321E+01  0.10302532410E+01 0.  0.
     999903    2    3    3    0    0 -0.12871648197E-02 -0.51019240667E-02  0.13395964066E+00  0.14157608706E+00  0.45507325542E-01 0.  0.
         14    1    1    2    0    0  0.88067890787E-02 -0.29321479444E-02 -0.99224042612E-02  0.13587167908E-01  0.00000000000E+00 0. -1.
     999901    1    3    3    0    0 -0.75196242590E-02  0.80340720112E-02 -0.12403723640E+00  0.88876674503E+00  0.88000000000E+00 0. -1.
        -11    1    4    4    0    0  0.19228571764E-01 -0.77380080390E-02  0.36809605824E-01  0.42247164904E-01  0.51100000000E-03 0. -1.
         11    1    4    4    0    0 -0.20515736584E-01  0.26360839723E-02  0.97150034839E-01  0.99328922155E-01  0.51100000000E-03 0.  1.
</event>
<event>
 8    1  0.2077555E+004  0.1043930E+01  0.7957747E-01            NaN
         13   -1    0    0    0    0  0.00000000000E+00  0.00000000000E+00  0.74505805969E-08  0.10566000000E+00  0.10566000000E+00 0. -1.
     999900   -1    0    0    0    0 -0.00000000000E+00 -0.00000000000E+00 -0.74505805969E-08  0.93827000000E+00  0.93827000000E+00 0. -1.
     999902    2    1    2    0    0 -0.15445571399E-02 -0.11544600648E-01 -0.74419068001E-02  0.10301080813E+01  0.10300153463E+01 0.  0.
     999903    2    3    3    0    0 -0.53963542660E-01 -0.10909086148E+00 -0.56523576192E-01  0.14181081496E+00  0.45853163244E-01 0.  0.
         14    1    1    2    0    0  0.15445571399E-02  0.11544600648E-01  0.74419068001E-02  0.13821918742E-01  0.00000000000E+00 0. -1.
     999901    1    3    3    0    0  0.52418985520E-01  0.97546260829E-01  0.49081669392E-01  0.88829726630E+00  0.88000000000E+00 0.  1.
        -11    1    4    4    0    0 -0.50632539157E-01 -0.96582006476E-01 -0.31297636919E-01  0.11345281484E+00  0.51100000000E-03 0.  1.
         11    1    4    4    0    0 -0.33310035024E-02 -0.12508855001E-01 -0.25225939273E-01  0.28358000123E-01  0.51100000000E-03 0. -1.
</event>
<event>
 8    1  0.2077555E+004  0.1043930E+01  0.7957747E-01            NaN
         13   -1    0    0    0    0  0.00000000000E+00  0.00000000000E+00  0.74505805969E-08  0.10566000000E+00  0.10566000000E+00 0. -1.
     999900   -1    0    0    0    0 -0.00000000000E+00 -0.00000000000E+00 -0.74505805969E-08  0.93827000000E+00  0.93827000000E+00 0.  1.
     999902    2    1    2    0    0 -0.34774066393E-02  0.23329636178E-02 -0.13052494167E-01  0.10302222401E+01  0.10301310409E+01 0.  0.
     999903    2    3    3    0    0  0.48255927675E-01  0.70932124475E-01  0.99370927091E-01  0.13891914445E+00  0.45430680230E-01 0.  0.
         14    1    1    2    0    0  0.34774066393E-02 -0.23329636178E-02  0.13052494167E-01  0.13707759852E-01  0.00000000000E+00 0. -1.
     999901    1    3    3    0    0 -0.51733334314E-01 -0.68599160857E-01 -0.11242342126E+00  0.89130309570E+00  0.88000000000E+00 0.  1.
        -11    1    4    4    0    0  0.44894643859E-01  0.27167389197E-01  0.45732649549E-01  0.69608422183E-01  0.51100000000E-03 0. -1.
         11    1    4    4    0    0  0.33612838158E-02  0.43764735278E-01  0.53638277542E-01  0.69310722270E-01  0.51100000000E-03 0.  1.
</event>
<event>
 8    1  0.2077555E+004  0.1043930E+01  0.7957747E-01            NaN
         13   -1    0    0    0    0  0.00000000000E+00  0.00000000000E+00  0.74505805969E-08  0.10566000000E+00  0.10566000000E+00 0. -1.
     999900   -1    0    0    0    0 -0.00000000000E+00 -0.00000000000E+00 -0.74505805969E-08  0.93827000000E+00  0.93827000000E+00 0.  1.
     999902    2    1    2    0    0 -0.20304411565E-01 -0.41412282639E-02  0.96953258423E-02  0.10210516643E+01  0.10207953188E+01 0.  0.
     999903    2    3    3    0    0  0.36255256002E-01 -0.35596211558E-01 -0.11162172657E+00  0.13037425965E+00  0.44232384873E-01 0.  0.
         14    1    1    2    0    0  0.20304411565E-01  0.41412282639E-02 -0.96953258423E-02  0.22878335685E-01  0.00000000000E+00 0. -1.
     999901    1    3    3    0    0 -0.56559667567E-01  0.31454983294E-01  0.12131705242E+00  0.89067740466E+00  0.88000000000E+00 0. -1.
        -11    1    4    4    0    0  0.53089512546E-02 -0.25589399886E-01 -0.83095207649E-01  0.87109568964E-01  0.51100000000E-03 0. -1.
         11    1    4    4    0    0  0.30946304747E-01 -0.10006811672E-01 -0.28526518925E-01  0.43264690688E-01  0.51100000000E-03 0.  1.
</event>
<event>
 8    1  0.2077555E+004  0.1043930E+01  0.7957747E-01            NaN
         13   -1    0    0    0    0  0.00000000000E+00  0.00000000000E+00  0.74505805969E-08  0.10566000000E+00  0.10566000000E+00 0. -1.
     999900   -1    0    0    0    0 -0.00000000000E+00 -0.00000000000E+00 -0.74505805969E-08  0.93827000000E+00  0.93827000000E+00 0.  1.
     999902    2    1    2    0    0 -0.86746264116E-03  0.13184048353E-01  0.27592486568E-02  0.10304324048E+01  0.10303439988E+01 0.  0.
     999903    2    3    3    0    0 -0.58155569214E-02  0.11665966418E+00 -0.66885444587E-01  0.14162304956E+00  0.44046878663E-01 0.  0.
         14    1    1    2    0    0  0.86746264116E-03 -0.13184048353E-01 -0.27592486568E-02  0.13497595177E-01  0.00000000000E+00 0. -1.
     999901    1    3    3    0    0  0.49480942802E-02 -0.10347561583E+00  0.69644693243E-01  0.88880935526E+00  0.88000000000E+00 0. -1.
        -11    1    4    4    0    0 -0.18463931768E-01  0.38226606947E-01 -0.91975180799E-02  0.43440139443E-01  0.51100000000E-03 0. -1.
         11    1    4    4    0    0  0.12648374847E-01  0.78433057233E-01 -0.57687926507E-01  0.98182910116E-01  0.51100000000E-03 0.  1.
</event>
<event>
 8    1  0.2077555E+004  0.1043930E+01  0.7957747E-01            NaN
         13   -1    0    0    0    0  0.00000000000E+00  0.00000000000E+00  0.74505805969E-08  0.10566000000E+00  0.10566000000E+00 0. -1.
     999900   -1    0    0    0    0 -0.00000000000E+00 -0.00000000000E+00 -0.74505805969E-08  0.93827000000E+00  0.93827000000E+00 0.  1.
     999902    2    1    2    0    0  0.92058785094E-03  0.18213132117E-02 -0.13874578851E-01  0.10299061417E+01  0.10298106584E+01 0.  0.
     999903    2    3    3    0    0  0.70853210774E-01  0.60663533455E-02  0.10983398061E+00  0.13849579858E+00  0.45393885121E-01 0.  0.
         14    1    1    2    0    0 -0.92058785094E-03 -0.18213132117E-02  0.13874578851E-01  0.14023858318E-01  0.00000000000E+00 0. -1.
     999901    1    3    3    0    0 -0.69932622924E-01 -0.42450401338E-02 -0.12370855946E+00  0.89141034311E+00  0.88000000000E+00 0.  1.
        -11    1    4    4    0    0  0.48618300416E-01 -0.16343009966E-01  0.80161836805E-01  0.95168347212E-01  0.51100000000E-03 0.  1.
         11    1    4    4    0    0  0.22234910358E-01  0.22409363311E-01  0.29672143805E-01  0.43327451363E-01  0.51100000000E-03 0. -1.
</event>
<event>
 8    1  0.2077555E+004  0.1043930E+01  0.7957747E-01            NaN
         13   -1    0    0    0    0  0.00000000000E+00  0.00000000000E+00  0.74505805969E-08  0.10566000000E+00  0.10566000000E+00 0. -1.
     999900   -1    0    0    0    0 -0.00000000000E+00 -0.00000000000E+00 -0.74505805969E-08  0.93827000000E+00  0.93827000000E+00 0.  1.
     999902    2    1    2    0    0  0.58181707870E-02  0.72144324733E-03 -0.12281223220E-01  0.10303211780E+01  0.10302312992E+01 0.  0.
     999903    2    3    3    0    0 -0.92116434676E-01 -0.53295832611E-02 -0.96491564891E-01  0.14087236921E+00  0.44950643107E-01 0.  0.
         14    1    1    2    0    0 -0.58181707870E-02 -0.72144324733E-03  0.12281223220E-01  0.13608821972E-01  0.00000000000E+00 0. -1.
     999901    1    3    3    0    0  0.97934605463E-01  0.60510265085E-02  0.84210341671E-01  0.88944880882E+00  0.88000000000E+00 0. -1.
        -11    1    4    4    0    0 -0.41422096143E-01  0.10348247705E-01 -0.68911421316E-01  0.81067387946E-01  0.51100000000E-03 0.  1.
         11    1    4    4    0    0 -0.50694338533E-01 -0.15677830966E-01 -0.27580143575E-01  0.59804981262E-01  0.51100000000E-03 0. -1.
</event>
<event>
 8    1  0.2077555E+004  0.1043930E+01  0.7957747E-01            NaN
         13   -1    0    0    0    0  0.00000000000E+00  0.00000000000E+00  0.74505805969E-08  0.10566000000E+00  0.10566000000E+00 0. -1.
     999900   -1    0    0    0    0 -0.00000000000E+00 -0.00000000000E+00 -0.74505805969E-08  0.93827000000E+00  0.93827000000E+00 0. -1.
     999902    2    1    2    0    0  0.34824748968E-02  0.13664001158E-01  0.87589732141E-03  0.10298020223E+01  0.10297051060E+01 0.  0.
     999903    2    3    3    0    0  0.26698449748E-01  0.34367732254E-01  0.12457029150E+00  0.14060692042E+00  0.48565422947E-01 0.  0.
         14    1    1    2    0    0 -0.34824748968E-02 -0.13664001158E-01 -0.87589732141E-03  0.14127977745E-01  0.00000000000E+00 0.  1.
     999901    1    3    3    0    0 -0.23215974851E-01 -0.20703731096E-01 -0.12369439418E+00  0.88919510183E+00  0.88000000000E+00 0. -1.
        -11    1    4    4    0    0  0.12331642995E-01  0.32564129000E-01  0.33265064553E-01  0.48159293570E-01  0.51100000000E-03 0. -1.
         11    1    4    4    0    0  0.14366806753E-01  0.18036032539E-02  0.91305226952E-01  0.92447626853E-01  0.51100000000E-03 0.  1.
</event>
<event>
 8    1  0.2077555E+004  0.1043930E+01  0.7957747E-01            NaN
         13   -1    0    0    0    0  0.00000000000E+00  0.00000000000E+00  0.74505805969E-08  0.10566000000E+00  0.10566000000E+00 0.  1.
     999900   -1    0    0    0    0 -0.00000000000E+00 -0.00000000000E+00 -0.74505805969E-08  0.93827000000E+00  0.93827000000E+00 0. -1.
     999902    2    1    2    0    0 -0.28174339864E-02 -0.59342969643E-02 -0.10212647383E-01  0.10317870193E+01  0.10317155621E+01 0.  0.
     999903    2    3    3    0    0 -0.51444580315E-01 -0.96628456745E-01 -0.81336632981E-01  0.14294020945E+00  0.42809486289E-01 0.  0.
         14    1    1    2    0    0  0.28174339864E-02  0.59342969643E-02  0.10212647383E-01  0.12142980742E-01  0.00000000000E+00 0.  1.
     999901    1    3    3    0    0  0.48627146329E-01  0.90694159780E-01  0.71123985598E-01  0.88884680981E+00  0.88000000000E+00 0.  1.
        -11    1    4    4    0    0 -0.66748657839E-02 -0.56993353277E-01 -0.45437932946E-01  0.73196058790E-01  0.51100000000E-03 0. -1.
         11    1    4    4    0    0 -0.44769714531E-01 -0.39635103468E-01 -0.35898700034E-01  0.69744150660E-01  0.51100000000E-03 0.  1.
</event>
<event>
 8    1  0.2077555E+004  0.1043930E+01  0.7957747E-01            NaN
         13   -1    0    0    0    0  0.00000000000E+00  0.00000000000E+00  0.74505805969E-08  0.10566000000E+00  0.10566000000E+00 0.  1.
     999900   -1    0    0    0    0 -0.00000000000E+00 -0.00000000000E+00 -0.74505805969E-08  0.93827000000E+00  0.93827000000E+00 0. -1.
     999902    2    1    2    0    0  0.33437484863E-02  0.89843711478E-02 -0.95998506831E-02  0.10303632498E+01  0.10302739295E+01 0.  0.
     999903    2    3    3    0    0  0.14386039538E-01 -0.86124371618E-01 -0.10068909407E+00  0.14049536327E+00  0.44455459930E-01 0.  0.
         14    1    1    2    0    0 -0.33437484863E-02 -0.89843711478E-02  0.95998506831E-02  0.13566750237E-01  0.00000000000E+00 0.  1.
     999901    1    3    3    0    0 -0.11042291052E-01  0.95108742766E-01  0.91089243384E-01  0.88986788649E+00  0.88000000000E+00 0.  1.
        -11    1    4    4    0    0 -0.20425983866E-02 -0.56400649202E-01 -0.34633738900E-01  0.66219048844E-01  0.51100000000E-03 0.  1.
         11    1    4    4    0    0  0.16428637924E-01 -0.29723722416E-01 -0.66055355166E-01  0.74276314431E-01  0.51100000000E-03 0. -1.
</event>
<event>
 8    1  0.2077555E+004  0.1043930E+01  0.7957747E-01            NaN
         13   -1    0    0    0    0  0.00000000000E+00  0.00000000000E+00  0.74505805969E-08  0.10566000000E+00  0.10566000000E+00 0.  1.
     999900   -1    0    0    0    0 -0.00000000000E+00 -0.00000000000E+00 -0.74505805969E-08  0.93827000000E+00  0.93827000000E+00 0.  1.
     999902    2    1    2    0    0 -0.13095104542E-01  0.28668268909E-02  0.28422383177E-02  0.10302267603E+01  0.10301356216E+01 0.  0.
     999903    2    3    3    0    0 -0.55408468542E-01  0.10224284309E+00  0.65634537510E-01  0.14140231971E+00  0.46508345024E-01 0.  0.
         14    1    1    2    0    0  0.13095104542E-01 -0.28668268909E-02 -0.28422383177E-02  0.13703239692E-01  0.00000000000E+00 0.  1.
     999901    1    3    3    0    0  0.42313363999E-01 -0.99376016194E-01 -0.62792299192E-01  0.88882444060E+00  0.88000000000E+00 0.  1.
        -11    1    4    4    0    0 -0.41898864841E-01  0.33241189837E-01  0.39078185768E-01  0.66240903531E-01  0.51100000000E-03 0.  1.
         11    1    4    4    0    0 -0.13509603701E-01  0.69001653248E-01  0.26556351742E-01  0.75161416178E-01  0.51100000000E-03 0. -1.
</event>
<event>
 8    1  0.2077555E+004  0.1043930E+01  0.7957747E-01            NaN
         13   -1    0    0    0    0  0.00000000000E+00  0.00000000000E+00  0.74505805969E-08  0.10566000000E+00  0.10566000000E+00 0.  1.
     999900   -1    0    0    0    0 -0.00000000000E+00 -0.00000000000E+00 -0.74505805969E-08  0.93827000000E+00  0.93827000000E+00 0.  1.
     999902    2    1    2    0    0 -0.64859286403E-02  0.93517993531E-02  0.26734012870E-02  0.10322393843E+01  0.10321731812E+01 0.  0.
     999903    2    3    3    0    0  0.60009224138E-01  0.12107107456E+00 -0.88853699436E-03  0.14268022987E+00  0.45798978389E-01 0.  0.
         14    1    1    2    0    0  0.64859286403E-02 -0.93517993531E-02 -0.26734012870E-02  0.11690615720E-01  0.00000000000E+00 0. -1.
     999901    1    3    3    0    0 -0.66495152778E-01 -0.11171927520E+00  0.35619382814E-02  0.88955915441E+00  0.88000000000E+00 0.  1.
        -11    1    4    4    0    0  0.34434525806E-01  0.57368623919E-01  0.21813288827E-01  0.70377384637E-01  0.51100000000E-03 0.  1.
         11    1    4    4    0    0  0.25574698331E-01  0.63702450636E-01 -0.22701825822E-01  0.72302845230E-01  0.51100000000E-03 0. -1.
</event>
<event>
 8    1  0.2077555E+004  0.1043930E+01  0.7957747E-01            NaN
         13   -1    0    0    0    0  0.00000000000E+00  0.00000000000E+00  0.74505805969E-08  0.10566000000E+00  0.10566000000E+00 0.  1.
     999900   -1    0    0    0    0 -0.00000000000E+00 -0.00000000000E+00 -0.74505805969E-08  0.93827000000E+00  0.93827000000E+00 0. -1.
     999902    2    1    2    0    0  0.34743653783E-02 -0.73892170210E-04 -0.12562861776E-01  0.10308953473E+01  0.10308129389E+01 0.  0.
     999903    2    3    3    0    0 -0.26024878736E-01 -0.82182891587E-01 -0.10165498089E+00  0.14210431513E+00  0.49280617442E-01 0.  0.
         14    1    1    2    0    0 -0.34743653783E-02  0.73892170210E-04  0.12562861776E-01  0.13034652693E-01  0.00000000000E+00 0.  1.
     999901    1    3    3    0    0  0.29499244115E-01  0.82108999417E-01  0.89092119117E-01  0.88879103218E+00  0.88000000000E+00 0. -1.
        -11    1    4    4    0    0 -0.31360659922E-01 -0.28515862578E-01 -0.62234667986E-01  0.75299803649E-01  0.51100000000E-03 0.  1.
         11    1    4    4    0    0  0.53357811852E-02 -0.53667029009E-01 -0.39420312907E-01  0.66804511481E-01  0.51100000000E-03 0. -1.
</event>
<event>
 8    1  0.2077555E+004  0.1043930E+01  0.7957747E-01            NaN
         13   -1    0    0    0    0  0.00000000000E+00  0.00000000000E+00  0.74505805969E-08  0.10566000000E+00  0.10566000000E+00 0. -1.
     999900   -1    0    0    0    0 -0.00000000000E+00 -0.00000000000E+00 -0.74505805969E-08  0.93827000000E+00  0.93827000000E+00 0.  1.
     999902    2    1    2    0    0  0.63589014565E-02 -0.13081407096E-02 -0.12539128737E-01  0.10298099218E+01  0.10297131146E+01 0.  0.
     999903    2    3    3    0    0 -0.55252080739E-01 -0.32410839807E-01 -0.11624340178E+00  0.14103668451E+00  0.47702861095E-01 0.  0.
         14    1    1    2    0    0 -0.63589014565E-02  0.13081407096E-02  0.12539128737E-01  0.14120078234E-01  0.00000000000E+00 0. -1.
     999901    1    3    3    0    0  0.61610982196E-01  0.31102699097E-01  0.10370427304E+00  0.88877323726E+00  0.88000000000E+00 0. -1.
        -11    1    4    4    0    0 -0.81860756714E-02  0.76768929013E-03 -0.59923946372E-01  0.60487533025E-01  0.51100000000E-03 0.  1.
         11    1    4    4    0    0 -0.47066005068E-01 -0.33178529097E-01 -0.56319455409E-01  0.80549151483E-01  0.51100000000E-03 0. -1.
</event>
<event>
 8    1  0.2077555E+004  0.1043930E+01  0.7957747E-01            NaN
         13   -1    0    0    0    0  0.00000000000E+00  0.00000000000E+00  0.74505805969E-08  0.10566000000E+00  0.10566000000E+00 0. -1.
     999900   -1    0    0    0    0 -0.00000000000E+00 -0.00000000000E+00 -0.74505805969E-08  0.93827000000E+00  0.93827000000E+00 0. -1.
     999902    2    1    2    0    0 -0.24793672848E-02  0.11684769181E-01  0.73563894353E-02  0.10299015447E+01  0.10298059983E+01 0.  0.
     999903    2    3    3    0    0 -0.75086941265E-01  0.10898157665E+00 -0.19324470659E-01  0.14116626529E+00  0.45160231316E-01 0.  0.
         14    1    1    2    0    0  0.24793672848E-02 -0.11684769181E-01 -0.73563894353E-02  0.14028455313E-01  0.00000000000E+00 0.  1.
     999901    1    3    3    0    0  0.72607573980E-01 -0.97296807472E-01  0.26680860094E-01  0.88873527939E+00  0.88000000000E+00 0.  1.
        -11    1    4    4    0    0 -0.53017593620E-01  0.41910756849E-01  0.13291070365E-02  0.67597369915E-01  0.51100000000E-03 0.  1.
         11    1    4    4    0    0 -0.22069347644E-01  0.67070819803E-01 -0.20653577695E-01  0.73568895378E-01  0.51100000000E-03 0. -1.
</event>
<event>
 8    1  0.2077555E+004  0.1043930E+01  0.7957747E-01            NaN
         13   -1    0    0    0    0  0.00000000000E+00  0.00000000000E+00  0.74505805969E-08  0.10566000000E+00  0.10566000000E+00 0.  1.
     999900   -1    0    0    0    0 -0.00000000000E+00 -0.00000000000E+00 -0.74505805969E-08  0.93827000000E+00  0.93827000000E+00 0.  1.
     999902    2    1    2    0    0 -0.10562633092E-01  0.98481294670E-02 -0.91174221857E-03  0.10294598187E+01  0.10293581166E+01 0.  0.
     999903    2    3    3    0    0 -0.89171430543E-01  0.24278092279E-01  0.95810157885E-01  0.14056010965E+00  0.45128574989E-01 0.  0.
         14    1    1    2    0    0  0.10562633092E-01 -0.98481294670E-02  0.91174221857E-03  0.14470181260E-01  0.00000000000E+00 0. -1.
     999901    1    3    3    0    0  0.78608797451E-01 -0.14429962812E-01 -0.96721900104E-01  0.88889970909E+00  0.88000000000E+00 0.  1.
        -11    1    4    4    0    0 -0.83089263643E-01  0.17360292438E-01  0.60951809062E-01  0.10450162504E+00  0.51100000000E-03 0. -1.
         11    1    4    4    0    0 -0.60821669001E-02  0.69177998407E-02  0.34858348824E-01  0.36058484612E-01  0.51100000000E-03 0.  1.
</event>
<event>
 8    1  0.2077555E+004  0.1043930E+01  0.7957747E-01            NaN
         13   -1    0    0    0    0  0.00000000000E+00  0.00000000000E+00  0.74505805969E-08  0.10566000000E+00  0.10566000000E+00 0.  1.
     999900   -1    0    0    0    0 -0.00000000000E+00 -0.00000000000E+00 -0.74505805969E-08  0.93827000000E+00  0.93827000000E+00 0.  1.
     999902    2    1    2    0    0 -0.35865105587E-02 -0.11039780731E-01 -0.76498288463E-02  0.10300282124E+01  0.10299343953E+01 0.  0.
     999903    2    3    3    0    0  0.10147529460E+00 -0.73652945278E-01 -0.45895286987E-01  0.14074698224E+00  0.44512289077E-01 0.  0.
         14    1    1    2    0    0  0.35865105587E-02  0.11039780731E-01  0.76498288463E-02  0.13901787582E-01  0.00000000000E+00 0. -1.
     999901    1    3    3    0    0 -0.10506180516E+00  0.62613164546E-01  0.38245458141E-01  0.88928123018E+00  0.88000000000E+00 0. -1.
        -11    1    4    4    0    0  0.53233537450E-01 -0.34095120642E-01  0.13006378941E-03  0.63218389718E-01  0.51100000000E-03 0.  1.
         11    1    4    4    0    0  0.48241757155E-01 -0.39557824636E-01 -0.46025350776E-01  0.77528592522E-01  0.51100000000E-03 0. -1.
</event>
<event>
 8    1  0.2077555E+004  0.1043930E+01  0.7957747E-01            NaN
         13   -1    0    0    0    0  0.00000000000E+00  0.00000000000E+00  0.74505805969E-08  0.10566000000E+00  0.10566000000E+00 0.  1.
     999900   -1    0    0    0    0 -0.00000000000E+00 -0.00000000000E+00 -0.74505805969E-08  0.93827000000E+00  0.93827000000E+00 0. -1.
     999902    2    1    2    0    0 -0.10779856499E-01  0.62045249772E-03 -0.92904530585E-02  0.10296856051E+01  0.10295870738E+01 0.  0.
     999903    2    3    3    0    0  0.42862230982E-01  0.10720956860E+00 -0.66540620586E-01  0.13978881622E+00  0.42216069286E-01 0.  0.
         14    1    1    2    0    0  0.10779856499E-01 -0.62045249772E-03  0.92904530585E-02  0.14244394879E-01  0.00000000000E+00 0.  1.
     999901    1    3    3    0    0 -0.53642087481E-01 -0.10658911611E+00  0.57250167528E-01  0.88989678891E+00  0.88000000000E+00 0.  1.
        -11    1    4    4    0    0  0.45468467458E-02  0.55767944044E-02  0.58261627931E-02  0.92725263575E-02  0.51100000000E-03 0. -1.
         11    1    4    4    0    0  0.38315384236E-01  0.10163277420E+00 -0.72366783379E-01  0.13051628986E+00  0.51100000000E-03 0.  1.
</event>
<event>
 8    1  0.2077555E+004  0.1043930E+01  0.7957747E-01            NaN
         13   -1    0    0    0    0  0.00000000000E+00  0.00000000000E+00  0.74505805969E-08  0.10566000000E+00  0.10566000000E+00 0.  1.
     999900   -1    0    0    0    0 -0.00000000000E+00 -0.00000000000E+00 -0.74505805969E-08  0.93827000000E+00  0.93827000000E+00 0. -1.
     999902    2    1    2    0    0  0.90601295868E-02 -0.99343000719E-02  0.22205511990E-02  0.10303025603E+01  0.10302124337E+01 0.  0.
     999903    2    3    3    0    0  0.12872121515E+00  0.29664488264E-01 -0.19565363321E-01  0.14105486389E+00  0.45437188440E-01 0.  0.
         14    1    1    2    0    0 -0.90601295868E-02  0.99343000719E-02 -0.22205511990E-02  0.13627439733E-01  0.00000000000E+00 0.  1.
     999901    1    3    3    0    0 -0.11966108556E+00 -0.39598788336E-01  0.21785914520E-01  0.88924769637E+00  0.88000000000E+00 0. -1.
        -11    1    4    4    0    0  0.10427517558E+00  0.73814538574E-02 -0.43129056602E-02  0.10462628914E+00  0.51100000000E-03 0.  1.
         11    1    4    4    0    0  0.24446039570E-01  0.22283034407E-01 -0.15252457661E-01  0.36428574756E-01  0.51100000000E-03 0. -1.
</event>
<event>
 8    1  0.2077555E+004  0.1043930E+01  0.7957747E-01            NaN
         13   -1    0    0    0    0  0.00000000000E+00  0.00000000000E+00  0.74505805969E-08  0.10566000000E+00  0.10566000000E+00 0. -1.
     999900   -1    0    0    0    0 -0.00000000000E+00 -0.00000000000E+00 -0.74505805969E-08  0.93827000000E+00  0.93827000000E+00 0.  1.
     999902    2    1    2    0    0  0.10939422399E-01 -0.20072622476E-02 -0.70667495060E-02  0.10307527843E+01  0.10306685517E+01 0.  0.
     999903    2    3    3    0    0  0.60381374870E-01 -0.70311797921E-01 -0.97821077029E-01  0.14207603533E+00  0.45021965143E-01 0.  0.
         14    1    1    2    0    0 -0.10939422399E-01  0.20072622476E-02  0.70667495060E-02  0.13177215667E-01  0.00000000000E+00 0. -1.
     999901    1    3    3    0    0 -0.49441952471E-01  0.68304535673E-01  0.90754327523E-01  0.88867674900E+00  0.88000000000E+00 0. -1.
        -11    1    4    4    0    0  0.39217134093E-01 -0.15165636769E-01 -0.54431659541E-01  0.68782605552E-01  0.51100000000E-03 0. -1.
         11    1    4    4    0    0  0.21164240777E-01 -0.55146161152E-01 -0.43389417488E-01  0.73293429776E-01  0.51100000000E-03 0.  1.
</event>
<event>
 8    1  0.2077555E+004  0.1043930E+01  0.7957747E-01            NaN
         13   -1    0    0    0    0  0.00000000000E+00  0.00000000000E+00  0.74505805969E-08  0.10566000000E+00  0.10566000000E+00 0. -1.
     999900   -1    0    0    0    0 -0.00000000000E+00 -0.00000000000E+00 -0.74505805969E-08  0.93827000000E+00  0.93827000000E+00 0. -1.
     999902    2    1    2    0    0  0.72505728527E-02  0.16387818144E-02  0.12104353249E-01  0.10297253606E+01  0.10296273824E+01 0.  0.
     999903    2    3    3    0    0 -0.84708635797E-03 -0.93826391955E-01 -0.93580721092E-01  0.13823867736E+00  0.39350618475E-01 0.  0.
         14    1    1    2    0    0 -0.72505728527E-02 -0.16387818144E-02 -0.12104353249E-01  0.14204639387E-01  0.00000000000E+00 0.  1.
     999901    1    3    3    0    0  0.80976592107E-02  0.95465173769E-01  0.10568507434E+00  0.89148668326E+00  0.88000000000E+00 0. -1.
        -11    1    4    4    0    0  0.13436481560E-01 -0.64963484087E-01 -0.78193181807E-01  0.10254378627E+00  0.51100000000E-03 0. -1.
         11    1    4    4    0    0 -0.14283567918E-01 -0.28862907868E-01 -0.15387539285E-01  0.35694891081E-01  0.51100000000E-03 0.  1.
</event>
<event>
 8    1  0.2077555E+004  0.1043930E+01  0.7957747E-01            NaN
         13   -1    0    0    0    0  0.00000000000E+00  0.00000000000E+00  0.74505805969E-08  0.10566000000E+00  0.10566000000E+00 0.  1.
     999900   -1    0    0    0    0 -0.00000000000E+00 -0.00000000000E+00 -0.74505805969E-08  0.93827000000E+00  0.93827000000E+00 0. -1.
     999902    2    1    2    0    0  0.29459491610E-03 -0.13983877649E-01 -0.21009710030E-02  0.10297861073E+01  0.10296889711E+01 0.  0.
     999903    2    3    3    0    0 -0.23010574171E-01  0.12841290766E+00  0.32549101645E-02  0.13801895117E+00  0.44936344562E-01 0.  0.
         14    1    1    2    0    0 -0.29459491610E-03  0.13983877649E-01  0.21009710030E-02  0.14143892655E-01  0.00000000000E+00 0.  1.
     999901    1    3    3    0    0  0.23305169087E-01 -0.14239678531E+00 -0.53558811675E-02  0.89176715618E+00  0.88000000000E+00 0.  1.
        -11    1    4    4    0    0  0.20235605007E-02  0.71358857351E-01  0.18757554281E-01  0.73812521181E-01  0.51100000000E-03 0. -1.
         11    1    4    4    0    0 -0.25034134672E-01  0.57054050314E-01 -0.15502644116E-01  0.64206429986E-01  0.51100000000E-03 0.  1.
</event>
<event>
 8    1  0.2077555E+004  0.1043930E+01  0.7957747E-01            NaN
         13   -1    0    0    0    0  0.00000000000E+00  0.00000000000E+00  0.74505805969E-08  0.10566000000E+00  0.10566000000E+00 0. -1.
     999900   -1    0    0    0    0 -0.00000000000E+00 -0.00000000000E+00 -0.74505805969E-08  0.93827000000E+00  0.93827000000E+00 0. -1.
     999902    2    1    2    0    0  0.43592063405E-02 -0.21948174006E-02  0.12888751603E-01  0.10301481343E+01  0.10300559397E+01 0.  0.
     999903    2    3    3    0    0  0.96624156633E-01  0.54865078545E-01  0.74849975780E-01  0.14132427885E+00  0.44984757742E-01 0.  0.
         14    1    1    2    0    0 -0.43592063405E-02  0.21948174006E-02 -0.12888751603E-01  0.13781865665E-01  0.00000000000E+00 0.  1.
     999901    1    3    3    0    0 -0.92264950293E-01 -0.57059895945E-01 -0.61961224177E-01  0.88882385549E+00  0.88000000000E+00 0. -1.
        -11    1    4    4    0    0  0.54993872577E-01  0.85897098702E-02  0.48124186622E-01  0.73581978743E-01  0.51100000000E-03 0. -1.
         11    1    4    4    0    0  0.41630284056E-01  0.46275368675E-01  0.26725789158E-01  0.67742300106E-01  0.51100000000E-03 0.  1.
</event>
<event>
 8    1  0.2077555E+004  0.1043930E+01  0.7957747E-01            NaN
         13   -1    0    0    0    0  0.00000000000E+00  0.00000000000E+00  0.74505805969E-08  0.10566000000E+00  0.10566000000E+00 0. -1.
     999900   -1    0    0    0    0 -0.00000000000E+00 -0.00000000000E+00 -0.74505805969E-08  0.93827000000E+00  0.93827000000E+00 0. -1.
     999902    2    1    2    0    0 -0.32577538055E-02 -0.12840263836E-01  0.45105361230E-02  0.10299360631E+01  0.10298409895E+01 0.  0.
     999903    2    3    3    0    0  0.75339727404E-01  0.55556771273E-01 -0.91892983580E-01  0.13856108187E+00  0.44634332281E-01 0.  0.
         14    1    1    2    0    0  0.32577538055E-02  0.12840263836E-01 -0.45105361230E-02  0.13993936949E-01  0.00000000000E+00 0.  1.
     999901    1    3    3    0    0 -0.78597481209E-01 -0.68397035109E-01  0.96403519703E-01  0.89137498118E+00  0.88000000000E+00 0. -1.
        -11    1    4    4    0    0  0.15453655540E-01  0.20058792139E-01 -0.27812384428E-02  0.25478756247E-01  0.51100000000E-03 0.  1.
         11    1    4    4    0    0  0.59886071864E-01  0.35497979134E-01 -0.89111745137E-01  0.11308232562E+00  0.51100000000E-03 0. -1.
</event>
<event>
 8    1  0.2077555E+004  0.1043930E+01  0.7957747E-01            NaN
         13   -1    0    0    0    0  0.00000000000E+00  0.00000000000E+00  0.74505805969E-08  0.10566000000E+00  0.10566000000E+00 0.  1.
     999900   -1    0    0    0    0 -0.00000000000E+00 -0.00000000000E+00 -0.74505805969E-08  0.93827000000E+00  0.93827000000E+00 0. -1.
     999902    2    1    2    0    0 -0.28334714432E-02 -0.13475877266E-01  0.34094879314E-02  0.10297436532E+01  0.10296459289E+01 0.  0.
     999903    2    3    3    0    0 -0.15672739974E-01 -0.11336548022E+00 -0.69240432903E-01  0.14102503032E+00  0.44681704816E-01 0.  0.
         14    1    1    2    0    0  0.28334714432E-02  0.13475877266E-01 -0.34094879314E-02  0.14186346833E-01  0.00000000000E+00 0. -1.
     999901    1    3    3    0    0  0.12839268531E-01  0.99889602953E-01  0.72649920835E-01  0.88871862285E+00  0.88000000000E+00 0.  1.
        -11    1    4    4    0    0 -0.23581988159E-01 -0.32300905511E-01 -0.33097701843E-01  0.51915100411E-01  0.51100000000E-03 0. -1.
         11    1    4    4    0    0  0.79092481850E-02 -0.81064574707E-01 -0.36142731061E-01  0.89109929912E-01  0.51100000000E-03 0.  1.
</event>
<event>
 8    1  0.2077555E+004  0.1043930E+01  0.7957747E-01            NaN
         13   -1    0    0    0    0  0.00000000000E+00  0.00000000000E+00  0.74505805969E-08  0.10566000000E+00  0.10566000000E+00 0.  1.
     999900   -1    0    0    0    0 -0.00000000000E+00 -0.00000000000E+00 -0.74505805969E-08  0.93827000000E+00  0.93827000000E+00 0.  1.
     999902    2    1    2    0    0  0.11630999287E-01 -0.57772223933E-02 -0.55751042330E-02  0.10297971224E+01  0.10297001384E+01 0.  0.
     999903    2    3    3    0    0 -0.37960980330E-01 -0.12050624507E+00 -0.41273297420E-01  0.14024865596E+00  0.44759460364E-01 0.  0.
         14    1    1    2    0    0 -0.11630999287E-01  0.57772223933E-02  0.55751042330E-02  0.14132877633E-01  0.00000000000E+00 0.  1.
     999901    1    3    3    0    0  0.49591979616E-01  0.11472902267E+00  0.35698193187E-01  0.88954846640E+00  0.88000000000E+00 0. -1.
        -11    1    4    4    0    0 -0.16316613433E-01 -0.32501388992E-01  0.77837543135E-02  0.37194355923E-01  0.51100000000E-03 0.  1.
         11    1    4    4    0    0 -0.21644366897E-01 -0.88004856074E-01 -0.49057051733E-01  0.10305430004E+00  0.51100000000E-03 0. -1.
</event>
<event>
 8    1  0.2991224E+004  0.1043930E+01  0.7957747E-01            NaN
         13   -1    0    0    0    0  0.00000000000E+00  0.00000000000E+00  0.74505805969E-08  0.10566000000E+00  0.10566000000E+00 0. -1.
     999900   -1    0    0    0    0 -0.00000000000E+00 -0.00000000000E+00 -0.74505805969E-08  0.93827000000E+00  0.93827000000E+00 0.  1.
     999902    2    1    2    0    0 -0.80818701625E-02 -0.57854045545E-02 -0.21348141911E-01  0.10203815246E+01  0.10201097613E+01 0.  0.
     999903    2    3    3    0    0  0.23436132811E-01 -0.47882106473E-01 -0.11447798578E+00  0.13390609648E+00  0.44538578838E-01 0.  0.
         14    1    1    2    0    0  0.80818701625E-02  0.57854045545E-02  0.21348141911E-01  0.23548475412E-01  0.00000000000E+00 0. -1.
     999901    1    3    3    0    0 -0.31518002973E-01  0.42096701918E-01  0.93129843866E-01  0.88647542811E+00  0.88000000000E+00 0. -1.
        -11    1    4    4    0    0  0.24870293365E-01 -0.57636992179E-02 -0.29255502673E-01  0.38831653048E-01  0.51100000000E-03 0. -1.
         11    1    4    4    0    0 -0.14341605543E-02 -0.42118407255E-01 -0.85222483104E-01  0.95074443430E-01  0.51100000000E-03 0.  1.
</event>
<event>
 7    1  0.2077555E+004  0.1043930E+01  0.7957747E-01            NaN
         13   -1    0    0    0    0  0.00000000000E+00  0.00000000000E+00  0.74505805969E-08  0.10566000000E+00  0.10566000000E+00 0.  1.
     999900   -1    0    0    0    0 -0.00000000000E+00 -0.00000000000E+00 -0.74505805969E-08  0.93827000000E+00  0.93827000000E+00 0.  1.
     999903    2    1    2    0    0  0.16780122699E-01 -0.22789082125E-01 -0.10846493074E+00  0.12133015188E+00  0.46426821701E-01 0.  0.
         14    1    1    2    0    0  0.60510872692E-02 -0.25929031172E-01 -0.17704306860E-01  0.31974564830E-01  0.00000000000E+00 0. -1.
     999901    1    1    2    0    0 -0.22831209969E-01  0.48718113297E-01  0.12616923760E+00  0.89062528329E+00  0.88000000000E+00 0.  1.
        -11    1    3    3    0    0 -0.83048024604E-02  0.80605461126E-02 -0.10628731527E-01  0.15721742983E-01  0.51100000000E-03 0.  1.
         11    1    3    3    0    0  0.25084925160E-01 -0.30849628238E-01 -0.97836199216E-01  0.10560840890E+00  0.51100000000E-03 0. -1.
</event>
<event>
 8    1  0.2077555E+004  0.1043930E+01  0.7957747E-01            NaN
         13   -1    0    0    0    0  0.00000000000E+00  0.00000000000E+00  0.74505805969E-08  0.10566000000E+00  0.10566000000E+00 0.  1.
     999900   -1    0    0    0    0 -0.00000000000E+00 -0.00000000000E+00 -0.74505805969E-08  0.93827000000E+00  0.93827000000E+00 0.  1.
     999902    2    1    2    0    0  0.12664524932E-01  0.88691470748E-02  0.29524214556E-02  0.10281893280E+01  0.10280688331E+01 0.  0.
     999903    2    3    3    0    0  0.69158516823E-01 -0.93366622206E-01 -0.60099639549E-01  0.13823467411E+00  0.44683686742E-01 0.  0.
         14    1    1    2    0    0 -0.12664524932E-01 -0.88691470748E-02 -0.29524214556E-02  0.15740671969E-01  0.00000000000E+00 0. -1.
     999901    1    3    3    0    0 -0.56493991891E-01  0.10223576928E+00  0.63052061005E-01  0.88995465392E+00  0.88000000000E+00 0. -1.
        -11    1    4    4    0    0  0.53207373343E-01 -0.52143102001E-01 -0.16829354569E-01  0.76376802503E-01  0.51100000000E-03 0.  1.
         11    1    4    4    0    0  0.15951143480E-01 -0.41223520205E-01 -0.43270284980E-01  0.61857871606E-01  0.51100000000E-03 0. -1.
</event>
<event>
 8    1  0.2077555E+004  0.1043930E+01  0.7957747E-01            NaN
         13   -1    0    0    0    0  0.00000000000E+00  0.00000000000E+00  0.74505805969E-08  0.10566000000E+00  0.10566000000E+00 0. -1.
     999900   -1    0    0    0    0 -0.00000000000E+00 -0.00000000000E+00 -0.74505805969E-08  0.93827000000E+00  0.93827000000E+00 0.  1.
     999902    2    1    2    0    0  0.11091038292E-01  0.45278980253E-02  0.73279270049E-02  0.10298867986E+01  0.10297910499E+01 0.  0.
     999903    2    3    3    0    0  0.92297500478E-01 -0.22548509420E-01 -0.92580426671E-01  0.14010631980E+00  0.45070850612E-01 0.  0.
         14    1    1    2    0    0 -0.11091038292E-01 -0.45278980253E-02 -0.73279270049E-02  0.14043201384E-01  0.00000000000E+00 0.  1.
     999901    1    3    3    0    0 -0.81206462186E-01  0.27076407445E-01  0.99908353676E-01  0.88978047881E+00  0.88000000000E+00 0. -1.
        -11    1    4    4    0    0  0.80456404849E-01 -0.17980343670E-01 -0.51733622513E-01  0.97330132328E-01  0.51100000000E-03 0.  1.
         11    1    4    4    0    0  0.11841095629E-01 -0.45681657501E-02 -0.40846804158E-01  0.42776187476E-01  0.51100000000E-03 0. -1.
</event>
<event>
 8    1  0.2077555E+004  0.1043930E+01  0.7957747E-01            NaN
         13   -1    0    0    0    0  0.00000000000E+00  0.00000000000E+00  0.74505805969E-08  0.10566000000E+00  0.10566000000E+00 0. -1.
     999900   -1    0    0    0    0 -0.00000000000E+00 -0.00000000000E+00 -0.74505805969E-08  0.93827000000E+00  0.93827000000E+00 0.  1.
     999902    2    1    2    0    0 -0.88876313079E-02  0.94898709467E-02  0.48504691846E-02  0.10300528716E+01  0.10299593893E+01 0.  0.
     999903    2    3    3    0    0  0.66328982465E-02  0.66734262660E-01  0.11561325642E+00  0.14112868910E+00  0.45314729144E-01 0.  0.
         14    1    1    2    0    0  0.88876313079E-02 -0.94898709467E-02 -0.48504691846E-02  0.13877128383E-01  0.00000000000E+00 0.  1.
     999901    1    3    3    0    0 -0.15520529554E-01 -0.57244391713E-01 -0.11076278723E+00  0.88892418251E+00  0.88000000000E+00 0.  1.
        -11    1    4    4    0    0  0.13906076383E-01  0.48478791315E-01  0.44212826971E-01  0.67071658377E-01  0.51100000000E-03 0. -1.
         11    1    4    4    0    0 -0.72731781366E-02  0.18255471345E-01  0.71400429445E-01  0.74057030727E-01  0.51100000000E-03 0.  1.
</event>
<event>
 8    1  0.2302330E+004  0.1043930E+01  0.7957747E-01            NaN
         13   -1    0    0    0    0  0.00000000000E+00  0.00000000000E+00  0.74505805969E-08  0.10566000000E+00  0.10566000000E+00 0.  1.
     999900   -1    0    0    0    0 -0.00000000000E+00 -0.00000000000E+00 -0.74505805969E-08  0.93827000000E+00  0.93827000000E+00 0.  1.
     999902    2    1    2    0    0  0.76173088418E-02 -0.53096092261E-02  0.72423740877E-02  0.10321542908E+01  0.10320871149E+01 0.  0.
     999903    2    3    3    0    0 -0.34480163482E-01  0.12280163024E+00  0.40442554227E-01  0.14126319826E+00  0.45283207988E-01 0.  0.
         14    1    1    2    0    0 -0.76173088418E-02  0.53096092261E-02 -0.72423740877E-02  0.11775709174E-01  0.00000000000E+00 0. -1.
     999901    1    3    3    0    0  0.42097472323E-01 -0.12811123947E+00 -0.33200180139E-01  0.89089109257E+00  0.88000000000E+00 0. -1.
        -11    1    4    4    0    0 -0.40157895744E-01  0.65320771664E-01  0.14940645127E-01  0.78121340229E-01  0.51100000000E-03 0. -1.
         11    1    4    4    0    0  0.56777322626E-02  0.57480858580E-01  0.25501909100E-01  0.63141858030E-01  0.51100000000E-03 0.  1.
</event>
<event>
 8    1  0.2077555E+004  0.1043930E+01  0.7957747E-01            NaN
         13   -1    0    0    0    0  0.00000000000E+00  0.00000000000E+00  0.74505805969E-08  0.10566000000E+00  0.10566000000E+00 0. -1.
     999900   -1    0    0    0    0 -0.00000000000E+00 -0.00000000000E+00 -0.74505805969E-08  0.93827000000E+00  0.93827000000E+00 0. -1.
     999902    2    1    2    0    0  0.10353277915E-01  0.31771163412E-03 -0.61339330831E-02  0.10318918756E+01  0.10318216544E+01 0.  0.
     999903    2    3    3    0    0 -0.13091335645E-01 -0.14397591351E-01 -0.13354970757E+00  0.14228467596E+00  0.45063631827E-01 0.  0.
         14    1    1    2    0    0 -0.10353277915E-01 -0.31771163412E-03  0.61339330831E-02  0.12038124411E-01  0.00000000000E+00 0. -1.
     999901    1    3    3    0    0  0.23444613560E-01  0.14715302985E-01  0.12741577449E+00  0.88960719963E+00  0.88000000000E+00 0.  1.
        -11    1    4    4    0    0  0.97549868051E-02  0.78148120501E-02 -0.70901873899E-01  0.71996999231E-01  0.51100000000E-03 0. -1.
         11    1    4    4    0    0 -0.22846322450E-01 -0.22212403401E-01 -0.62647833675E-01  0.70287676726E-01  0.51100000000E-03 0.  1.
</event>
<event>
 8    1  0.2077555E+004  0.1043930E+01  0.7957747E-01            NaN
         13   -1    0    0    0    0  0.00000000000E+00  0.00000000000E+00  0.74505805969E-08  0.10566000000E+00  0.10566000000E+00 0.  1.
     999900   -1    0    0    0    0 -0.00000000000E+00 -0.00000000000E+00 -0.74505805969E-08  0.93827000000E+00  0.93827000000E+00 0.  1.
     999902    2    1    2    0    0  0.11218100231E-01  0.37685519699E-02 -0.81784142265E-02  0.10295447918E+01  0.10294442889E+01 0.  0.
     999903    2    3    3    0    0  0.43284428197E-01 -0.94275620050E-01  0.80967201862E-01  0.13904613936E+00  0.44907759182E-01 0.  0.
         14    1    1    2    0    0 -0.11218100231E-01 -0.37685519699E-02  0.81784142265E-02  0.14385208236E-01  0.00000000000E+00 0.  1.
     999901    1    3    3    0    0 -0.32066327966E-01  0.98044172020E-01 -0.89145616089E-01  0.89049865240E+00  0.88000000000E+00 0.  1.
        -11    1    4    4    0    0  0.30704744088E-01 -0.95525977443E-01  0.73149742411E-01  0.12417382821E+00  0.51100000000E-03 0. -1.
         11    1    4    4    0    0  0.12579684108E-01  0.12503573934E-02  0.78174594507E-02  0.14872311157E-01  0.51100000000E-03 0.  1.
</event>
<event>
 8    1  0.2077555E+004  0.1043930E+01  0.7957747E-01            NaN
         13   -1    0    0    0    0  0.00000000000E+00  0.00000000000E+00  0.74505805969E-08  0.10566000000E+00  0.10566000000E+00 0. -1.
     999900   -1    0    0    0    0 -0.00000000000E+00 -0.00000000000E+00 -0.74505805969E-08  0.93827000000E+00  0.93827000000E+00 0. -1.
     999902    2    1    2    0    0 -0.46046921877E-02  0.94056551152E-02  0.10199409957E-01  0.10293116040E+01  0.10292077927E+01 0.  0.
     999903    2    3    3    0    0  0.96759029154E-01  0.28360070522E-01  0.87157927813E-01  0.13995425886E+00  0.42709330020E-01 0.  0.
         14    1    1    2    0    0  0.46046921877E-02 -0.94056551152E-02 -0.10199409957E-01  0.14618396005E-01  0.00000000000E+00 0.  1.
     999901    1    3    3    0    0 -0.10136372134E+00 -0.18954415407E-01 -0.76958517856E-01  0.88935734513E+00  0.88000000000E+00 0. -1.
        -11    1    4    4    0    0  0.71759062774E-01  0.28174460248E-02  0.45294580106E-01  0.84906779472E-01  0.51100000000E-03 0.  1.
         11    1    4    4    0    0  0.24999966379E-01  0.25542624498E-01  0.41863347707E-01  0.55047479392E-01  0.51100000000E-03 0. -1.
</event>
<event>
 8    1  0.2077555E+004  0.1043930E+01  0.7957747E-01            NaN
         13   -1    0    0    0    0  0.00000000000E+00  0.00000000000E+00  0.74505805969E-08  0.10566000000E+00  0.10566000000E+00 0.  1.
     999900   -1    0    0    0    0 -0.00000000000E+00 -0.00000000000E+00 -0.74505805969E-08  0.93827000000E+00  0.93827000000E+00 0.  1.
     999902    2    1    2    0    0  0.96341707041E-03  0.11542427271E-01 -0.20772808263E-01  0.10201462795E+01  0.10198689946E+01 0.  0.
     999903    2    3    3    0    0  0.36411624370E-01  0.10005038885E+00  0.62014379337E-01  0.13113337005E+00  0.44880851133E-01 0.  0.
         14    1    1    2    0    0 -0.96341707041E-03 -0.11542427271E-01  0.20772808263E-01  0.23783720543E-01  0.00000000000E+00 0.  1.
     999901    1    3    3    0    0 -0.35448207300E-01 -0.88507961575E-01 -0.82787187600E-01  0.88901290941E+00  0.88000000000E+00 0. -1.
        -11    1    4    4    0    0  0.19266859925E-01  0.73371773007E-01  0.64144886280E-01  0.99345138393E-01  0.51100000000E-03 0.  1.
         11    1    4    4    0    0  0.17144764445E-01  0.26678615839E-01 -0.21305069429E-02  0.31788231656E-01  0.51100000000E-03 0. -1.
</event>
<event>
 8    1  0.2077555E+004  0.1043930E+01  0.7957747E-01            NaN
         13   -1    0    0    0    0  0.00000000000E+00  0.00000000000E+00  0.74505805969E-08  0.10566000000E+00  0.10566000000E+00 0. -1.
     999900   -1    0    0    0    0 -0.00000000000E+00 -0.00000000000E+00 -0.74505805969E-08  0.93827000000E+00  0.93827000000E+00 0. -1.
     999902    2    1    2    0    0 -0.98830514222E-02 -0.41810315748E-02 -0.10960843871E-01  0.10285906444E+01  0.10284762603E+01 0.  0.
     999903    2    3    3    0    0  0.96391887732E-01  0.85407375497E-01  0.16593170513E-01  0.13725475429E+00  0.44471546603E-01 0.  0.
         14    1    1    2    0    0  0.98830514222E-02  0.41810315748E-02  0.10960843871E-01  0.15339355554E-01  0.00000000000E+00 0.  1.
     999901    1    3    3    0    0 -0.10627493915E+00 -0.89588407072E-01 -0.27554014384E-01  0.89133589016E+00  0.88000000000E+00 0. -1.
        -11    1    4    4    0    0  0.51852315958E-01  0.45154922646E-01 -0.13541504729E-01  0.70080405112E-01  0.51100000000E-03 0.  1.
         11    1    4    4    0    0  0.44539571774E-01  0.40252452852E-01  0.30134675241E-01  0.67174349176E-01  0.51100000000E-03 0. -1.
</event>
<event>
 8    1  0.2077555E+004  0.1043930E+01  0.7957747E-01            NaN
         13   -1    0    0    0    0  0.00000000000E+00  0.00000000000E+00  0.74505805969E-08  0.10566000000E+00  0.10566000000E+00 0.  1.
     999900   -1    0    0    0    0 -0.00000000000E+00 -0.00000000000E+00 -0.74505805969E-08  0.93827000000E+00  0.93827000000E+00 0.  1.
     999902    2    1    2    0    0  0.41030290234E-02 -0.53482994363E-02 -0.10979104770E-01  0.10310466815E+01  0.10309661874E+01 0.  0.
     999903    2    3    3    0    0  0.45659453773E-01  0.12109398756E+00 -0.31938214330E-01  0.14079173338E+00  0.45318021920E-01 0.  0.
         14    1    1    2    0    0 -0.41030290234E-02  0.53482994363E-02  0.10979104770E-01  0.12883318500E-01  0.00000000000E+00 0.  1.
     999901    1    3    3    0    0 -0.41556424749E-01 -0.12644228700E+00  0.20959109560E-01  0.89025494812E+00  0.88000000000E+00 0. -1.
        -11    1    4    4    0    0  0.33615821129E-01  0.11917398933E+00 -0.23720619849E-01  0.12607692925E+00  0.51100000000E-03 0. -1.
         11    1    4    4    0    0  0.12043632643E-01  0.19199982352E-02 -0.82175944810E-02  0.14714804128E-01  0.51100000000E-03 0.  1.
</event>
<event>
 8    1  0.2077555E+004  0.1043930E+01  0.7957747E-01            NaN
         13   -1    0    0    0    0  0.00000000000E+00  0.00000000000E+00  0.74505805969E-08  0.10566000000E+00  0.10566000000E+00 0. -1.
     999900   -1    0    0    0    0 -0.00000000000E+00 -0.00000000000E+00 -0.74505805969E-08  0.93827000000E+00  0.93827000000E+00 0.  1.
     999902    2    1    2    0    0  0.58463767250E-02  0.82972862159E-02 -0.10087877674E-01  0.10296195019E+01  0.10295200476E+01 0.  0.
     999903    2    3    3    0    0 -0.10178241561E+00  0.84065186187E-01 -0.26430902668E-01  0.13968027586E+00  0.37220574861E-01 0.  0.
         14    1    1    2    0    0 -0.58463767250E-02 -0.82972862159E-02  0.10087877674E-01  0.14310498081E-01  0.00000000000E+00 0. -1.
     999901    1    3    3    0    0  0.10762879234E+00 -0.75767899971E-01  0.16343024995E-01  0.88993922606E+00  0.88000000000E+00 0. -1.
        -11    1    4    4    0    0 -0.33813142379E-01  0.41736873345E-01  0.43524695269E-02  0.53893416167E-01  0.51100000000E-03 0.  1.
         11    1    4    4    0    0 -0.67969273234E-01  0.42328312842E-01 -0.30783372195E-01  0.85786859697E-01  0.51100000000E-03 0. -1.
</event>
<event>
 8    1  0.2077555E+004  0.1043930E+01  0.7957747E-01            NaN
         13   -1    0    0    0    0  0.00000000000E+00  0.00000000000E+00  0.74505805969E-08  0.10566000000E+00  0.10566000000E+00 0. -1.
     999900   -1    0    0    0    0 -0.00000000000E+00 -0.00000000000E+00 -0.74505805969E-08  0.93827000000E+00  0.93827000000E+00 0.  1.
     999902    2    1    2    0    0  0.37489689084E-02  0.23695649746E-02  0.14138389002E-01  0.10291123197E+01  0.10290056379E+01 0.  0.
     999903    2    3    3    0    0  0.64657471408E-02  0.82395924865E-01  0.10489698665E+00  0.14082817472E+00  0.44702378765E-01 0.  0.
         14    1    1    2    0    0 -0.37489689084E-02 -0.23695649746E-02 -0.14138389002E-01  0.14817680305E-01  0.00000000000E+00 0.  1.
     999901    1    3    3    0    0 -0.27167782324E-02 -0.80026359890E-01 -0.90758597648E-01  0.88828414497E+00  0.88000000000E+00 0.  1.
        -11    1    4    4    0    0 -0.10308596808E-01  0.59474715124E-01  0.47593268786E-01  0.76869299866E-01  0.51100000000E-03 0.  1.
         11    1    4    4    0    0  0.16774343949E-01  0.22921209741E-01  0.57303717864E-01  0.63958874857E-01  0.51100000000E-03 0. -1.
</event>
<event>
 8    1  0.2077555E+004  0.1043930E+01  0.7957747E-01            NaN
         13   -1    0    0    0    0  0.00000000000E+00  0.00000000000E+00  0.74505805969E-08  0.10566000000E+00  0.10566000000E+00 0. -1.
     999900   -1    0    0    0    0 -0.00000000000E+00 -0.00000000000E+00 -0.74505805969E-08  0.93827000000E+00  0.93827000000E+00 0.  1.
     999902    2    1    2    0    0 -0.85582356602E-02  0.11605861972E-01 -0.37029052237E-02  0.10290420540E+01  0.10289343506E+01 0.  0.
     999903    2    3    3    0    0  0.10057602901E+00 -0.42567311461E-01 -0.71618595624E-01  0.13805520702E+00  0.44749338873E-01 0.  0.
         14    1    1    2    0    0  0.85582356602E-02 -0.11605861972E-01  0.37029052237E-02  0.14887946025E-01  0.00000000000E+00 0. -1.
     999901    1    3    3    0    0 -0.10913426467E+00  0.54173173434E-01  0.67915690401E-01  0.89098684696E+00  0.88000000000E+00 0.  1.
        -11    1    4    4    0    0  0.23005222389E-01 -0.23864512333E-01 -0.40666954098E-01  0.52467299174E-01  0.51100000000E-03 0. -1.
         11    1    4    4    0    0  0.77570806622E-01 -0.18702799128E-01 -0.30951641526E-01  0.85587907845E-01  0.51100000000E-03 0.  1.
</event>
<event>
 8    1  0.2077555E+004  0.1043930E+01  0.7957747E-01            NaN
         13   -1    0    0    0    0  0.00000000000E+00  0.00000000000E+00  0.74505805969E-08  0.10566000000E+00  0.10566000000E+00 0. -1.
     999900   -1    0    0    0    0 -0.00000000000E+00 -0.00000000000E+00 -0.74505805969E-08  0.93827000000E+00  0.93827000000E+00 0.  1.
     999902    2    1    2    0    0  0.12312906481E-01 -0.16417111468E-03 -0.65782341224E-02  0.10299690623E+01  0.10298744397E+01 0.  0.
     999903    2    3    3    0    0  0.42761314936E-01 -0.27792515230E-01  0.12130433993E+00  0.13977560929E+00  0.47133046899E-01 0.  0.
         14    1    1    2    0    0 -0.12312906481E-01  0.16417111468E-03  0.65782341224E-02  0.13960937731E-01  0.00000000000E+00 0.  1.
     999901    1    3    3    0    0 -0.30448408455E-01  0.27628344115E-01 -0.12788257405E+00  0.89019345298E+00  0.88000000000E+00 0. -1.
        -11    1    4    4    0    0  0.34083430449E-01  0.22686778324E-02  0.39690453478E-01  0.52368123401E-01  0.51100000000E-03 0. -1.
         11    1    4    4    0    0  0.86778844876E-02 -0.30061193062E-01  0.81613886449E-01  0.87407485891E-01  0.51100000000E-03 0.  1.
</event>
<event>
 8    1  0.2077555E+004  0.1043930E+01  0.7957747E-01            NaN
         13   -1    0    0    0    0  0.00000000000E+00  0.00000000000E+00  0.74505805969E-08  0.10566000000E+00  0.10566000000E+00 0. -1.
     999900   -1    0    0    0    0 -0.00000000000E+00 -0.00000000000E+00 -0.74505805969E-08  0.93827000000E+00  0.93827000000E+00 0.  1.
     999902    2    1    2    0    0 -0.62686480877E-02 -0.54080903607E-02  0.11513251208E-01  0.10297490852E+01  0.10296514363E+01 0.  0.
     999903    2    3    3    0    0 -0.90968981546E-01  0.73072269738E-01 -0.61161092195E-01  0.13923525963E+00  0.45065131940E-01 0.  0.
         14    1    1    2    0    0  0.62686480877E-02  0.54080903607E-02 -0.11513251208E-01  0.14180914765E-01  0.00000000000E+00 0.  1.
     999901    1    3    3    0    0  0.84700333459E-01 -0.78480360098E-01  0.72674343403E-01  0.89051382561E+00  0.88000000000E+00 0. -1.
        -11    1    4    4    0    0 -0.71471555454E-01  0.29462411362E-01 -0.37356234582E-01  0.85860155517E-01  0.51100000000E-03 0. -1.
         11    1    4    4    0    0 -0.19497426092E-01  0.43609858375E-01 -0.23804857613E-01  0.53375104110E-01  0.51100000000E-03 0.  1.
</event>
<event>
 8    1  0.2077555E+004  0.1043930E+01  0.7957747E-01            NaN
         13   -1    0    0    0    0  0.00000000000E+00  0.00000000000E+00  0.74505805969E-08  0.10566000000E+00  0.10566000000E+00 0. -1.
     999900   -1    0    0    0    0 -0.00000000000E+00 -0.00000000000E+00 -0.74505805969E-08  0.93827000000E+00  0.93827000000E+00 0. -1.
     999902    2    1    2    0    0  0.90896180612E-02 -0.50492927806E-02  0.22861610047E-03  0.10335295779E+01  0.10334772468E+01 0.  0.
     999903    2    3    3    0    0 -0.12999521149E+00 -0.74663145703E-02  0.34821618988E-01  0.14193151396E+00  0.44469187577E-01 0.  0.
         14    1    1    2    0    0 -0.90896180612E-02  0.50492927806E-02 -0.22861610047E-03  0.10400422078E-01  0.00000000000E+00 0.  1.
     999901    1    3    3    0    0  0.13908482955E+00  0.24170217896E-02 -0.34593002887E-01  0.89159806396E+00  0.88000000000E+00 0. -1.
        -11    1    4    4    0    0 -0.30187165962E-01 -0.20952658721E-01  0.12029044983E-01  0.38668306667E-01  0.51100000000E-03 0. -1.
         11    1    4    4    0    0 -0.99808045527E-01  0.13486344150E-01  0.22792574005E-01  0.10326320730E+00  0.51100000000E-03 0.  1.
</event>
<event>
 8    1  0.2077555E+004  0.1043930E+01  0.7957747E-01            NaN
         13   -1    0    0    0    0  0.00000000000E+00  0.00000000000E+00  0.74505805969E-08  0.10566000000E+00  0.10566000000E+00 0. -1.
     999900   -1    0    0    0    0 -0.00000000000E+00 -0.00000000000E+00 -0.74505805969E-08  0.93827000000E+00  0.93827000000E+00 0.  1.
     999902    2    1    2    0    0 -0.20446410216E-01 -0.59536455293E-02 -0.42817159803E-02  0.10222082441E+01  0.10219774262E+01 0.  0.
     999903    2    3    3    0    0 -0.55657318160E-01 -0.18916765075E-01 -0.11294780820E+00  0.13473082465E+00  0.44040965803E-01 0.  0.
         14    1    1    2    0    0  0.20446410216E-01  0.59536455293E-02  0.42817159803E-02  0.21721755858E-01  0.00000000000E+00 0. -1.
     999901    1    3    3    0    0  0.35210907944E-01  0.12963119546E-01  0.10866609222E+00  0.88747741949E+00  0.88000000000E+00 0. -1.
        -11    1    4    4    0    0 -0.34783722484E-01 -0.26449565748E-01 -0.99759355700E-01  0.10891132654E+00  0.51100000000E-03 0. -1.
         11    1    4    4    0    0 -0.20873595677E-01  0.75328006723E-02 -0.13188452499E-01  0.25819498112E-01  0.51100000000E-03 0.  1.
</event>
<event>
 8    1  0.2077555E+004  0.1043930E+01  0.7957747E-01            NaN
         13   -1    0    0    0    0  0.00000000000E+00  0.00000000000E+00  0.74505805969E-08  0.10566000000E+00  0.10566000000E+00 0. -1.
     999900   -1    0    0    0    0 -0.00000000000E+00 -0.00000000000E+00 -0.74505805969E-08  0.93827000000E+00  0.93827000000E+00 0.  1.
     999902    2    1    2    0    0 -0.11794326942E-01  0.57720255075E-02  0.47492308446E-02  0.10299665613E+01  0.10298719046E+01 0.  0.
     999903    2    3    3    0    0  0.89914078708E-01  0.80043291507E-02 -0.94588663141E-01  0.13855330129E+00  0.45840934414E-01 0.  0.
         14    1    1    2    0    0  0.11794326942E-01 -0.57720255075E-02 -0.47492308446E-02  0.13963438691E-01  0.00000000000E+00 0.  1.
     999901    1    3    3    0    0 -0.10170840565E+00 -0.22323036432E-02  0.99337893986E-01  0.89141326002E+00  0.88000000000E+00 0. -1.
        -11    1    4    4    0    0  0.38373205836E-01  0.18422570006E-01 -0.66439668029E-01  0.78907443379E-01  0.51100000000E-03 0. -1.
         11    1    4    4    0    0  0.51540872871E-01 -0.10418240856E-01 -0.28148995112E-01  0.59645857909E-01  0.51100000000E-03 0.  1.
</event>
<event>
 8    1  0.2077555E+004  0.1043930E+01  0.7957747E-01            NaN
         13   -1    0    0    0    0  0.00000000000E+00  0.00000000000E+00  0.74505805969E-08  0.10566000000E+00  0.10566000000E+00 0.  1.
     999900   -1    0    0    0    0 -0.00000000000E+00 -0.00000000000E+00 -0.74505805969E-08  0.93827000000E+00  0.93827000000E+00 0. -1.
     999902    2    1    2    0    0  0.12468442205E-01 -0.80260039348E-02 -0.73733350679E-03  0.10290833690E+01  0.10289762670E+01 0.  0.
     999903    2    3    3    0    0  0.10082121675E+00  0.70459214193E-01 -0.49066937396E-01  0.13986916940E+00  0.45015570540E-01 0.  0.
         14    1    1    2    0    0 -0.12468442205E-01  0.80260039348E-02  0.73733350679E-03  0.14846630960E-01  0.00000000000E+00 0. -1.
     999901    1    3    3    0    0 -0.88352774544E-01 -0.78485218128E-01  0.48329603890E-01  0.88921419964E+00  0.88000000000E+00 0.  1.
        -11    1    4    4    0    0  0.31473405425E-01  0.13603959803E-01 -0.35172727283E-01  0.49122549169E-01  0.51100000000E-03 0.  1.
         11    1    4    4    0    0  0.69347811323E-01  0.56855254390E-01 -0.13894210114E-01  0.90746620228E-01  0.51100000000E-03 0. -1.
</event>
<event>
 8    1  0.2077555E+004  0.1043930E+01  0.7957747E-01            NaN
         13   -1    0    0    0    0  0.00000000000E+00  0.00000000000E+00  0.74505805969E-08  0.10566000000E+00  0.10566000000E+00 0.  1.
     999900   -1    0    0    0    0 -0.00000000000E+00 -0.00000000000E+00 -0.74505805969E-08  0.93827000000E+00  0.93827000000E+00 0. -1.
     999902    2    1    2    0    0  0.27539635991E-03 -0.14022403288E-01 -0.27073537645E-02  0.10296459739E+01  0.10295468897E+01 0.  0.
     999903    2    3    3    0    0 -0.68830109971E-01 -0.52480814150E-01  0.10044189540E+00  0.14009868007E+00  0.45246501645E-01 0.  0.
         14    1    1    2    0    0 -0.27539635991E-03  0.14022403288E-01  0.27073537645E-02  0.14284026096E-01  0.00000000000E+00 0.  1.
     999901    1    3    3    0    0  0.69105506331E-01  0.38458410862E-01 -0.10314924917E+00  0.88954729384E+00  0.88000000000E+00 0. -1.
        -11    1    4    4    0    0 -0.54321792837E-01 -0.18272097578E-01  0.42866002991E-01  0.71571517102E-01  0.51100000000E-03 0.  1.
         11    1    4    4    0    0 -0.14508317135E-01 -0.34208716572E-01  0.57575892413E-01  0.68527162963E-01  0.51100000000E-03 0. -1.
</event>
<event>
 8    1  0.2077555E+004  0.1043930E+01  0.7957747E-01            NaN
         13   -1    0    0    0    0  0.00000000000E+00  0.00000000000E+00  0.74505805969E-08  0.10566000000E+00  0.10566000000E+00 0. -1.
     999900   -1    0    0    0    0 -0.00000000000E+00 -0.00000000000E+00 -0.74505805969E-08  0.93827000000E+00  0.93827000000E+00 0.  1.
     999902    2    1    2    0    0  0.12297217350E-01 -0.65029600852E-02  0.11499288064E-02  0.10299717630E+01  0.10298771772E+01 0.  0.
     999903    2    3    3    0    0 -0.12477298023E+00  0.11896707596E-01  0.35655073429E-01  0.13850253085E+00  0.46923752449E-01 0.  0.
         14    1    1    2    0    0 -0.12297217350E-01  0.65029600852E-02 -0.11499288064E-02  0.13958237019E-01  0.00000000000E+00 0. -1.
     999901    1    3    3    0    0  0.13707019758E+00 -0.18399667682E-01 -0.34505144623E-01  0.89146923213E+00  0.88000000000E+00 0.  1.
        -11    1    4    4    0    0 -0.36842359702E-01 -0.17906026562E-01  0.97417916278E-02  0.42108774392E-01  0.51100000000E-03 0.  1.
         11    1    4    4    0    0 -0.87930620524E-01  0.29802734158E-01  0.25913281801E-01  0.96393756456E-01  0.51100000000E-03 0. -1.
</event>
<event>
 8    1  0.2077555E+004  0.1043930E+01  0.7957747E-01            NaN
         13   -1    0    0    0    0  0.00000000000E+00  0.00000000000E+00  0.74505805969E-08  0.10566000000E+00  0.10566000000E+00 0. -1.
     999900   -1    0    0    0    0 -0.00000000000E+00 -0.00000000000E+00 -0.74505805969E-08  0.93827000000E+00  0.93827000000E+00 0.  1.
     999902    2    1    2    0    0 -0.12476803541E-01  0.69115341845E-02 -0.78351975116E-02  0.10276563940E+01  0.10275275344E+01 0.  0.
     999903    2    3    3    0    0  0.93549857754E-01  0.35133387511E-01  0.81350943969E-01  0.13636951892E+00  0.44640103055E-01 0.  0.
         14    1    1    2    0    0  0.12476803541E-01 -0.69115341845E-02  0.78351975116E-02  0.16273605975E-01  0.00000000000E+00 0. -1.
     999901    1    3    3    0    0 -0.10602666130E+00 -0.28221853327E-01 -0.89186141480E-01  0.89128687511E+00  0.88000000000E+00 0.  1.
        -11    1    4    4    0    0  0.41041535708E-01  0.21583640407E-01  0.64771522834E-01  0.79660984665E-01  0.51100000000E-03 0.  1.
         11    1    4    4    0    0  0.52508322046E-01  0.13549747104E-01  0.16579421135E-01  0.56708534251E-01  0.51100000000E-03 0. -1.
</event>
<event>
 8    1  0.2077555E+004  0.1043930E+01  0.7957747E-01            NaN
         13   -1    0    0    0    0  0.00000000000E+00  0.00000000000E+00  0.74505805969E-08  0.10566000000E+00  0.10566000000E+00 0.  1.
     999900   -1    0    0    0    0 -0.00000000000E+00 -0.00000000000E+00 -0.74505805969E-08  0.93827000000E+00  0.93827000000E+00 0. -1.
     999902    2    1    2    0    0 -0.12196514513E-01 -0.72858089415E-03  0.63729899673E-02  0.10301495502E+01  0.10300573746E+01 0.  0.
     999903    2    3    3    0    0  0.92792386852E-02  0.13043489657E+00  0.22379425521E-01  0.14002524887E+00  0.44798048177E-01 0.  0.
         14    1    1    2    0    0  0.12196514513E-01  0.72858089415E-03 -0.63729899673E-02  0.13780449829E-01  0.00000000000E+00 0. -1.
     999901    1    3    3    0    0 -0.21475753198E-01 -0.13116347746E+00 -0.16006435553E-01  0.89012430131E+00  0.88000000000E+00 0. -1.
        -11    1    4    4    0    0 -0.10130483100E-01  0.10758727872E-01 -0.52231755634E-02  0.15681823786E-01  0.51100000000E-03 0. -1.
         11    1    4    4    0    0  0.19409721786E-01  0.11967616869E+00  0.27602601084E-01  0.12434342508E+00  0.51100000000E-03 0.  1.
</event>
<event>
 8    1  0.2077555E+004  0.1043930E+01  0.7957747E-01            NaN
         13   -1    0    0    0    0  0.00000000000E+00  0.00000000000E+00  0.74505805969E-08  0.10566000000E+00  0.10566000000E+00 0. -1.
     999900   -1    0    0    0    0 -0.00000000000E+00 -0.00000000000E+00 -0.74505805969E-08  0.93827000000E+00  0.93827000000E+00 0.  1.
     999902    2    1    2    0    0 -0.38396355887E-02  0.32701419820E-02  0.12614059775E-01  0.10303450402E+01  0.10302554783E+01 0.  0.
     999903    2    3    3    0    0 -0.23963073129E-01 -0.12816235724E+00  0.25764127142E-01  0.14025943817E+00  0.44822997009E-01 0.  0.
         14    1    1    2    0    0  0.38396355887E-02 -0.32701419820E-02 -0.12614059775E-01  0.13584959847E-01  0.00000000000E+00 0.  1.
     999901    1    3    3    0    0  0.20123437540E-01  0.13143249922E+00 -0.13150067368E-01  0.89008560199E+00  0.88000000000E+00 0.  1.
        -11    1    4    4    0    0  0.11900290024E-01 -0.46333222471E-01  0.23483633459E-02  0.47897393861E-01  0.51100000000E-03 0. -1.
         11    1    4    4    0    0 -0.35863363152E-01 -0.81829134768E-01  0.23415763796E-01  0.92362044307E-01  0.51100000000E-03 0.  1.
</event>
<event>
 8    1  0.2077555E+004  0.1043930E+01  0.7957747E-01            NaN
         13   -1    0    0    0    0  0.00000000000E+00  0.00000000000E+00  0.74505805969E-08  0.10566000000E+00  0.10566000000E+00 0.  1.
     999900   -1    0    0    0    0 -0.00000000000E+00 -0.00000000000E+00 -0.74505805969E-08  0.93827000000E+00  0.93827000000E+00 0.  1.
     999902    2    1    2    0    0  0.10033050764E-01 -0.94694146454E-02 -0.84273468279E-04  0.10301336591E+01  0.10300412693E+01 0.  0.
     999903    2    3    3    0    0  0.13136640141E+00 -0.32313281412E-01  0.15194559424E-01  0.14138337525E+00  0.38172039330E-01 0.  0.
         14    1    1    2    0    0 -0.10033050764E-01  0.94694146454E-02  0.84273468279E-04  0.13796340942E-01  0.00000000000E+00 0.  1.
     999901    1    3    3    0    0 -0.12133335065E+00  0.22843866767E-01 -0.15278832892E-01  0.88875028380E+00  0.88000000000E+00 0.  1.
        -11    1    4    4    0    0  0.73014425023E-01 -0.34371766667E-01 -0.12844480625E-02  0.80712053209E-01  0.51100000000E-03 0.  1.
         11    1    4    4    0    0  0.58351976388E-01  0.20584852553E-02  0.16479007486E-01  0.60671322045E-01  0.51100000000E-03 0. -1.
</event>
<event>
 8    1  0.2077555E+004  0.1043930E+01  0.7957747E-01            NaN
         13   -1    0    0    0    0  0.00000000000E+00  0.00000000000E+00  0.74505805969E-08  0.10566000000E+00  0.10566000000E+00 0.  1.
     999900   -1    0    0    0    0 -0.00000000000E+00 -0.00000000000E+00 -0.74505805969E-08  0.93827000000E+00  0.93827000000E+00 0. -1.
     999902    2    1    2    0    0  0.76588134194E-02 -0.58683087179E-02  0.12985500553E-01  0.10277523087E+01  0.10276249756E+01 0.  0.
     999903    2    3    3    0    0 -0.12904620260E+00 -0.70860717636E-02  0.87809965632E-02  0.13718652104E+00  0.45165261400E-01 0.  0.
         14    1    1    2    0    0 -0.76588134194E-02  0.58683087179E-02 -0.12985500553E-01  0.16177691269E-01  0.00000000000E+00 0. -1.
     999901    1    3    3    0    0  0.13670501601E+00  0.12177630457E-02  0.42045039894E-02  0.89056578769E+00  0.88000000000E+00 0. -1.
        -11    1    4    4    0    0 -0.67148263805E-01 -0.31801854733E-02 -0.18053193653E-01  0.69607340372E-01  0.51100000000E-03 0. -1.
         11    1    4    4    0    0 -0.61897938790E-01 -0.39058862903E-02  0.26834190217E-01  0.67579180668E-01  0.51100000000E-03 0.  1.
</event>
<event>
 8    1  0.2077555E+004  0.1043930E+01  0.7957747E-01            NaN
         13   -1    0    0    0    0  0.00000000000E+00  0.00000000000E+00  0.74505805969E-08  0.10566000000E+00  0.10566000000E+00 0.  1.
     999900   -1    0    0    0    0 -0.00000000000E+00 -0.00000000000E+00 -0.74505805969E-08  0.93827000000E+00  0.93827000000E+00 0.  1.
     999902    2    1    2    0    0 -0.33097530017E-02  0.46798660961E-02  0.12139952359E-01  0.10305048723E+01  0.10304174192E+01 0.  0.
     999903    2    3    3    0    0 -0.12255138113E+00 -0.32997743078E-01  0.42750869111E-01  0.14113700892E+00  0.44545778832E-01 0.  0.
         14    1    1    2    0    0  0.33097530017E-02 -0.46798660961E-02 -0.12139952359E-01  0.13425127742E-01  0.00000000000E+00 0. -1.
     999901    1    3    3    0    0  0.11924162813E+00  0.37677609174E-01 -0.30610916752E-01  0.88936786334E+00  0.88000000000E+00 0.  1.
        -11    1    4    4    0    0 -0.82181052719E-01 -0.37331785595E-01  0.13906438543E-01  0.91329282247E-01  0.51100000000E-03 0.  1.
         11    1    4    4    0    0 -0.40370328413E-01  0.43340425164E-02  0.28844430568E-01  0.49807726674E-01  0.51100000000E-03 0. -1.
</event>
<event>
 7    1  0.2077555E+004  0.1043930E+01  0.7957747E-01            NaN
         13   -1    0    0    0    0  0.00000000000E+00  0.00000000000E+00  0.74505805969E-08  0.10566000000E+00  0.10566000000E+00 0. -1.
     999900   -1    0    0    0    0 -0.00000000000E+00 -0.00000000000E+00 -0.74505805969E-08  0.93827000000E+00  0.93827000000E+00 0. -1.
     999902    2    1    2    0    0 -0.10618927803E-01 -0.24640395811E-02  0.81180561000E-02  0.10303382395E+01  0.10302485874E+01 0.  0.
         14    1    1    2    0    0  0.10618927803E-01  0.24640395811E-02 -0.81180561000E-02  0.13591760503E-01  0.00000000000E+00 0.  1.
     999901    1    3    3    0    0  0.71349090493E-01 -0.95632833591E-01 -0.55134276677E-01  0.88976183332E+00  0.88000000000E+00 0.  1.
        -11    1    3    3    0    0 -0.53047310034E-01  0.73160162533E-01  0.45825558023E-01  0.10132457438E+00  0.51100000000E-03 0.  1.
         11    1    3    3    0    0 -0.28920708262E-01  0.20008631477E-01  0.17426774754E-01  0.39251831795E-01  0.51100000000E-03 0. -1.
</event>
<event>
 8    1  0.2077555E+004  0.1043930E+01  0.7957747E-01            NaN
         13   -1    0    0    0    0  0.00000000000E+00  0.00000000000E+00  0.74505805969E-08  0.10566000000E+00  0.10566000000E+00 0. -1.
     999900   -1    0    0    0    0 -0.00000000000E+00 -0.00000000000E+00 -0.74505805969E-08  0.93827000000E+00  0.93827000000E+00 0. -1.
     999902    2    1    2    0    0 -0.12572112279E-01  0.14009746768E-02  0.58595608686E-02  0.10299888669E+01  0.10298945144E+01 0.  0.
     999903    2    3    3    0    0 -0.12261160228E+00 -0.45804002926E-01 -0.28655598978E-01  0.14120976305E+00  0.44580737203E-01 0.  0.
         14    1    1    2    0    0  0.12572112279E-01 -0.14009746768E-02 -0.58595608686E-02  0.13941133052E-01  0.00000000000E+00 0. -1.
     999901    1    3    3    0    0  0.11003949000E+00  0.47204977603E-01  0.34515159847E-01  0.88877910390E+00  0.88000000000E+00 0.  1.
        -11    1    4    4    0    0 -0.67990741566E-01 -0.43968053770E-01 -0.35041433712E-02  0.81046103131E-01  0.51100000000E-03 0. -1.
         11    1    4    4    0    0 -0.54620860713E-01 -0.18359491561E-02 -0.25151455607E-01  0.60163659916E-01  0.51100000000E-03 0.  1.
</event>
<event>
 8    1  0.2077555E+004  0.1043930E+01  0.7957747E-01            NaN
         13   -1    0    0    0    0  0.00000000000E+00  0.00000000000E+00  0.74505805969E-08  0.10566000000E+00  0.10566000000E+00 0. -1.
     999900   -1    0    0    0    0 -0.00000000000E+00 -0.00000000000E+00 -0.74505805969E-08  0.93827000000E+00  0.93827000000E+00 0.  1.
     999902    2    1    2    0    0  0.12344678558E-01  0.52173300898E-02  0.49358240721E-02  0.10296480540E+01  0.10295489989E+01 0.  0.
     999903    2    3    3    0    0  0.54807015603E-01 -0.12052903720E+00 -0.11203699059E-02  0.13967509013E+00  0.44461419303E-01 0.  0.
         14    1    1    2    0    0 -0.12344678558E-01 -0.52173300898E-02 -0.49358240721E-02  0.14281945989E-01  0.00000000000E+00 0.  1.
     999901    1    3    3    0    0 -0.42462337045E-01  0.12574636729E+00  0.60561939780E-02  0.88997296388E+00  0.88000000000E+00 0.  1.
        -11    1    4    4    0    0  0.22473548342E-01 -0.57785616212E-01  0.21384128350E-01  0.65587955315E-01  0.51100000000E-03 0. -1.
         11    1    4    4    0    0  0.32333467261E-01 -0.62743420988E-01 -0.22504498256E-01  0.74087134815E-01  0.51100000000E-03 0.  1.
</event>
<event>
 8    1  0.2479980E+004  0.1043930E+01  0.7957747E-01            NaN
         13   -1    0    0    0    0  0.00000000000E+00  0.00000000000E+00  0.74505805969E-08  0.10566000000E+00  0.10566000000E+00 0. -1.
     999900   -1    0    0    0    0 -0.00000000000E+00 -0.00000000000E+00 -0.74505805969E-08  0.93827000000E+00  0.93827000000E+00 0.  1.
     999902    2    1    2    0    0  0.15489303868E-02 -0.65593935939E-02  0.12050564645E-01  0.10301227216E+01  0.10300301843E+01 0.  0.
     999903    2    3    3    0    0  0.53636669163E-01 -0.11999133099E+00  0.27886716537E-01  0.14117349879E+00  0.43329851271E-01 0.  0.
         14    1    1    2    0    0 -0.15489303868E-02  0.65593935939E-02 -0.12050564645E-01  0.13807278440E-01  0.00000000000E+00 0.  1.
     999901    1    3    3    0    0 -0.52087738776E-01  0.11343193739E+00 -0.15836151892E-01  0.88894922277E+00  0.88000000000E+00 0. -1.
        -11    1    4    4    0    0  0.14775706930E-01 -0.83454014426E-01  0.12608326774E-01  0.85686201131E-01  0.51100000000E-03 0. -1.
         11    1    4    4    0    0  0.38860962232E-01 -0.36537316561E-01  0.15278389763E-01  0.55487297662E-01  0.51100000000E-03 0.  1.
</event>
<event>
 8    1  0.2077555E+004  0.1043930E+01  0.7957747E-01            NaN
         13   -1    0    0    0    0  0.00000000000E+00  0.00000000000E+00  0.74505805969E-08  0.10566000000E+00  0.10566000000E+00 0.  1.
     999900   -1    0    0    0    0 -0.00000000000E+00 -0.00000000000E+00 -0.74505805969E-08  0.93827000000E+00  0.93827000000E+00 0. -1.
     999902    2    1    2    0    0 -0.43866825589E-02 -0.11490545536E-01  0.75019019026E-02  0.10295232602E+01  0.10294224541E+01 0.  0.
     999903    2    3    3    0    0 -0.45176492519E-01  0.10154539907E+00  0.69738158015E-01  0.13917822314E+00  0.46419646329E-01 0.  0.
         14    1    1    2    0    0  0.43866825589E-02  0.11490545536E-01 -0.75019019026E-02  0.14406739837E-01  0.00000000000E+00 0. -1.
     999901    1    3    3    0    0  0.40789809960E-01 -0.11303594461E+00 -0.62236256113E-01  0.89034503702E+00  0.88000000000E+00 0. -1.
        -11    1    4    4    0    0 -0.15776964813E-01  0.80226686657E-02  0.26869010249E-01  0.32178885375E-01  0.51100000000E-03 0. -1.
         11    1    4    4    0    0 -0.29399527707E-01  0.93522730405E-01  0.42869147766E-01  0.10699933777E+00  0.51100000000E-03 0.  1.
</event>
<event>
 8    1  0.2077555E+004  0.1043930E+01  0.7957747E-01            NaN
         13   -1    0    0    0    0  0.00000000000E+00  0.00000000000E+00  0.74505805969E-08  0.10566000000E+00  0.10566000000E+00 0.  1.
     999900   -1    0    0    0    0 -0.00000000000E+00 -0.00000000000E+00 -0.74505805969E-08  0.93827000000E+00  0.93827000000E+00 0. -1.
     999902    2    1    2    0    0  0.70729524539E-02 -0.21129047100E-02  0.12391568323E-01  0.10295063393E+01  0.10294052947E+01 0.  0.
     999903    2    3    3    0    0  0.39494185039E-01  0.46651447075E-02  0.12891785915E+00  0.14120714717E+00  0.41690403886E-01 0.  0.
         14    1    1    2    0    0 -0.70729524539E-02  0.21129047100E-02 -0.12391568323E-01  0.14423660708E-01  0.00000000000E+00 0. -1.
     999901    1    3    3    0    0 -0.32421232585E-01 -0.67780494175E-02 -0.11652629083E+00  0.88829919213E+00  0.88000000000E+00 0. -1.
        -11    1    4    4    0    0  0.26956860037E-01 -0.38486182251E-02  0.27651231031E-01  0.38811542920E-01  0.51100000000E-03 0.  1.
         11    1    4    4    0    0  0.12537325002E-01  0.85137629325E-02  0.10126662812E+00  0.10239560425E+00  0.51100000000E-03 0. -1.
</event>
<event>
 8    1  0.2077555E+004  0.1043930E+01  0.7957747E-01            NaN
         13   -1    0    0    0    0  0.00000000000E+00  0.00000000000E+00  0.74505805969E-08  0.10566000000E+00  0.10566000000E+00 0.  1.
     999900   -1    0    0    0    0 -0.00000000000E+00 -0.00000000000E+00 -0.74505805969E-08  0.93827000000E+00  0.93827000000E+00 0.  1.
     999902    2    1    2    0    0  0.12788528127E-01 -0.25765793760E-02  0.41277176813E-02  0.10302470447E+01  0.10301561774E+01 0.  0.
     999903    2    3    3    0    0 -0.67402730728E-01 -0.83112157618E-01 -0.76422373620E-01  0.13928973113E+00  0.45940082239E-01 0.  0.
         14    1    1    2    0    0 -0.12788528127E-01  0.25765793760E-02 -0.41277176813E-02  0.13682955316E-01  0.00000000000E+00 0. -1.
     999901    1    3    3    0    0  0.80191258855E-01  0.80535578242E-01  0.80550091301E-01  0.89095731355E+00  0.88000000000E+00 0.  1.
        -11    1    4    4    0    0 -0.13664229972E-01  0.38200376173E-02 -0.10726208709E-01  0.17793721994E-01  0.51100000000E-03 0.  1.
         11    1    4    4    0    0 -0.53738500756E-01 -0.86932195235E-01 -0.65696164910E-01  0.12149600914E+00  0.51100000000E-03 0. -1.
</event>
<event>
 8    1  0.2077555E+004  0.1043930E+01  0.7957747E-01            NaN
         13   -1    0    0    0    0  0.00000000000E+00  0.00000000000E+00  0.74505805969E-08  0.10566000000E+00  0.10566000000E+00 0. -1.
     999900   -1    0    0    0    0 -0.00000000000E+00 -0.00000000000E+00 -0.74505805969E-08  0.93827000000E+00  0.93827000000E+00 0.  1.
     999902    2    1    2    0    0  0.15657954999E-02 -0.12414926187E-01 -0.58984363680E-02  0.10300962131E+01  0.10300033178E+01 0.  0.
     999903    2    3    3    0    0  0.79676956130E-01  0.91461738860E-02  0.10534623883E+00  0.13939895130E+00  0.43613848204E-01 0.  0.
         14    1    1    2    0    0 -0.15657954999E-02  0.12414926187E-01  0.58984363680E-02  0.13833786877E-01  0.00000000000E+00 0. -1.
     999901    1    3    3    0    0 -0.78111160630E-01 -0.21561100073E-01 -0.11124467519E+00  0.89069726182E+00  0.88000000000E+00 0.  1.
        -11    1    4    4    0    0  0.56161191602E-01 -0.34030658317E-02  0.95762106714E-01  0.11106890880E+00  0.51100000000E-03 0. -1.
         11    1    4    4    0    0  0.23515764528E-01  0.12549239718E-01  0.95841321115E-02  0.28330042502E-01  0.51100000000E-03 0.  1.
</event>
<event>
 8    1  0.2077555E+004  0.1043930E+01  0.7957747E-01            NaN
         13   -1    0    0    0    0  0.00000000000E+00  0.00000000000E+00  0.74505805969E-08  0.10566000000E+00  0.10566000000E+00 0.  1.
     999900   -1    0    0    0    0 -0.00000000000E+00 -0.00000000000E+00 -0.74505805969E-08  0.93827000000E+00  0.93827000000E+00 0.  1.
     999902    2    1    2    0    0  0.33317803517E-02  0.13772421117E-01  0.12360852659E-02  0.10297064895E+01  0.10296082489E+01 0.  0.
     999903    2    3    3    0    0 -0.10840591513E+00  0.10219687797E-01  0.74551819697E-01  0.13960922999E+00  0.45568397195E-01 0.  0.
         14    1    1    2    0    0 -0.33317803517E-02 -0.13772421117E-01 -0.12360852659E-02  0.14223510486E-01  0.00000000000E+00 0. -1.
     999901    1    3    3    0    0  0.11173769548E+00  0.35527333204E-02 -0.73315734431E-01  0.89009725953E+00  0.88000000000E+00 0.  1.
        -11    1    4    4    0    0 -0.39606993232E-01  0.24517322360E-02  0.26253913104E-02  0.39772838777E-01  0.51100000000E-03 0. -1.
         11    1    4    4    0    0 -0.68798921899E-01  0.77679555610E-02  0.71926428386E-01  0.99836391208E-01  0.51100000000E-03 0.  1.
</event>
<event>
 8    1  0.2077555E+004  0.1043930E+01  0.7957747E-01            NaN
         13   -1    0    0    0    0  0.00000000000E+00  0.00000000000E+00  0.74505805969E-08  0.10566000000E+00  0.10566000000E+00 0.  1.
     999900   -1    0    0    0    0 -0.00000000000E+00 -0.00000000000E+00 -0.74505805969E-08  0.93827000000E+00  0.93827000000E+00 0. -1.
     999902    2    1    2    0    0 -0.18707819546E-02 -0.90642541019E-02 -0.11405722593E-01  0.10292415339E+01  0.10291367179E+01 0.  0.
     999903    2    3    3    0    0 -0.96637798353E-01  0.86662410117E-01  0.17085887076E-01  0.13853610930E+00  0.45288946181E-01 0.  0.
         14    1    1    2    0    0  0.18707819546E-02  0.90642541019E-02  0.11405722593E-01  0.14688466068E-01  0.00000000000E+00 0.  1.
     999901    1    3    3    0    0  0.94767016399E-01 -0.95726664219E-01 -0.28491609669E-01  0.89070542463E+00  0.88000000000E+00 0.  1.
        -11    1    4    4    0    0 -0.17807801964E-01  0.13284980306E-01 -0.14217381303E-01  0.26381879475E-01  0.51100000000E-03 0. -1.
         11    1    4    4    0    0 -0.78829996390E-01  0.73377429811E-01  0.31303268379E-01  0.11215422983E+00  0.51100000000E-03 0.  1.
</event>
<event>
 8    1  0.2077555E+004  0.1043930E+01  0.7957747E-01            NaN
         13   -1    0    0    0    0  0.00000000000E+00  0.00000000000E+00  0.74505805969E-08  0.10566000000E+00  0.10566000000E+00 0. -1.
     999900   -1    0    0    0    0 -0.00000000000E+00 -0.00000000000E+00 -0.74505805969E-08  0.93827000000E+00  0.93827000000E+00 0.  1.
     999902    2    1    2    0    0  0.13491014146E-01  0.44409456055E-03  0.56793032470E-02  0.10292855755E+01  0.10291813916E+01 0.  0.
     999903    2    3    3    0    0 -0.11646658199E+00 -0.22042574072E-01  0.53716815390E-01  0.13816143736E+00  0.46397701722E-01 0.  0.
         14    1    1    2    0    0 -0.13491014146E-01 -0.44409456055E-03 -0.56793032470E-02  0.14644424470E-01  0.00000000000E+00 0.  1.
     999901    1    3    3    0    0  0.12995759614E+00  0.22486668632E-01 -0.48037512143E-01  0.89112413817E+00  0.88000000000E+00 0.  1.
        -11    1    4    4    0    0 -0.79956283335E-01 -0.18640975051E-01  0.12594251802E-01  0.83062443348E-01  0.51100000000E-03 0.  1.
         11    1    4    4    0    0 -0.36510298655E-01 -0.34015990210E-02  0.41122563589E-01  0.55098994010E-01  0.51100000000E-03 0. -1.
</event>
<event>
 8    1  0.2077555E+004  0.1043930E+01  0.7957747E-01            NaN
         13   -1    0    0    0    0  0.00000000000E+00  0.00000000000E+00  0.74505805969E-08  0.10566000000E+00  0.10566000000E+00 0.  1.
     999900   -1    0    0    0    0 -0.00000000000E+00 -0.00000000000E+00 -0.74505805969E-08  0.93827000000E+00  0.93827000000E+00 0.  1.
     999902    2    1    2    0    0  0.31820568093E-02 -0.52615502817E-02  0.11532568893E-01  0.10308605875E+01  0.10307777362E+01 0.  0.
     999903    2    3    3    0    0 -0.91819672684E-02  0.10857513557E+00 -0.73996332843E-01  0.13932996374E+00  0.45436911584E-01 0.  0.
         14    1    1    2    0    0 -0.31820568093E-02  0.52615502817E-02 -0.11532568893E-01  0.13069412465E-01  0.00000000000E+00 0.  1.
     999901    1    3    3    0    0  0.12364024078E-01 -0.11383668585E+00  0.85528901736E-01  0.89153062380E+00  0.88000000000E+00 0.  1.
        -11    1    4    4    0    0  0.10645559197E-01  0.14237881849E-01  0.32451568596E-04  0.17785032591E-01  0.51100000000E-03 0. -1.
         11    1    4    4    0    0 -0.19827526465E-01  0.94337253720E-01 -0.74028784411E-01  0.12154493115E+00  0.51100000000E-03 0.  1.
</event>
<event>
 8    1  0.2077555E+004  0.1043930E+01  0.7957747E-01            NaN
         13   -1    0    0    0    0  0.00000000000E+00  0.00000000000E+00  0.74505805969E-08  0.10566000000E+00  0.10566000000E+00 0.  1.
     999900   -1    0    0    0    0 -0.00000000000E+00 -0.00000000000E+00 -0.74505805969E-08  0.93827000000E+00  0.93827000000E+00 0. -1.
     999902    2    1    2    0    0  0.30161747286E-02 -0.12713202340E-01 -0.47054578804E-02  0.10300424459E+01  0.10299488222E+01 0.  0.
     999903    2    3    3    0    0  0.60479877700E-01  0.11662872415E+00  0.77011807498E-02  0.13864728341E+00  0.43631251514E-01 0.  0.
         14    1    1    2    0    0 -0.30161747286E-02  0.12713202340E-01  0.47054578804E-02  0.13887554054E-01  0.00000000000E+00 0. -1.
     999901    1    3    3    0    0 -0.57463702972E-01 -0.12934192649E+00 -0.12406638630E-01  0.89139516253E+00  0.88000000000E+00 0. -1.
        -11    1    4    4    0    0  0.30592915890E-01  0.96311421266E-01 -0.25233626191E-02  0.10108632375E+00  0.51100000000E-03 0. -1.
         11    1    4    4    0    0  0.29886961810E-01  0.20317302885E-01  0.10224543369E-01  0.37560959664E-01  0.51100000000E-03 0.  1.
</event>
<event>
 8    1  0.2077555E+004  0.1043930E+01  0.7957747E-01            NaN
         13   -1    0    0    0    0  0.00000000000E+00  0.00000000000E+00  0.74505805969E-08  0.10566000000E+00  0.10566000000E+00 0.  1.
     999900   -1    0    0    0    0 -0.00000000000E+00 -0.00000000000E+00 -0.74505805969E-08  0.93827000000E+00  0.93827000000E+00 0. -1.
     999902    2    1    2    0    0 -0.77971198944E-02  0.20375068794E-02 -0.11222400386E-01  0.10301137493E+01  0.10300210909E+01 0.  0.
     999903    2    3    3    0    0  0.74172869838E-01  0.10891055002E+00  0.12170895487E-01  0.13955876905E+00  0.44332795938E-01 0.  0.
         14    1    1    2    0    0  0.77971198944E-02 -0.20375068794E-02  0.11222400386E-01  0.13816250698E-01  0.00000000000E+00 0.  1.
     999901    1    3    3    0    0 -0.81969989732E-01 -0.10687304314E+00 -0.23393295873E-01  0.89055498026E+00  0.88000000000E+00 0.  1.
        -11    1    4    4    0    0  0.13584189588E-01  0.38571805827E-01  0.21587571476E-01  0.46244986482E-01  0.51100000000E-03 0.  1.
         11    1    4    4    0    0  0.60588680250E-01  0.70338744190E-01 -0.94166759889E-02  0.93313782564E-01  0.51100000000E-03 0. -1.
</event>
<event>
 8    1  0.2077555E+004  0.1043930E+01  0.7957747E-01            NaN
         13   -1    0    0    0    0  0.00000000000E+00  0.00000000000E+00  0.74505805969E-08  0.10566000000E+00  0.10566000000E+00 0.  1.
     999900   -1    0    0    0    0 -0.00000000000E+00 -0.00000000000E+00 -0.74505805969E-08  0.93827000000E+00  0.93827000000E+00 0.  1.
     999902    2    1    2    0    0  0.54599829368E-02  0.97685043092E-02 -0.91107616093E-02  0.10294994398E+01  0.10293982978E+01 0.  0.
     999903    2    3    3    0    0 -0.35821346345E-01  0.11076462138E+00  0.63103113061E-01  0.13982578757E+00  0.44914115691E-01 0.  0.
         14    1    1    2    0    0 -0.54599829368E-02 -0.97685043092E-02  0.91107616093E-02  0.14430560184E-01  0.00000000000E+00 0.  1.
     999901    1    3    3    0    0  0.41281329282E-01 -0.10099611707E+00 -0.72213874671E-01  0.88967365225E+00  0.88000000000E+00 0.  1.
        -11    1    4    4    0    0  0.39553482115E-02  0.50500045328E-01  0.14183596699E-01  0.52605464488E-01  0.51100000000E-03 0. -1.
         11    1    4    4    0    0 -0.39776694557E-01  0.60264576048E-01  0.48919516362E-01  0.87220323081E-01  0.51100000000E-03 0.  1.
</event>
<event>
 8    1  0.2077555E+004  0.1043930E+01  0.7957747E-01            NaN
         13   -1    0    0    0    0  0.00000000000E+00  0.00000000000E+00  0.74505805969E-08  0.10566000000E+00  0.10566000000E+00 0. -1.
     999900   -1    0    0    0    0 -0.00000000000E+00 -0.00000000000E+00 -0.74505805969E-08  0.93827000000E+00  0.93827000000E+00 0.  1.
     999902    2    1    2    0    0  0.18367203476E-02 -0.37737159393E-02  0.13267645173E-01  0.10300143656E+01  0.10299203602E+01 0.  0.
     999903    2    3    3    0    0 -0.32688677811E-01  0.61700461224E-01 -0.11063729183E+00  0.13825694091E+00  0.44708777579E-01 0.  0.
         14    1    1    2    0    0 -0.18367203476E-02  0.37737159393E-02 -0.13267645173E-01  0.13915634447E-01  0.00000000000E+00 0.  1.
     999901    1    3    3    0    0  0.34525398158E-01 -0.65474177164E-01  0.12390493701E+00  0.89175742464E+00  0.88000000000E+00 0. -1.
        -11    1    4    4    0    0  0.25013295409E-02  0.35223963181E-01 -0.69660005361E-01  0.78100971181E-01  0.51100000000E-03 0. -1.
         11    1    4    4    0    0 -0.35190007352E-01  0.26476498043E-01 -0.40977286474E-01  0.60155969727E-01  0.51100000000E-03 0.  1.
</event>
<event>
 8    1  0.2077555E+004  0.1043930E+01  0.7957747E-01            NaN
         13   -1    0    0    0    0  0.00000000000E+00  0.00000000000E+00  0.74505805969E-08  0.10566000000E+00  0.10566000000E+00 0.  1.
     999900   -1    0    0    0    0 -0.00000000000E+00 -0.00000000000E+00 -0.74505805969E-08  0.93827000000E+00  0.93827000000E+00 0.  1.
     999902    2    1    2    0    0  0.15128399679E-02 -0.74483586980E-02  0.11276783190E-01  0.10303310085E+01  0.10302412603E+01 0.  0.
     999903    2    3    3    0    0  0.99392630318E-02  0.63694895541E-01 -0.11427084736E+00  0.13853810942E+00  0.44487667245E-01 0.  0.
         14    1    1    2    0    0 -0.15128399679E-02  0.74483586980E-02 -0.11276783190E-01  0.13598991550E-01  0.00000000000E+00 0. -1.
     999901    1    3    3    0    0 -0.84264230639E-02 -0.71143254239E-01  0.12554763055E+00  0.89179289903E+00  0.88000000000E+00 0. -1.
        -11    1    4    4    0    0  0.16756089073E-01  0.21269205323E-01 -0.16429197385E-01  0.31675310004E-01  0.51100000000E-03 0. -1.
         11    1    4    4    0    0 -0.68168260414E-02  0.42425690218E-01 -0.97841649974E-01  0.10686279941E+00  0.51100000000E-03 0.  1.
</event>
<event>
 8    1  0.2077555E+004  0.1043930E+01  0.7957747E-01            NaN
         13   -1    0    0    0    0  0.00000000000E+00  0.00000000000E+00  0.74505805969E-08  0.10566000000E+00  0.10566000000E+00 0. -1.
     999900   -1    0    0    0    0 -0.00000000000E+00 -0.00000000000E+00 -0.74505805969E-08  0.93827000000E+00  0.93827000000E+00 0.  1.
     999902    2    1    2    0    0  0.77344246624E-02  0.19852900007E-02 -0.11357511349E-01  0.10300463490E+01  0.10299527782E+01 0.  0.
     999903    2    3    3    0    0 -0.99683896488E-02  0.30901986209E-01 -0.13006085409E+00  0.14142941885E+00  0.45079410004E-01 0.  0.
         14    1    1    2    0    0 -0.77344246624E-02 -0.19852900007E-02  0.11357511349E-01  0.13883651007E-01  0.00000000000E+00 0. -1.
     999901    1    3    3    0    0  0.17702814311E-01 -0.28916696209E-01  0.11870334274E+00  0.88861693014E+00  0.88000000000E+00 0. -1.
        -11    1    4    4    0    0 -0.17978618907E-01  0.39343828911E-01 -0.11045259743E+00  0.11862211013E+00  0.51100000000E-03 0. -1.
         11    1    4    4    0    0  0.80102292579E-02 -0.84418427022E-02 -0.19608256657E-01  0.22807308721E-01  0.51100000000E-03 0.  1.
</event>
<event>
 8    1  0.2077555E+004  0.1043930E+01  0.7957747E-01            NaN
         13   -1    0    0    0    0  0.00000000000E+00  0.00000000000E+00  0.74505805969E-08  0.10566000000E+00  0.10566000000E+00 0. -1.
     999900   -1    0    0    0    0 -0.00000000000E+00 -0.00000000000E+00 -0.74505805969E-08  0.93827000000E+00  0.93827000000E+00 0.  1.
     999902    2    1    2    0    0 -0.11578628457E-01  0.66189570374E-02 -0.59886530679E-02  0.10293101780E+01  0.10292063464E+01 0.  0.
     999903    2    3    3    0    0  0.77436292531E-01 -0.50684947727E-01  0.90951317490E-01  0.13767978848E+00  0.46024326993E-01 0.  0.
         14    1    1    2    0    0  0.11578628457E-01 -0.66189570374E-02  0.59886530679E-02  0.14619821982E-01  0.00000000000E+00 0.  1.
     999901    1    3    3    0    0 -0.89014920988E-01  0.57303904764E-01 -0.96939970558E-01  0.89163038954E+00  0.88000000000E+00 0.  1.
        -11    1    4    4    0    0  0.41165835967E-01 -0.35773959012E-01  0.22935418312E-01  0.59166685968E-01  0.51100000000E-03 0.  1.
         11    1    4    4    0    0  0.36270456564E-01 -0.14910988715E-01  0.68015899178E-01  0.78513102510E-01  0.51100000000E-03 0. -1.
</event>
<event>
 8    1  0.2077555E+004  0.1043930E+01  0.7957747E-01            NaN
         13   -1    0    0    0    0  0.00000000000E+00  0.00000000000E+00  0.74505805969E-08  0.10566000000E+00  0.10566000000E+00 0. -1.
     999900   -1    0    0    0    0 -0.00000000000E+00 -0.00000000000E+00 -0.74505805969E-08  0.93827000000E+00  0.93827000000E+00 0.  1.
     999902    2    1    2    0    0 -0.76049210000E-02  0.71796765520E-02  0.10825437386E-03  0.10334708271E+01  0.10334179001E+01 0.  0.
     999903    2    3    3    0    0 -0.13400689773E+00 -0.17869973451E-01 -0.21168945457E-01  0.14383176325E+00  0.44297486141E-01 0.  0.
         14    1    1    2    0    0  0.76049210000E-02 -0.71796765520E-02 -0.10825437386E-03  0.10459172903E-01  0.00000000000E+00 0. -1.
     999901    1    3    3    0    0  0.12640197673E+00  0.25049650003E-01  0.21277199831E-01  0.88963906384E+00  0.88000000000E+00 0. -1.
        -11    1    4    4    0    0 -0.39703402974E-01 -0.24694663017E-01  0.78053140018E-03  0.46765980579E-01  0.51100000000E-03 0.  1.
         11    1    4    4    0    0 -0.94303494755E-01  0.68246895663E-02 -0.21949476857E-01  0.97065782673E-01  0.51100000000E-03 0. -1.
</event>
<event>
 8    1  0.2077555E+004  0.1043930E+01  0.7957747E-01            NaN
         13   -1    0    0    0    0  0.00000000000E+00  0.00000000000E+00  0.74505805969E-08  0.10566000000E+00  0.10566000000E+00 0. -1.
     999900   -1    0    0    0    0 -0.00000000000E+00 -0.00000000000E+00 -0.74505805969E-08  0.93827000000E+00  0.93827000000E+00 0.  1.
     999902    2    1    2    0    0 -0.88846289437E-02  0.12260868895E-01 -0.17469590572E-02  0.10286880381E+01  0.10285751126E+01 0.  0.
     999903    2    3    3    0    0  0.12049036939E+00  0.33288926795E-01 -0.38484226167E-01  0.13822203860E+00  0.44701392905E-01 0.  0.
         14    1    1    2    0    0  0.88846289437E-02 -0.12260868895E-01  0.17469590572E-02  0.15241961930E-01  0.00000000000E+00 0.  1.
     999901    1    3    3    0    0 -0.12937499834E+00 -0.21028057900E-01  0.36737267110E-01  0.89046599947E+00  0.88000000000E+00 0. -1.
        -11    1    4    4    0    0  0.38269538299E-01 -0.79711130758E-02 -0.16538285639E-02  0.39129176776E-01  0.51100000000E-03 0. -1.
         11    1    4    4    0    0  0.82220831096E-01  0.41260039871E-01 -0.36830397603E-01  0.99092861826E-01  0.51100000000E-03 0.  1.
</event>
<event>
 8    1  0.2077555E+004  0.1043930E+01  0.7957747E-01            NaN
         13   -1    0    0    0    0  0.00000000000E+00  0.00000000000E+00  0.74505805969E-08  0.10566000000E+00  0.10566000000E+00 0. -1.
     999900   -1    0    0    0    0 -0.00000000000E+00 -0.00000000000E+00 -0.74505805969E-08  0.93827000000E+00  0.93827000000E+00 0.  1.
     999902    2    1    2    0    0 -0.17315488647E-02  0.75086562300E-02 -0.12065368241E-01  0.10296138800E+01  0.10295143470E+01 0.  0.
     999903    2    3    3    0    0  0.12958853864E+00 -0.10517323459E-01  0.20070973729E-01  0.13910692005E+00  0.45211589002E-01 0.  0.
         14    1    1    2    0    0  0.17315488647E-02 -0.75086562300E-02  0.12065368241E-01  0.14316119957E-01  0.00000000000E+00 0. -1.
     999901    1    3    3    0    0 -0.13132008750E+00  0.18025979689E-01 -0.32136341969E-01  0.89050696000E+00  0.88000000000E+00 0.  1.
        -11    1    4    4    0    0  0.58074114824E-01  0.11272483128E-01  0.24904988407E-01  0.64188715963E-01  0.51100000000E-03 0.  1.
         11    1    4    4    0    0  0.71514423812E-01 -0.21789806587E-01 -0.48340146784E-02  0.74918204084E-01  0.51100000000E-03 0. -1.
</event>
<event>
 8    1  0.2077555E+004  0.1043930E+01  0.7957747E-01            NaN
         13   -1    0    0    0    0  0.00000000000E+00  0.00000000000E+00  0.74505805969E-08  0.10566000000E+00  0.10566000000E+00 0.  1.
     999900   -1    0    0    0    0 -0.00000000000E+00 -0.00000000000E+00 -0.74505805969E-08  0.93827000000E+00  0.93827000000E+00 0. -1.
     999902    2    1    2    0    0  0.21578080254E-02  0.10981858508E-01 -0.54506702706E-02  0.10314814194E+01  0.10314062980E+01 0.  0.
     999903    2    3    3    0    0  0.37247589718E-01 -0.56456318882E-03 -0.12935044322E+00  0.14203453155E+00  0.45327357291E-01 0.  0.
         14    1    1    2    0    0 -0.21578080254E-02 -0.10981858508E-01  0.54506702706E-02  0.12448580568E-01  0.00000000000E+00 0.  1.
     999901    1    3    3    0    0 -0.35089781692E-01  0.11546421697E-01  0.12389977295E+00  0.88944688789E+00  0.88000000000E+00 0.  1.
        -11    1    4    4    0    0  0.17314466638E-01 -0.39994849828E-02 -0.88714140034E-02  0.19868310006E-01  0.51100000000E-03 0. -1.
         11    1    4    4    0    0  0.19933123080E-01  0.34349217940E-02 -0.12047902922E+00  0.12216622154E+00  0.51100000000E-03 0.  1.
</event>
<event>
 8    1  0.2077555E+004  0.1043930E+01  0.7957747E-01            NaN
         13   -1    0    0    0    0  0.00000000000E+00  0.00000000000E+00  0.74505805969E-08  0.10566000000E+00  0.10566000000E+00 0.  1.
     999900   -1    0    0    0    0 -0.00000000000E+00 -0.00000000000E+00 -0.74505805969E-08  0.93827000000E+00  0.93827000000E+00 0. -1.
     999902    2    1    2    0    0 -0.87373509883E-02 -0.46143108533E-02 -0.13883021655E-01  0.10268897108E+01  0.10267483171E+01 0.  0.
     999903    2    3    3    0    0  0.11634076548E+00  0.49804932408E-01 -0.23648080698E-01  0.13632733472E+00  0.44835314944E-01 0.  0.
         14    1    1    2    0    0  0.87373509883E-02  0.46143108533E-02  0.13883021655E-01  0.17040289235E-01  0.00000000000E+00 0.  1.
     999901    1    3    3    0    0 -0.12507811646E+00 -0.54419243262E-01  0.97650590426E-02  0.89056237605E+00  0.88000000000E+00 0.  1.
        -11    1    4    4    0    0  0.72426699219E-01  0.68259620856E-02 -0.10741232879E-01  0.73538124282E-01  0.51100000000E-03 0.  1.
         11    1    4    4    0    0  0.43914066258E-01  0.42978970323E-01 -0.12906847819E-01  0.62789210434E-01  0.51100000000E-03 0. -1.
</event>
<event>
 8    1  0.2077555E+004  0.1043930E+01  0.7957747E-01            NaN
         13   -1    0    0    0    0  0.00000000000E+00  0.00000000000E+00  0.74505805969E-08  0.10566000000E+00  0.10566000000E+00 0.  1.
     999900   -1    0    0    0    0 -0.00000000000E+00 -0.00000000000E+00 -0.74505805969E-08  0.93827000000E+00  0.93827000000E+00 0. -1.
     999902    2    1    2    0    0  0.97084655555E-02  0.29959299373E-02 -0.11422843975E-01  0.10286423820E+01  0.10285287739E+01 0.  0.
     999903    2    3    3    0    0  0.12022508621E+00 -0.54108383602E-01 -0.28391409457E-02  0.13985190837E+00  0.46569378599E-01 0.  0.
         14    1    1    2    0    0 -0.97084655555E-02 -0.29959299373E-02  0.11422843975E-01  0.15287618000E-01  0.00000000000E+00 0.  1.
     999901    1    3    3    0    0 -0.11051662065E+00  0.57104313539E-01 -0.85837030297E-02  0.88879047363E+00  0.88000000000E+00 0. -1.
        -11    1    4    4    0    0  0.73365007452E-01 -0.37074180590E-01 -0.24075639207E-01  0.85655219976E-01  0.51100000000E-03 0. -1.
         11    1    4    4    0    0  0.46860078754E-01 -0.17034203012E-01  0.21236498262E-01  0.54196688390E-01  0.51100000000E-03 0.  1.
</event>
<event>
 8    1  0.2077555E+004  0.1043930E+01  0.7957747E-01            NaN
         13   -1    0    0    0    0  0.00000000000E+00  0.00000000000E+00  0.74505805969E-08  0.10566000000E+00  0.10566000000E+00 0. -1.
     999900   -1    0    0    0    0 -0.00000000000E+00 -0.00000000000E+00 -0.74505805969E-08  0.93827000000E+00  0.93827000000E+00 0. -1.
     999902    2    1    2    0    0 -0.39166182170E-02 -0.36425765032E-03  0.13199968677E-01  0.10301564110E+01  0.10300643277E+01 0.  0.
     999903    2    3    3    0    0 -0.10901931761E+00 -0.71482653909E-01  0.30782857753E-01  0.14087942279E+00  0.43639958889E-01 0.  0.
         14    1    1    2    0    0  0.39166182170E-02  0.36425765032E-03 -0.13199968677E-01  0.13773589038E-01  0.00000000000E+00 0.  1.
     999901    1    3    3    0    0  0.10510269939E+00  0.71118396258E-01 -0.17582889076E-01  0.88927698817E+00  0.88000000000E+00 0. -1.
        -11    1    4    4    0    0 -0.68118293593E-01 -0.54199932602E-01  0.39553128905E-01  0.95616137462E-01  0.51100000000E-03 0. -1.
         11    1    4    4    0    0 -0.40901024018E-01 -0.17282721307E-01 -0.87702711520E-02  0.45263285327E-01  0.51100000000E-03 0.  1.
</event>
<event>
 8    1  0.2077555E+004  0.1043930E+01  0.7957747E-01            NaN
         13   -1    0    0    0    0  0.00000000000E+00  0.00000000000E+00  0.74505805969E-08  0.10566000000E+00  0.10566000000E+00 0.  1.
     999900   -1    0    0    0    0 -0.00000000000E+00 -0.00000000000E+00 -0.74505805969E-08  0.93827000000E+00  0.93827000000E+00 0.  1.
     999902    2    1    2    0    0  0.12197034164E-01  0.70738768282E-02 -0.50440353454E-03  0.10298210738E+01  0.10297244205E+01 0.  0.
     999903    2    3    3    0    0  0.10087761525E+00  0.49224618330E-01  0.74941688290E-01  0.14115181966E+00  0.41330657401E-01 0.  0.
         14    1    1    2    0    0 -0.12197034164E-01 -0.70738768282E-02  0.50440353454E-03  0.14108926207E-01  0.00000000000E+00 0. -1.
     999901    1    3    3    0    0 -0.88680581085E-01 -0.42150741502E-01 -0.75446091825E-01  0.88866925413E+00  0.88000000000E+00 0.  1.
        -11    1    4    4    0    0  0.53522309304E-01  0.16020064490E-01  0.58782231802E-01  0.81098039163E-01  0.51100000000E-03 0. -1.
         11    1    4    4    0    0  0.47355305946E-01  0.33204553839E-01  0.16159456488E-01  0.60053780496E-01  0.51100000000E-03 0.  1.
</event>
<event>
 8    1  0.2077555E+004  0.1043930E+01  0.7957747E-01            NaN
         13   -1    0    0    0    0  0.00000000000E+00  0.00000000000E+00  0.74505805969E-08  0.10566000000E+00  0.10566000000E+00 0.  1.
     999900   -1    0    0    0    0 -0.00000000000E+00 -0.00000000000E+00 -0.74505805969E-08  0.93827000000E+00  0.93827000000E+00 0.  1.
     999902    2    1    2    0    0 -0.24607444115E-02  0.12607807206E-01 -0.42717215458E-02  0.10303926564E+01  0.10303037255E+01 0.  0.
     999903    2    3    3    0    0 -0.99133677469E-01 -0.11471805748E-01 -0.87882975176E-01  0.14083303198E+00  0.46383587989E-01 0.  0.
         14    1    1    2    0    0  0.24607444115E-02 -0.12607807206E-01  0.42717215458E-02  0.13537343556E-01  0.00000000000E+00 0.  1.
     999901    1    3    3    0    0  0.96672933057E-01  0.24079612954E-01  0.83611253630E-01  0.88955962447E+00  0.88000000000E+00 0. -1.
        -11    1    4    4    0    0 -0.89601240285E-01 -0.84170483286E-02 -0.93138704693E-01  0.12951566854E+00  0.51100000000E-03 0.  1.
         11    1    4    4    0    0 -0.95324371833E-02 -0.30547574191E-02  0.52557295169E-02  0.11317363443E-01  0.51100000000E-03 0. -1.
</event>
<event>
 7    1  0.2077555E+004  0.1043930E+01  0.7957747E-01            NaN
         13   -1    0    0    0    0  0.00000000000E+00  0.00000000000E+00  0.74505805969E-08  0.10566000000E+00  0.10566000000E+00 0.  1.
     999900   -1    0    0    0    0 -0.00000000000E+00 -0.00000000000E+00 -0.74505805969E-08  0.93827000000E+00  0.93827000000E+00 0.  1.
     999902    2    1    2    0    0 -0.12186675726E-01  0.63984819725E-02 -0.47976845801E-02  0.10293535322E+01  0.10292503198E+01 0.  0.
         14    1    1    2    0    0  0.12186675726E-01 -0.63984819725E-02  0.47976845801E-02  0.14576467821E-01  0.00000000000E+00 0. -1.
     999901    1    3    3    0    0  0.14113089521E-02  0.12305377962E+00  0.38441910023E-01  0.88939417859E+00  0.88000000000E+00 0.  1.
        -11    1    3    3    0    0  0.13335863096E-01 -0.79983348370E-01 -0.47962805891E-01  0.94211852390E-01  0.51100000000E-03 0. -1.
         11    1    3    3    0    0 -0.26933847774E-01 -0.36671949277E-01  0.47232112876E-02  0.45747501195E-01  0.51100000000E-03 0.  1.
</event>
<event>
 8    1  0.2077555E+004  0.1043930E+01  0.7957747E-01            NaN
         13   -1    0    0    0    0  0.00000000000E+00  0.00000000000E+00  0.74505805969E-08  0.10566000000E+00  0.10566000000E+00 0.  1.
     999900   -1    0    0    0    0 -0.00000000000E+00 -0.00000000000E+00 -0.74505805969E-08  0.93827000000E+00  0.93827000000E+00 0.  1.
     999902    2    1    2    0    0  0.33441542898E-02 -0.22870775213E-02  0.12618229751E-01  0.10306773092E+01  0.10305921026E+01 0.  0.
     999903    2    3    3    0    0  0.64061433209E-01 -0.11370165181E+00 -0.26341927721E-01  0.14072355242E+00  0.45577277248E-01 0.  0.
         14    1    1    2    0    0 -0.33441542898E-02  0.22870775213E-02 -0.12618229751E-01  0.13252690804E-01  0.00000000000E+00 0. -1.
     999901    1    3    3    0    0 -0.60717278919E-01  0.11141457429E+00  0.38960157472E-01  0.88995375677E+00  0.88000000000E+00 0. -1.
        -11    1    4    4    0    0  0.29993007087E-01 -0.14864700674E-01 -0.30634480640E-02  0.33618233673E-01  0.51100000000E-03 0. -1.
         11    1    4    4    0    0  0.34068426122E-01 -0.98836951137E-01 -0.23278479656E-01  0.10710531875E+00  0.51100000000E-03 0.  1.
</event>
<event>
 8    1  0.2077555E+004  0.1043930E+01  0.7957747E-01            NaN
         13   -1    0    0    0    0  0.00000000000E+00  0.00000000000E+00  0.74505805969E-08  0.10566000000E+00  0.10566000000E+00 0.  1.
     999900   -1    0    0    0    0 -0.00000000000E+00 -0.00000000000E+00 -0.74505805969E-08  0.93827000000E+00  0.93827000000E+00 0. -1.
     999902    2    1    2    0    0 -0.22870141586E-02 -0.10635059592E-01 -0.78683333021E-02  0.10305044425E+01  0.10304169837E+01 0.  0.
     999903    2    3    3    0    0  0.10160237250E+00 -0.85349810479E-01  0.16756130338E-01  0.14090809418E+00  0.44347388382E-01 0.  0.
         14    1    1    2    0    0  0.22870141586E-02  0.10635059592E-01  0.78683333021E-02  0.13425557539E-01  0.00000000000E+00 0.  1.
     999901    1    3    3    0    0 -0.10388938666E+00  0.74714750887E-01 -0.24624463640E-01  0.88959634828E+00  0.88000000000E+00 0.  1.
        -11    1    4    4    0    0  0.78516642221E-01 -0.52162881998E-01 -0.61026895065E-02  0.94463396637E-01  0.51100000000E-03 0.  1.
         11    1    4    4    0    0  0.23085730277E-01 -0.33186928481E-01  0.22858819844E-01  0.46444697546E-01  0.51100000000E-03 0. -1.
</event>
<event>
 8    1  0.2077555E+004  0.1043930E+01  0.7957747E-01            NaN
         13   -1    0    0    0    0  0.00000000000E+00  0.00000000000E+00  0.74505805969E-08  0.10566000000E+00  0.10566000000E+00 0. -1.
     999900   -1    0    0    0    0 -0.00000000000E+00 -0.00000000000E+00 -0.74505805969E-08  0.93827000000E+00  0.93827000000E+00 0. -1.
     999902    2    1    2    0    0  0.22891224199E-02 -0.33952235899E-03  0.12738407834E-01  0.10309830934E+01  0.10309017977E+01 0.  0.
     999903    2    3    3    0    0 -0.90627531801E-01 -0.89041884228E-01 -0.40969181520E-01  0.14003633920E+00  0.42307160084E-01 0.  0.
         14    1    1    2    0    0 -0.22891224199E-02  0.33952235899E-03 -0.12738407834E-01  0.12946906620E-01  0.00000000000E+00 0.  1.
     999901    1    3    3    0    0  0.92916654220E-01  0.88702361869E-01  0.53707589354E-01  0.89094675418E+00  0.88000000000E+00 0.  1.
        -11    1    4    4    0    0 -0.62220281753E-01 -0.78585403959E-01 -0.44279729777E-01  0.10958095075E+00  0.51100000000E-03 0.  1.
         11    1    4    4    0    0 -0.28407250047E-01 -0.10456480270E-01  0.33105482563E-02  0.30455388450E-01  0.51100000000E-03 0. -1.
</event>
<event>
 8    1  0.2077555E+004  0.1043930E+01  0.7957747E-01            NaN
         13   -1    0    0    0    0  0.00000000000E+00  0.00000000000E+00  0.74505805969E-08  0.10566000000E+00  0.10566000000E+00 0.  1.
     999900   -1    0    0    0    0 -0.00000000000E+00 -0.00000000000E+00 -0.74505805969E-08  0.93827000000E+00  0.93827000000E+00 0. -1.
     999902    2    1    2    0    0 -0.87877961803E-02  0.10616550425E-01  0.35486681851E-02  0.10296987123E+01  0.10296003635E+01 0.  0.
     999903    2    3    3    0    0  0.49199801892E-01  0.74635395030E-01  0.98544640352E-01  0.14038144114E+00  0.44775441678E-01 0.  0.
         14    1    1    2    0    0  0.87877961803E-02 -0.10616550425E-01 -0.35486681851E-02  0.14231287732E-01  0.00000000000E+00 0. -1.
     999901    1    3    3    0    0 -0.57987598072E-01 -0.64018844606E-01 -0.94995972167E-01  0.88931727113E+00  0.88000000000E+00 0. -1.
        -11    1    4    4    0    0  0.16483131551E-01  0.41832388370E-01  0.77263552325E-01  0.89395525511E-01  0.51100000000E-03 0. -1.
         11    1    4    4    0    0  0.32716670341E-01  0.32803006660E-01  0.21281088027E-01  0.50985915631E-01  0.51100000000E-03 0.  1.
</event>
<event>
 8    1  0.2077555E+004  0.1043930E+01  0.7957747E-01            NaN
         13   -1    0    0    0    0  0.00000000000E+00  0.00000000000E+00  0.74505805969E-08  0.10566000000E+00  0.10566000000E+00 0.  1.
     999900   -1    0    0    0    0 -0.00000000000E+00 -0.00000000000E+00 -0.74505805969E-08  0.93827000000E+00  0.93827000000E+00 0. -1.
     999902    2    1    2    0    0  0.10160542662E-01 -0.69145403807E-02 -0.38055193383E-02  0.10310641742E+01  0.10309838999E+01 0.  0.
     999903    2    3    3    0    0  0.84919945425E-01 -0.10036304791E+00 -0.31443875201E-01  0.14253422504E+00  0.45201211282E-01 0.  0.
         14    1    1    2    0    0 -0.10160542662E-01  0.69145403807E-02  0.38055193383E-02  0.12865825792E-01  0.00000000000E+00 0. -1.
     999901    1    3    3    0    0 -0.74759402762E-01  0.93448507533E-01  0.27638355863E-01  0.88852994917E+00  0.88000000000E+00 0.  1.
        -11    1    4    4    0    0  0.63267600623E-01 -0.48061585898E-01 -0.32679329513E-01  0.85912193698E-01  0.51100000000E-03 0. -1.
         11    1    4    4    0    0  0.21652344802E-01 -0.52301462016E-01  0.12354543117E-02  0.56622031337E-01  0.51100000000E-03 0.  1.
</event>
<event>
 8    1  0.2077555E+004  0.1043930E+01  0.7957747E-01            NaN
         13   -1    0    0    0    0  0.00000000000E+00  0.00000000000E+00  0.74505805969E-08  0.10566000000E+00  0.10566000000E+00 0. -1.
     999900   -1    0    0    0    0 -0.00000000000E+00 -0.00000000000E+00 -0.74505805969E-08  0.93827000000E+00  0.93827000000E+00 0.  1.
     999902    2    1    2    0    0 -0.12442661610E-02  0.86752751869E-03 -0.15226155392E-01  0.10286284769E+01  0.10285146605E+01 0.  0.
     999903    2    3    3    0    0 -0.26172227001E-01 -0.12621998624E+00 -0.26358120947E-01  0.13907996214E+00  0.45077876346E-01 0.  0.
         14    1    1    2    0    0  0.12442661610E-02 -0.86752751869E-03  0.15226155392E-01  0.15301523137E-01  0.00000000000E+00 0. -1.
     999901    1    3    3    0    0  0.24927960840E-01  0.12708751376E+00  0.11131965555E-01  0.88954851472E+00  0.88000000000E+00 0. -1.
        -11    1    4    4    0    0 -0.24971573921E-01 -0.25147073863E-01 -0.54658326018E-02  0.35862114759E-01  0.51100000000E-03 0.  1.
         11    1    4    4    0    0 -0.12006530803E-02 -0.10107291238E+00 -0.20892288346E-01  0.10321784738E+00  0.51100000000E-03 0. -1.
</event>
<event>
 8    1  0.2077555E+004  0.1043930E+01  0.7957747E-01            NaN
         13   -1    0    0    0    0  0.00000000000E+00  0.00000000000E+00  0.74505805969E-08  0.10566000000E+00  0.10566000000E+00 0.  1.
     999900   -1    0    0    0    0 -0.00000000000E+00 -0.00000000000E+00 -0.74505805969E-08  0.93827000000E+00  0.93827000000E+00 0. -1.
     999902    2    1    2    0    0  0.11209258616E-01 -0.98806247714E-02 -0.23810557351E-02  0.10287991160E+01  0.10286878425E+01 0.  0.
     999903    2    3    3    0    0 -0.81107028767E-01  0.86496596377E-01 -0.52631384774E-01  0.13731946886E+00  0.45017358482E-01 0.  0.
         14    1    1    2    0    0 -0.11209258616E-01  0.98806247714E-02  0.23810557351E-02  0.15130884013E-01  0.00000000000E+00 0.  1.
     999901    1    3    3    0    0  0.92316287383E-01 -0.96377221148E-01  0.50250329039E-01  0.89147964713E+00  0.88000000000E+00 0.  1.
        -11    1    4    4    0    0 -0.56449100082E-02  0.26577081817E-01  0.70440220387E-03  0.27183884755E-01  0.51100000000E-03 0. -1.
         11    1    4    4    0    0 -0.75462118759E-01  0.59919514560E-01 -0.53335786978E-01  0.11013558411E+00  0.51100000000E-03 0.  1.
</event>
<event>
 8    1  0.2077555E+004  0.1043930E+01  0.7957747E-01            NaN
         13   -1    0    0    0    0  0.00000000000E+00  0.00000000000E+00  0.74505805969E-08  0.10566000000E+00  0.10566000000E+00 0.  1.
     999900   -1    0    0    0    0 -0.00000000000E+00 -0.00000000000E+00 -0.74505805969E-08  0.93827000000E+00  0.93827000000E+00 0. -1.
     999902    2    1    2    0    0 -0.95888517623E-02 -0.44970382538E-02 -0.71291303750E-02  0.10311630923E+01  0.10310840553E+01 0.  0.
     999903    2    3    3    0    0 -0.26996945475E-01  0.12370530840E+00  0.40983956360E-01  0.14040288189E+00  0.44737525320E-01 0.  0.
         14    1    1    2    0    0  0.95888517623E-02  0.44970382538E-02  0.71291303750E-02  0.12766907655E-01  0.00000000000E+00 0.  1.
     999901    1    3    3    0    0  0.17408093713E-01 -0.12820234666E+00 -0.48113086735E-01  0.89076021046E+00  0.88000000000E+00 0.  1.
        -11    1    4    4    0    0  0.31282160720E-02  0.18127781172E-01  0.22496556669E-01  0.29064727231E-01  0.51100000000E-03 0. -1.
         11    1    4    4    0    0 -0.30125161547E-01  0.10557752723E+00  0.18487399691E-01  0.11133815466E+00  0.51100000000E-03 0.  1.
</event>
<event>
 8    1  0.2077555E+004  0.1043930E+01  0.7957747E-01            NaN
         13   -1    0    0    0    0  0.00000000000E+00  0.00000000000E+00  0.74505805969E-08  0.10566000000E+00  0.10566000000E+00 0. -1.
     999900   -1    0    0    0    0 -0.00000000000E+00 -0.00000000000E+00 -0.74505805969E-08  0.93827000000E+00  0.93827000000E+00 0.  1.
     999902    2    1    2    0    0 -0.49031517691E-04 -0.13501833443E-01 -0.51936699221E-04  0.10304279776E+01  0.10303395132E+01 0.  0.
     999903    2    3    3    0    0  0.11551996440E+00 -0.30187831031E-01  0.58964830157E-01  0.14075523213E+00  0.45596237334E-01 0.  0.
         14    1    1    2    0    0  0.49031517691E-04  0.13501833443E-01  0.51936699221E-04  0.13502022361E-01  0.00000000000E+00 0. -1.
     999901    1    3    3    0    0 -0.11556899592E+00  0.16685997588E-01 -0.59016766857E-01  0.88967274551E+00  0.88000000000E+00 0.  1.
        -11    1    4    4    0    0  0.51176171636E-01  0.97100378741E-02  0.23363914468E-01  0.57091321574E-01  0.51100000000E-03 0.  1.
         11    1    4    4    0    0  0.64343792764E-01 -0.39897868906E-01  0.35600915690E-01  0.83663910555E-01  0.51100000000E-03 0. -1.
</event>
<event>
 8    1  0.2077555E+004  0.1043930E+01  0.7957747E-01            NaN
         13   -1    0    0    0    0  0.00000000000E+00  0.00000000000E+00  0.74505805969E-08  0.10566000000E+00  0.10566000000E+00 0.  1.
     999900   -1    0    0    0    0 -0.00000000000E+00 -0.00000000000E+00 -0.74505805969E-08  0.93827000000E+00  0.93827000000E+00 0. -1.
     999902    2    1    2    0    0 -0.55586368378E-02  0.82659442154E-02  0.87106663285E-02  0.10306974649E+01  0.10306125189E+01 0.  0.
     999903    2    3    3    0    0  0.87327783093E-02  0.12036870936E+00  0.59908211639E-01  0.14199477944E+00  0.44817808476E-01 0.  0.
         14    1    1    2    0    0  0.55586368378E-02 -0.82659442154E-02 -0.87106663285E-02  0.13232535099E-01  0.00000000000E+00 0. -1.
     999901    1    3    3    0    0 -0.14291415147E-01 -0.11210276514E+00 -0.51197545311E-01  0.88870268546E+00  0.88000000000E+00 0. -1.
        -11    1    4    4    0    0  0.21925198622E-01  0.10402050411E+00  0.41711597034E-01  0.11419762720E+00  0.51100000000E-03 0. -1.
         11    1    4    4    0    0 -0.13192420313E-01  0.16348205249E-01  0.18196614605E-01  0.27797152240E-01  0.51100000000E-03 0.  1.
</event>
<event>
 8    1  0.2077555E+004  0.1043930E+01  0.7957747E-01            NaN
         13   -1    0    0    0    0  0.00000000000E+00  0.00000000000E+00  0.74505805969E-08  0.10566000000E+00  0.10566000000E+00 0. -1.
     999900   -1    0    0    0    0 -0.00000000000E+00 -0.00000000000E+00 -0.74505805969E-08  0.93827000000E+00  0.93827000000E+00 0. -1.
     999902    2    1    2    0    0  0.22171055471E-02 -0.11296321475E-01 -0.95938289360E-02  0.10289445407E+01  0.10288354115E+01 0.  0.
     999903    2    3    3    0    0  0.44995174134E-01  0.64217853529E-01 -0.10633617198E+00  0.13939890687E+00  0.44454193949E-01 0.  0.
         14    1    1    2    0    0 -0.22171055471E-02  0.11296321475E-01  0.95938289360E-02  0.14985459270E-01  0.00000000000E+00 0. -1.
     999901    1    3    3    0    0 -0.42778068587E-01 -0.75514175004E-01  0.96742343039E-01  0.88954563386E+00  0.88000000000E+00 0.  1.
        -11    1    4    4    0    0  0.24140873030E-02  0.30969567569E-01 -0.62611394511E-01  0.69895563354E-01  0.51100000000E-03 0.  1.
         11    1    4    4    0    0  0.42581086831E-01  0.33248285960E-01 -0.43724777464E-01  0.69503343518E-01  0.51100000000E-03 0. -1.
</event>
<event>
 8    1  0.2077555E+004  0.1043930E+01  0.7957747E-01            NaN
         13   -1    0    0    0    0  0.00000000000E+00  0.00000000000E+00  0.74505805969E-08  0.10566000000E+00  0.10566000000E+00 0.  1.
     999900   -1    0    0    0    0 -0.00000000000E+00 -0.00000000000E+00 -0.74505805969E-08  0.93827000000E+00  0.93827000000E+00 0. -1.
     999902    2    1    2    0    0 -0.12667882957E-01  0.11149714726E-01  0.22018553912E-02  0.10269111997E+01  0.10267701654E+01 0.  0.
     999903    2    3    3    0    0 -0.30689475782E-01  0.11568142086E-01  0.12689034320E+00  0.13793866249E+00  0.43014527519E-01 0.  0.
         14    1    1    2    0    0  0.12667882957E-01 -0.11149714726E-01 -0.22018553912E-02  0.17018800318E-01  0.00000000000E+00 0.  1.
     999901    1    3    3    0    0  0.18021592825E-01 -0.41842736027E-03 -0.12468848781E+00  0.88897253719E+00  0.88000000000E+00 0. -1.
        -11    1    4    4    0    0  0.76519045315E-02  0.24421632602E-02  0.58110860119E-01  0.58665569026E-01  0.51100000000E-03 0. -1.
         11    1    4    4    0    0 -0.38341380313E-01  0.91259788262E-02  0.68779483079E-01  0.79273093465E-01  0.51100000000E-03 0.  1.
</event>
<event>
 8    1  0.2077555E+004  0.1043930E+01  0.7957747E-01            NaN
         13   -1    0    0    0    0  0.00000000000E+00  0.00000000000E+00  0.74505805969E-08  0.10566000000E+00  0.10566000000E+00 0.  1.
     999900   -1    0    0    0    0 -0.00000000000E+00 -0.00000000000E+00 -0.74505805969E-08  0.93827000000E+00  0.93827000000E+00 0.  1.
     999902    2    1    2    0    0  0.57394511269E-02  0.12085887019E-01 -0.38772530187E-02  0.10300000662E+01  0.10299058663E+01 0.  0.
     999903    2    3    3    0    0 -0.41827960877E-01  0.55952208452E-01  0.11221769958E+00  0.14001975696E+00  0.46178916181E-01 0.  0.
         14    1    1    2    0    0 -0.57394511269E-02 -0.12085887019E-01  0.38772530187E-02  0.13929933785E-01  0.00000000000E+00 0.  1.
     999901    1    3    3    0    0  0.47567412004E-01 -0.43866321433E-01 -0.11609495259E+00  0.88998030925E+00  0.88000000000E+00 0.  1.
        -11    1    4    4    0    0 -0.51995358955E-02  0.44930112209E-01  0.55331543775E-01  0.71467412253E-01  0.51100000000E-03 0.  1.
         11    1    4    4    0    0 -0.36628424982E-01  0.11022096243E-01  0.56886155801E-01  0.68552344709E-01  0.51100000000E-03 0. -1.
</event>
<event>
 8    1  0.2077555E+004  0.1043930E+01  0.7957747E-01            NaN
         13   -1    0    0    0    0  0.00000000000E+00  0.00000000000E+00  0.74505805969E-08  0.10566000000E+00  0.10566000000E+00 0.  1.
     999900   -1    0    0    0    0 -0.00000000000E+00 -0.00000000000E+00 -0.74505805969E-08  0.93827000000E+00  0.93827000000E+00 0.  1.
     999902    2    1    2    0    0 -0.95434911902E-03 -0.18874813664E-02 -0.13288962465E-01  0.10304737787E+01  0.10303859174E+01 0.  0.
     999903    2    3    3    0    0 -0.93525357586E-01  0.84983488566E-01  0.39147490692E-01  0.13981922241E+00  0.45251553432E-01 0.  0.
         14    1    1    2    0    0  0.95434911902E-03  0.18874813664E-02  0.13288962465E-01  0.13456221295E-01  0.00000000000E+00 0.  1.
     999901    1    3    3    0    0  0.92571008467E-01 -0.86870969932E-01 -0.52436453157E-01  0.89065455629E+00  0.88000000000E+00 0.  1.
        -11    1    4    4    0    0 -0.63852573219E-01  0.29301063762E-01  0.28561300962E-01  0.75840045345E-01  0.51100000000E-03 0. -1.
         11    1    4    4    0    0 -0.29672784366E-01  0.55682424804E-01  0.10586189730E-01  0.63979177067E-01  0.51100000000E-03 0.  1.
</event>
<event>
 8    1  0.2077555E+004  0.1043930E+01  0.7957747E-01            NaN
         13   -1    0    0    0    0  0.00000000000E+00  0.00000000000E+00  0.74505805969E-08  0.10566000000E+00  0.10566000000E+00 0. -1.
     999900   -1    0    0    0    0 -0.00000000000E+00 -0.00000000000E+00 -0.74505805969E-08  0.93827000000E+00  0.93827000000E+00 0.  1.
     999902    2    1    2    0    0  0.23999875596E-02  0.11281354842E-01 -0.45498735278E-02  0.10315311994E+01  0.10314566811E+01 0.  0.
     999903    2    3    3    0    0 -0.11721635290E+00  0.25690619603E-01 -0.60683603101E-01  0.14154991228E+00  0.44206296592E-01 0.  0.
         14    1    1    2    0    0 -0.23999875596E-02 -0.11281354842E-01  0.45498735278E-02  0.12398800607E-01  0.00000000000E+00 0. -1.
     999901    1    3    3    0    0  0.11961634046E+00 -0.14409264761E-01  0.56133729573E-01  0.88998128711E+00  0.88000000000E+00 0. -1.
        -11    1    4    4    0    0 -0.50127849772E-01  0.11578973900E-01 -0.23021289314E-02  0.51501794900E-01  0.51100000000E-03 0.  1.
         11    1    4    4    0    0 -0.67088503128E-01  0.14111645704E-01 -0.58381474170E-01  0.90048117380E-01  0.51100000000E-03 0. -1.
</event>
<event>
 8    1  0.2077555E+004  0.1043930E+01  0.7957747E-01            NaN
         13   -1    0    0    0    0  0.00000000000E+00  0.00000000000E+00  0.74505805969E-08  0.10566000000E+00  0.10566000000E+00 0.  1.
     999900   -1    0    0    0    0 -0.00000000000E+00 -0.00000000000E+00 -0.74505805969E-08  0.93827000000E+00  0.93827000000E+00 0. -1.
     999902    2    1    2    0    0 -0.13277261471E-01  0.67518674431E-02  0.11532783104E-01  0.10250917816E+01  0.10249186710E+01 0.  0.
     999903    2    3    3    0    0  0.72057742444E-02 -0.97924216038E-01  0.81420825959E-01  0.13590058971E+00  0.46888635251E-01 0.  0.
         14    1    1    2    0    0  0.13277261471E-01 -0.67518674431E-02 -0.11532783104E-01  0.18838218394E-01  0.00000000000E+00 0. -1.
     999901    1    3    3    0    0 -0.20483035716E-01  0.10467608348E+00 -0.69888042855E-01  0.88919119189E+00  0.88000000000E+00 0. -1.
        -11    1    4    4    0    0 -0.10866121692E-01 -0.66682323077E-01  0.32151271245E-01  0.74823593707E-01  0.51100000000E-03 0.  1.
         11    1    4    4    0    0  0.18071895936E-01 -0.31241892960E-01  0.49269554714E-01  0.61076996006E-01  0.51100000000E-03 0. -1.
</event>
<event>
 8    1  0.2077555E+004  0.1043930E+01  0.7957747E-01            NaN
         13   -1    0    0    0    0  0.00000000000E+00  0.00000000000E+00  0.74505805969E-08  0.10566000000E+00  0.10566000000E+00 0.  1.
     999900   -1    0    0    0    0 -0.00000000000E+00 -0.00000000000E+00 -0.74505805969E-08  0.93827000000E+00  0.93827000000E+00 0. -1.
     999902    2    1    2    0    0 -0.96935922166E-02  0.90742819240E-02  0.44597590599E-02  0.10299229384E+01  0.10298276853E+01 0.  0.
     999903    2    3    3    0    0  0.84437983568E-01  0.95838088848E-01 -0.35278863761E-01  0.13977246246E+00  0.44463813278E-01 0.  0.
         14    1    1    2    0    0  0.96935922166E-02 -0.90742819240E-02 -0.44597590599E-02  0.14007061554E-01  0.00000000000E+00 0.  1.
     999901    1    3    3    0    0 -0.94131575785E-01 -0.86763806924E-01  0.39738622821E-01  0.89015047598E+00  0.88000000000E+00 0.  1.
        -11    1    4    4    0    0  0.76368969239E-01  0.76373906037E-01 -0.44438643143E-01  0.11679146849E+00  0.51100000000E-03 0.  1.
         11    1    4    4    0    0  0.80690143292E-02  0.19464182811E-01  0.91597793815E-02  0.22980993975E-01  0.51100000000E-03 0. -1.
</event>
<event>
 8    1  0.2077555E+004  0.1043930E+01  0.7957747E-01            NaN
         13   -1    0    0    0    0  0.00000000000E+00  0.00000000000E+00  0.74505805969E-08  0.10566000000E+00  0.10566000000E+00 0. -1.
     999900   -1    0    0    0    0 -0.00000000000E+00 -0.00000000000E+00 -0.74505805969E-08  0.93827000000E+00  0.93827000000E+00 0.  1.
     999902    2    1    2    0    0 -0.27023417851E-02  0.13715742950E-01  0.29979170196E-02  0.10296327358E+01  0.10295334667E+01 0.  0.
     999903    2    3    3    0    0 -0.89719676853E-01 -0.34466008362E-01  0.90911893705E-01  0.13967635205E+00  0.44799383461E-01 0.  0.
         14    1    1    2    0    0  0.27023417851E-02 -0.13715742950E-01 -0.29979170196E-02  0.14297264152E-01  0.00000000000E+00 0. -1.
     999901    1    3    3    0    0  0.87017335068E-01  0.48181751311E-01 -0.87913976685E-01  0.88995638380E+00  0.88000000000E+00 0.  1.
        -11    1    4    4    0    0 -0.71582279147E-01 -0.13229113633E-01  0.43948356901E-01  0.85033824627E-01  0.51100000000E-03 0.  1.
         11    1    4    4    0    0 -0.18137397707E-01 -0.21236894728E-01  0.46963536804E-01  0.54642527425E-01  0.51100000000E-03 0. -1.
</event>
<event>
 8    1  0.2077555E+004  0.1043930E+01  0.7957747E-01            NaN
         13   -1    0    0    0    0  0.00000000000E+00  0.00000000000E+00  0.74505805969E-08  0.10566000000E+00  0.10566000000E+00 0. -1.
     999900   -1    0    0    0    0 -0.00000000000E+00 -0.00000000000E+00 -0.74505805969E-08  0.93827000000E+00  0.93827000000E+00 0. -1.
     999902    2    1    2    0    0  0.12407096594E-01  0.47999092874E-02  0.37925588702E-02  0.10300967546E+01  0.10300038666E+01 0.  0.
     999903    2    3    3    0    0  0.25149905807E-01 -0.62661777848E-02 -0.12982509539E+00  0.13985043196E+00  0.45075549690E-01 0.  0.
         14    1    1    2    0    0 -0.12407096594E-01 -0.47999092874E-02 -0.37925588702E-02  0.13833245384E-01  0.00000000000E+00 0.  1.
     999901    1    3    3    0    0 -0.12742809213E-01  0.11066087072E-01  0.13361765426E+00  0.89024632265E+00  0.88000000000E+00 0.  1.
        -11    1    4    4    0    0  0.11943175720E-01 -0.20964741458E-01 -0.10685370606E+00  0.10954512974E+00  0.51100000000E-03 0.  1.
         11    1    4    4    0    0  0.13206730088E-01  0.14698563673E-01 -0.22971389334E-01  0.30305302219E-01  0.51100000000E-03 0. -1.
</event>
<event>
 8    1  0.2077555E+004  0.1043930E+01  0.7957747E-01            NaN
         13   -1    0    0    0    0  0.00000000000E+00  0.00000000000E+00  0.74505805969E-08  0.10566000000E+00  0.10566000000E+00 0. -1.
     999900   -1    0    0    0    0 -0.00000000000E+00 -0.00000000000E+00 -0.74505805969E-08  0.93827000000E+00  0.93827000000E+00 0.  1.
     999902    2    1    2    0    0  0.11886183162E-01 -0.45070117181E-02 -0.54874602097E-02  0.10300841803E+01  0.10299911221E+01 0.  0.
     999903    2    3    3    0    0 -0.20421716922E-01  0.45015619341E-02  0.13039595487E+00  0.13902343188E+00  0.43440752577E-01 0.  0.
         14    1    1    2    0    0 -0.11886183162E-01  0.45070117181E-02  0.54874602097E-02  0.13845819742E-01  0.00000000000E+00 0. -1.
     999901    1    3    3    0    0  0.32307900083E-01 -0.90085736522E-02 -0.13588341508E+00  0.89106074838E+00  0.88000000000E+00 0.  1.
        -11    1    4    4    0    0 -0.92456290294E-02  0.16767129278E-01  0.21194387625E-01  0.28567139657E-01  0.51100000000E-03 0.  1.
         11    1    4    4    0    0 -0.11176087892E-01 -0.12265567344E-01  0.10920156724E+00  0.11045629222E+00  0.51100000000E-03 0. -1.
</event>
<event>
 8    1  0.2077555E+004  0.1043930E+01  0.7957747E-01            NaN
         13   -1    0    0    0    0  0.00000000000E+00  0.00000000000E+00  0.74505805969E-08  0.10566000000E+00  0.10566000000E+00 0. -1.
     999900   -1    0    0    0    0 -0.00000000000E+00 -0.00000000000E+00 -0.74505805969E-08  0.93827000000E+00  0.93827000000E+00 0.  1.
     999902    2    1    2    0    0  0.16262376662E-01  0.31913354978E-02  0.29316995432E-02  0.10271001343E+01  0.10269622396E+01 0.  0.
     999903    2    3    3    0    0  0.67558043984E-01  0.67998977166E-01  0.90383316782E-01  0.13891149372E+00  0.44037585467E-01 0.  0.
         14    1    1    2    0    0 -0.16262376662E-01 -0.31913354978E-02 -0.29316995432E-02  0.16829865691E-01  0.00000000000E+00 0.  1.
     999901    1    3    3    0    0 -0.51295667321E-01 -0.64807641668E-01 -0.87451617239E-01  0.88818864058E+00  0.88000000000E+00 0.  1.
        -11    1    4    4    0    0  0.46243609879E-01  0.20506084255E-01  0.28577809789E-01  0.58102695974E-01  0.51100000000E-03 0. -1.
         11    1    4    4    0    0  0.21314434105E-01  0.47492892910E-01  0.61805506994E-01  0.80808797751E-01  0.51100000000E-03 0.  1.
</event>
<event>
 8    1  0.2077555E+004  0.1043930E+01  0.7957747E-01            NaN
         13   -1    0    0    0    0  0.00000000000E+00  0.00000000000E+00  0.74505805969E-08  0.10566000000E+00  0.10566000000E+00 0. -1.
     999900   -1    0    0    0    0 -0.00000000000E+00 -0.00000000000E+00 -0.74505805969E-08  0.93827000000E+00  0.93827000000E+00 0.  1.
     999902    2    1    2    0    0 -0.64354182305E-02  0.30962378800E-02 -0.12678791373E-01  0.10293782631E+01  0.10292754031E+01 0.  0.
     999903    2    3    3    0    0 -0.82469801735E-01  0.80921863477E-01 -0.67619779980E-01  0.14097713312E+00  0.44187116133E-01 0.  0.
         14    1    1    2    0    0  0.64354182305E-02 -0.30962378800E-02  0.12678791373E-01  0.14551736923E-01  0.00000000000E+00 0.  1.
     999901    1    3    3    0    0  0.76034383504E-01 -0.77825625597E-01  0.54940988608E-01  0.88840112995E+00  0.88000000000E+00 0. -1.
        -11    1    4    4    0    0 -0.62732000445E-01  0.66506000413E-01 -0.71705818463E-01  0.11619095272E+00  0.51100000000E-03 0.  1.
         11    1    4    4    0    0 -0.19737801290E-01  0.14415863064E-01  0.40860384828E-02  0.24786180406E-01  0.51100000000E-03 0. -1.
</event>
<event>
 8    1  0.2077555E+004  0.1043930E+01  0.7957747E-01            NaN
         13   -1    0    0    0    0  0.00000000000E+00  0.00000000000E+00  0.74505805969E-08  0.10566000000E+00  0.10566000000E+00 0.  1.
     999900   -1    0    0    0    0 -0.00000000000E+00 -0.00000000000E+00 -0.74505805969E-08  0.93827000000E+00  0.93827000000E+00 0.  1.
     999902    2    1    2    0    0  0.96710370780E-03  0.14112247273E-01 -0.95691765120E-03  0.10297523237E+01  0.10296547197E+01 0.  0.
     999903    2    3    3    0    0  0.96386403953E-01  0.39484035517E-01 -0.81761729541E-01  0.14055156569E+00  0.47121484194E-01 0.  0.
         14    1    1    2    0    0 -0.96710370780E-03 -0.14112247273E-01  0.95691765120E-03  0.14177676257E-01  0.00000000000E+00 0.  1.
     999901    1    3    3    0    0 -0.95419300245E-01 -0.25371788244E-01  0.80804811889E-01  0.88920075805E+00  0.88000000000E+00 0. -1.
        -11    1    4    4    0    0  0.55483442640E-01  0.39496220045E-01 -0.29596109814E-01  0.74260047415E-01  0.51100000000E-03 0.  1.
         11    1    4    4    0    0  0.40902961312E-01 -0.12184527811E-04 -0.52165619727E-01  0.66291518274E-01  0.51100000000E-03 0. -1.
</event>
<event>
 8    1  0.2077555E+004  0.1043930E+01  0.7957747E-01            NaN
         13   -1    0    0    0    0  0.00000000000E+00  0.00000000000E+00  0.74505805969E-08  0.10566000000E+00  0.10566000000E+00 0.  1.
     999900   -1    0    0    0    0 -0.00000000000E+00 -0.00000000000E+00 -0.74505805969E-08  0.93827000000E+00  0.93827000000E+00 0.  1.
     999902    2    1    2    0    0  0.12745847157E-01 -0.49312653926E-02 -0.72557644831E-03  0.10302442242E+01  0.10301533192E+01 0.  0.
     999903    2    3    3    0    0 -0.11579252100E+00  0.50484095592E-01  0.34284593581E-01  0.13849387442E+00  0.45261109895E-01 0.  0.
         14    1    1    2    0    0 -0.12745847157E-01  0.49312653926E-02  0.72557644831E-03  0.13685775802E-01  0.00000000000E+00 0. -1.
     999901    1    3    3    0    0  0.12853836815E+00 -0.55415360984E-01 -0.35010170029E-01  0.89175034978E+00  0.88000000000E+00 0. -1.
        -11    1    4    4    0    0 -0.31356434193E-01 -0.54374686271E-02  0.84550634405E-03  0.31839724125E-01  0.51100000000E-03 0. -1.
         11    1    4    4    0    0 -0.84436086804E-01  0.55921564219E-01  0.33439087237E-01  0.10665415030E+00  0.51100000000E-03 0.  1.
</event>
<event>
 8    1  0.2077555E+004  0.1043930E+01  0.7957747E-01            NaN
         13   -1    0    0    0    0  0.00000000000E+00  0.00000000000E+00  0.74505805969E-08  0.10566000000E+00  0.10566000000E+00 0. -1.
     999900   -1    0    0    0    0 -0.00000000000E+00 -0.00000000000E+00 -0.74505805969E-08  0.93827000000E+00  0.93827000000E+00 0. -1.
     999902    2    1    2    0    0 -0.35424062923E-02 -0.64513588232E-02 -0.11628432231E-01  0.10301681284E+01  0.10300762029E+01 0.  0.
     999903    2    3    3    0    0 -0.79075294215E-01  0.35660493637E-01  0.99000932926E-01  0.13903543252E+00  0.44778273919E-01 0.  0.
         14    1    1    2    0    0  0.35424062923E-02  0.64513588232E-02  0.11628432231E-01  0.13761871572E-01  0.00000000000E+00 0.  1.
     999901    1    3    3    0    0  0.75532887923E-01 -0.42111852460E-01 -0.11062936516E+00  0.89113269590E+00  0.88000000000E+00 0. -1.
        -11    1    4    4    0    0 -0.18990807247E-02  0.14565500386E-01  0.48427050212E-02  0.15474922359E-01  0.51100000000E-03 0. -1.
         11    1    4    4    0    0 -0.77176213490E-01  0.21094993251E-01  0.94158227904E-01  0.12356051016E+00  0.51100000000E-03 0.  1.
</event>
<event>
 8    1  0.2077555E+004  0.1043930E+01  0.7957747E-01            NaN
         13   -1    0    0    0    0  0.00000000000E+00  0.00000000000E+00  0.74505805969E-08  0.10566000000E+00  0.10566000000E+00 0.  1.
     999900   -1    0    0    0    0 -0.00000000000E+00 -0.00000000000E+00 -0.74505805969E-08  0.93827000000E+00  0.93827000000E+00 0. -1.
     999902    2    1    2    0    0 -0.85232324237E-02 -0.52477849477E-02  0.72728622918E-02  0.10315574795E+01  0.10314832787E+01 0.  0.
     999903    2    3    3    0    0 -0.45753848960E-01  0.28912870408E-01  0.12385796567E+00  0.14243141671E+00  0.44905946580E-01 0.  0.
         14    1    1    2    0    0  0.85232324237E-02  0.52477849477E-02 -0.72728622918E-02  0.12372520508E-01  0.00000000000E+00 0. -1.
     999901    1    3    3    0    0  0.37230616536E-01 -0.34160655356E-01 -0.11658510337E+00  0.88912606278E+00  0.88000000000E+00 0. -1.
        -11    1    4    4    0    0 -0.48907309980E-01  0.36088429735E-01  0.11763469294E+00  0.13241027843E+00  0.51100000000E-03 0. -1.
         11    1    4    4    0    0  0.31534610195E-02 -0.71755593270E-02  0.62232727272E-02  0.10021138283E-01  0.51100000000E-03 0.  1.
</event>
<event>
 8    1  0.2077555E+004  0.1043930E+01  0.7957747E-01            NaN
         13   -1    0    0    0    0  0.00000000000E+00  0.00000000000E+00  0.74505805969E-08  0.10566000000E+00  0.10566000000E+00 0. -1.
     999900   -1    0    0    0    0 -0.00000000000E+00 -0.00000000000E+00 -0.74505805969E-08  0.93827000000E+00  0.93827000000E+00 0.  1.
     999902    2    1    2    0    0  0.45423552338E-02 -0.34763221150E-02 -0.14323284960E-01  0.10285068259E+01  0.10283911788E+01 0.  0.
     999903    2    3    3    0    0 -0.99368576333E-01 -0.52680509907E-01  0.65161053480E-01  0.13747579737E+00  0.44769206878E-01 0.  0.
         14    1    1    2    0    0 -0.45423552338E-02  0.34763221150E-02  0.14323284960E-01  0.15423174075E-01  0.00000000000E+00 0. -1.
     999901    1    3    3    0    0  0.10391093157E+00  0.49204187792E-01 -0.79484338440E-01  0.89103102856E+00  0.88000000000E+00 0.  1.
        -11    1    4    4    0    0 -0.36591228990E-01 -0.23590764722E-01  0.50627058649E-01  0.66774264561E-01  0.51100000000E-03 0. -1.
         11    1    4    4    0    0 -0.62777347343E-01 -0.29089745185E-01  0.14533994831E-01  0.70701532806E-01  0.51100000000E-03 0.  1.
</event>
<event>
 8    1  0.2077555E+004  0.1043930E+01  0.7957747E-01            NaN
         13   -1    0    0    0    0  0.00000000000E+00  0.00000000000E+00  0.74505805969E-08  0.10566000000E+00  0.10566000000E+00 0. -1.
     999900   -1    0    0    0    0 -0.00000000000E+00 -0.00000000000E+00 -0.74505805969E-08  0.93827000000E+00  0.93827000000E+00 0. -1.
     999902    2    1    2    0    0  0.10057547796E-01  0.14042559959E-02  0.10051461849E-01  0.10296416100E+01  0.10295424649E+01 0.  0.
     999903    2    3    3    0    0 -0.34949976679E-01  0.81381052755E-01 -0.95940671858E-01  0.13854324414E+00  0.46316750366E-01 0.  0.
         14    1    1    2    0    0 -0.10057547796E-01 -0.14042559959E-02 -0.10051461849E-01  0.14288389968E-01  0.00000000000E+00 0.  1.
     999901    1    3    3    0    0  0.45007524475E-01 -0.79976796759E-01  0.10599213371E+00  0.89109836589E+00  0.88000000000E+00 0.  1.
        -11    1    4    4    0    0  0.33735913548E-02  0.89592137926E-02 -0.35374157504E-01  0.36650249256E-01  0.51100000000E-03 0. -1.
         11    1    4    4    0    0 -0.38323568034E-01  0.72421838962E-01 -0.60566514353E-01  0.10189299489E+00  0.51100000000E-03 0.  1.
</event>
<event>
 8    1  0.2077555E+004  0.1043930E+01  0.7957747E-01            NaN
         13   -1    0    0    0    0  0.00000000000E+00  0.00000000000E+00  0.74505805969E-08  0.10566000000E+00  0.10566000000E+00 0. -1.
     999900   -1    0    0    0    0 -0.00000000000E+00 -0.00000000000E+00 -0.74505805969E-08  0.93827000000E+00  0.93827000000E+00 0. -1.
     999902    2    1    2    0    0 -0.83686185836E-02  0.13011142826E-01 -0.40852292103E-02  0.10279296027E+01  0.10278050669E+01 0.  0.
     999903    2    3    3    0    0 -0.55998369307E-01 -0.10015567974E+00 -0.61482145610E-01  0.13755343005E+00  0.44428755785E-01 0.  0.
         14    1    1    2    0    0  0.83686185836E-02 -0.13011142826E-01  0.40852292103E-02  0.16000397255E-01  0.00000000000E+00 0.  1.
     999901    1    3    3    0    0  0.47629750724E-01  0.11316682257E+00  0.57396916400E-01  0.89037617269E+00  0.88000000000E+00 0.  1.
        -11    1    4    4    0    0 -0.37944256391E-01 -0.32380445717E-01 -0.10860921805E-01  0.51053703110E-01  0.51100000000E-03 0. -1.
         11    1    4    4    0    0 -0.18054112917E-01 -0.67775234027E-01 -0.50621223806E-01  0.86499726943E-01  0.51100000000E-03 0.  1.
</event>
<event>
 8    1  0.2077555E+004  0.1043930E+01  0.7957747E-01            NaN
         13   -1    0    0    0    0  0.00000000000E+00  0.00000000000E+00  0.74505805969E-08  0.10566000000E+00  0.10566000000E+00 0.  1.
     999900   -1    0    0    0    0 -0.00000000000E+00 -0.00000000000E+00 -0.74505805969E-08  0.93827000000E+00  0.93827000000E+00 0.  1.
     999902    2    1    2    0    0 -0.97939324419E-02  0.23316193202E-02  0.95232704032E-02  0.10300717808E+01  0.10299785548E+01 0.  0.
     999903    2    3    3    0    0  0.96309803154E-01  0.83782123399E-01 -0.32346009331E-01  0.13897962845E+00  0.44430287190E-01 0.  0.
         14    1    1    2    0    0  0.97939324419E-02 -0.23316193202E-02 -0.95232704032E-02  0.13858219240E-01  0.00000000000E+00 0. -1.
     999901    1    3    3    0    0 -0.10610373560E+00 -0.81450504079E-01  0.41869279734E-01  0.89109215231E+00  0.88000000000E+00 0. -1.
        -11    1    4    4    0    0  0.41735311575E-01  0.46587856451E-01  0.56148692631E-02  0.62801691687E-01  0.51100000000E-03 0. -1.
         11    1    4    4    0    0  0.54574491579E-01  0.37194266949E-01 -0.37960878594E-01  0.76177936763E-01  0.51100000000E-03 0.  1.
</event>
<event>
 8    1  0.2077555E+004  0.1043930E+01  0.7957747E-01            NaN
         13   -1    0    0    0    0  0.00000000000E+00  0.00000000000E+00  0.74505805969E-08  0.10566000000E+00  0.10566000000E+00 0. -1.
     999900   -1    0    0    0    0 -0.00000000000E+00 -0.00000000000E+00 -0.74505805969E-08  0.93827000000E+00  0.93827000000E+00 0. -1.
     999902    2    1    2    0    0 -0.75623157643E-02 -0.11892549752E-01  0.24666340217E-02  0.10296224620E+01  0.10295230491E+01 0.  0.
     999903    2    3    3    0    0 -0.10376174760E+00 -0.29814271018E-01 -0.77449571337E-01  0.14059933598E+00  0.45982019923E-01 0.  0.
         14    1    1    2    0    0  0.75623157643E-02  0.11892549752E-01 -0.24666340217E-02  0.14307537969E-01  0.00000000000E+00 0. -1.
     999901    1    3    3    0    0  0.96199431834E-01  0.17921721265E-01  0.79916205359E-01  0.88902312605E+00  0.88000000000E+00 0.  1.
        -11    1    4    4    0    0 -0.64961191789E-01 -0.40254442499E-01 -0.58089415811E-01  0.95994884915E-01  0.51100000000E-03 0. -1.
         11    1    4    4    0    0 -0.38800555809E-01  0.10440171481E-01 -0.19360155526E-01  0.44604451064E-01  0.51100000000E-03 0.  1.
</event>
<event>
 8    1  0.2077555E+004  0.1043930E+01  0.7957747E-01            NaN
         13   -1    0    0    0    0  0.00000000000E+00  0.00000000000E+00  0.74505805969E-08  0.10566000000E+00  0.10566000000E+00 0.  1.
     999900   -1    0    0    0    0 -0.00000000000E+00 -0.00000000000E+00 -0.74505805969E-08  0.93827000000E+00  0.93827000000E+00 0.  1.
     999902    2    1    2    0    0 -0.20400661338E-02  0.13543705952E-01  0.51142033304E-02  0.10293098455E+01  0.10292060091E+01 0.  0.
     999903    2    3    3    0    0 -0.91006572548E-01  0.88377787728E-01  0.42054306439E-01  0.14089566832E+00  0.44611602213E-01 0.  0.
         14    1    1    2    0    0  0.20400661338E-02 -0.13543705952E-01 -0.51142033304E-02  0.14620154460E-01  0.00000000000E+00 0. -1.
     999901    1    3    3    0    0  0.88966506414E-01 -0.74834081777E-01 -0.36940103109E-01  0.88841417722E+00  0.88000000000E+00 0. -1.
        -11    1    4    4    0    0 -0.21773812555E-02  0.22861316772E-01  0.14383424688E-01  0.27102118375E-01  0.51100000000E-03 0.  1.
         11    1    4    4    0    0 -0.88829191292E-01  0.65516470956E-01  0.27670881752E-01  0.11379354995E+00  0.51100000000E-03 0. -1.
</event>
<event>
 8    1  0.2077555E+004  0.1043930E+01  0.7957747E-01            NaN
         13   -1    0    0    0    0  0.00000000000E+00  0.00000000000E+00  0.74505805969E-08  0.10566000000E+00  0.10566000000E+00 0. -1.
     999900   -1    0    0    0    0 -0.00000000000E+00 -0.00000000000E+00 -0.74505805969E-08  0.93827000000E+00  0.93827000000E+00 0. -1.
     999902    2    1    2    0    0 -0.97091532592E-02 -0.15160134764E-02  0.10249744374E-01  0.10297305911E+01  0.10296326855E+01 0.  0.
     999903    2    3    3    0    0 -0.48501190640E-01  0.11817465671E+00  0.37089079656E-01  0.14037631487E+00  0.44858610841E-01 0.  0.
         14    1    1    2    0    0  0.97091532592E-02  0.15160134764E-02 -0.10249744374E-01  0.14199408917E-01  0.00000000000E+00 0.  1.
     999901    1    3    3    0    0  0.38792037380E-01 -0.11969067018E+00 -0.26839335282E-01  0.88935427621E+00  0.88000000000E+00 0.  1.
        -11    1    4    4    0    0 -0.28554688208E-01  0.77227988932E-01  0.45473124423E-01  0.94061674761E-01  0.51100000000E-03 0.  1.
         11    1    4    4    0    0 -0.19946502432E-01  0.40946667775E-01 -0.83840447664E-02  0.46314640112E-01  0.51100000000E-03 0. -1.
</event>
<event>
 8    1  0.2077555E+004  0.1043930E+01  0.7957747E-01            NaN
         13   -1    0    0    0    0  0.00000000000E+00  0.00000000000E+00  0.74505805969E-08  0.10566000000E+00  0.10566000000E+00 0.  1.
     999900   -1    0    0    0    0 -0.00000000000E+00 -0.00000000000E+00 -0.74505805969E-08  0.93827000000E+00  0.93827000000E+00 0. -1.
     999902    2    1    2    0    0  0.53212304196E-02 -0.12008500918E-01  0.20146029626E-02  0.10306417265E+01  0.10305560587E+01 0.  0.
     999903    2    3    3    0    0  0.88434320104E-01 -0.74619165301E-01 -0.68189843066E-01  0.14173422557E+00  0.45277888618E-01 0.  0.
         14    1    1    2    0    0 -0.53212304196E-02  0.12008500918E-01 -0.20146029626E-02  0.13288273499E-01  0.00000000000E+00 0.  1.
     999901    1    3    3    0    0 -0.83113089685E-01  0.62610664383E-01  0.70204446029E-01  0.88890750093E+00  0.88000000000E+00 0.  1.
        -11    1    4    4    0    0  0.74503094674E-01 -0.55673101601E-01 -0.31587729967E-01  0.98225511775E-01  0.51100000000E-03 0.  1.
         11    1    4    4    0    0  0.13931225430E-01 -0.18946063700E-01 -0.36602113099E-01  0.43508713794E-01  0.51100000000E-03 0. -1.
</event>
<event>
 8    1  0.2077555E+004  0.1043930E+01  0.7957747E-01            NaN
         13   -1    0    0    0    0  0.00000000000E+00  0.00000000000E+00  0.74505805969E-08  0.10566000000E+00  0.10566000000E+00 0.  1.
     999900   -1    0    0    0    0 -0.00000000000E+00 -0.00000000000E+00 -0.74505805969E-08  0.93827000000E+00  0.93827000000E+00 0. -1.
     999902    2    1    2    0    0  0.21306437175E-01  0.17650355746E-01 -0.79449628371E-03  0.10162509367E+01  0.10158739271E+01 0.  0.
     999903    2    3    3    0    0 -0.10968088241E+00  0.11448908757E-01  0.38647832111E-01  0.12566021523E+00  0.46215379327E-01 0.  0.
         14    1    1    2    0    0 -0.21306437175E-01 -0.17650355746E-01  0.79449628371E-03  0.27679063340E-01  0.00000000000E+00 0.  1.
     999901    1    3    3    0    0  0.13098731958E+00  0.62014469889E-02 -0.39442328394E-01  0.89059072143E+00  0.88000000000E+00 0. -1.
        -11    1    4    4    0    0 -0.78337843500E-01  0.13982418734E-01  0.51971221696E-02  0.79747081186E-01  0.51100000000E-03 0.  1.
         11    1    4    4    0    0 -0.31343038908E-01 -0.25335099777E-02  0.33450709941E-01  0.45913134039E-01  0.51100000000E-03 0. -1.
</event>
<event>
 8    1  0.2077555E+004  0.1043930E+01  0.7957747E-01            NaN
         13   -1    0    0    0    0  0.00000000000E+00  0.00000000000E+00  0.74505805969E-08  0.10566000000E+00  0.10566000000E+00 0. -1.
     999900   -1    0    0    0    0 -0.00000000000E+00 -0.00000000000E+00 -0.74505805969E-08  0.93827000000E+00  0.93827000000E+00 0.  1.
     999902    2    1    2    0    0  0.74329810589E-02  0.55349145194E-02  0.61921834298E-02  0.10327842554E+01  0.10327241116E+01 0.  0.
     999903    2    3    3    0    0 -0.12237357391E+00  0.27305384264E-01  0.48662478131E-01  0.14198269449E+00  0.45499155541E-01 0.  0.
         14    1    1    2    0    0 -0.74329810589E-02 -0.55349145194E-02 -0.61921834298E-02  0.11145744560E-01  0.00000000000E+00 0.  1.
     999901    1    3    3    0    0  0.12980655497E+00 -0.21770469745E-01 -0.42470294701E-01  0.89080156095E+00  0.88000000000E+00 0. -1.
        -11    1    4    4    0    0 -0.11651830266E+00  0.22758847529E-01  0.30822618552E-01  0.12265714382E+00  0.51100000000E-03 0. -1.
         11    1    4    4    0    0 -0.58552712509E-02  0.45465367348E-02  0.17839859579E-01  0.19325550665E-01  0.51100000000E-03 0.  1.
</event>
<event>
 7    1  0.2077555E+004  0.1043930E+01  0.7957747E-01            NaN
         13   -1    0    0    0    0  0.00000000000E+00  0.00000000000E+00  0.74505805969E-08  0.10566000000E+00  0.10566000000E+00 0. -1.
     999900   -1    0    0    0    0 -0.00000000000E+00 -0.00000000000E+00 -0.74505805969E-08  0.93827000000E+00  0.93827000000E+00 0. -1.
     999903    2    1    2    0    0  0.38640176617E-01 -0.48861115436E-02 -0.86508059289E-02  0.59502192280E-01  0.44144502579E-01 0.  0.
         14    1    1    2    0    0  0.59713728712E-01 -0.73730780301E-01  0.10550065229E-01  0.95463402604E-01  0.00000000000E+00 0. -1.
     999901    1    1    2    0    0 -0.98353905329E-01  0.78616891844E-01 -0.18992592996E-02  0.88896440512E+00  0.88000000000E+00 0. -1.
        -11    1    3    3    0    0  0.10448553470E-01 -0.12471134270E-01 -0.22024197726E-01  0.27386636633E-01  0.51100000000E-03 0. -1.
         11    1    3    3    0    0  0.28191623146E-01  0.75850227265E-02  0.13373391797E-01  0.32115555647E-01  0.51100000000E-03 0.  1.
</event>
<event>
 8    1  0.2077555E+004  0.1043930E+01  0.7957747E-01            NaN
         13   -1    0    0    0    0  0.00000000000E+00  0.00000000000E+00  0.74505805969E-08  0.10566000000E+00  0.10566000000E+00 0.  1.
     999900   -1    0    0    0    0 -0.00000000000E+00 -0.00000000000E+00 -0.74505805969E-08  0.93827000000E+00  0.93827000000E+00 0.  1.
     999902    2    1    2    0    0 -0.56921431260E-02  0.35608155226E-02  0.12135205572E-01  0.10300612180E+01  0.10299678488E+01 0.  0.
     999903    2    3    3    0    0 -0.42555622756E-01  0.82466692357E-01 -0.93495976269E-01  0.13947545562E+00  0.45827598302E-01 0.  0.
         14    1    1    2    0    0  0.56921431260E-02 -0.35608155226E-02 -0.12135205572E-01  0.13868782024E-01  0.00000000000E+00 0. -1.
     999901    1    3    3    0    0  0.36863479630E-01 -0.78905876835E-01  0.10563118184E+00  0.89058576235E+00  0.88000000000E+00 0. -1.
        -11    1    4    4    0    0 -0.51493614284E-02  0.35401524422E-01 -0.62052088035E-01  0.71627554789E-01  0.51100000000E-03 0.  1.
         11    1    4    4    0    0 -0.37406261328E-01  0.47065167935E-01 -0.31443888234E-01  0.67847900834E-01  0.51100000000E-03 0. -1.
</event>
<event>
 8    1  0.2077555E+004  0.1043930E+01  0.7957747E-01            NaN
         13   -1    0    0    0    0  0.00000000000E+00  0.00000000000E+00  0.74505805969E-08  0.10566000000E+00  0.10566000000E+00 0. -1.
     999900   -1    0    0    0    0 -0.00000000000E+00 -0.00000000000E+00 -0.74505805969E-08  0.93827000000E+00  0.93827000000E+00 0. -1.
     999902    2    1    2    0    0 -0.41429608150E-04  0.17294221926E-02 -0.12883756490E-01  0.10309306231E+01  0.10308486630E+01 0.  0.
     999903    2    3    3    0    0  0.27442854298E-01  0.76201512081E-01  0.10481626226E+00  0.13955260431E+00  0.43916965295E-01 0.  0.
         14    1    1    2    0    0  0.41429608150E-04 -0.17294221926E-02  0.12883756490E-01  0.12999376863E-01  0.00000000000E+00 0. -1.
     999901    1    3    3    0    0 -0.27484283906E-01 -0.74472089888E-01 -0.11770001875E+00  0.89137801883E+00  0.88000000000E+00 0. -1.
        -11    1    4    4    0    0 -0.51138988675E-02  0.52420908748E-02  0.31868404830E-01  0.32703024719E-01  0.51100000000E-03 0. -1.
         11    1    4    4    0    0  0.32556753165E-01  0.70959421206E-01  0.72947857427E-01  0.10684957959E+00  0.51100000000E-03 0.  1.
</event>
<event>
 8    1  0.2077555E+004  0.1043930E+01  0.7957747E-01            NaN
         13   -1    0    0    0    0  0.00000000000E+00  0.00000000000E+00  0.74505805969E-08  0.10566000000E+00  0.10566000000E+00 0.  1.
     999900   -1    0    0    0    0 -0.00000000000E+00 -0.00000000000E+00 -0.74505805969E-08  0.93827000000E+00  0.93827000000E+00 0. -1.
     999902    2    1    2    0    0  0.15104772062E-01  0.58651775302E-03 -0.14362533168E-01  0.10230786091E+01  0.10228661007E+01 0.  0.
     999903    2    3    3    0    0 -0.11401929817E+00  0.26214221235E-02  0.47282586069E-01  0.13151970077E+00  0.45326775069E-01 0.  0.
         14    1    1    2    0    0 -0.15104772062E-01 -0.58651775302E-03  0.14362533168E-01  0.20851390868E-01  0.00000000000E+00 0.  1.
     999901    1    3    3    0    0  0.12912407023E+00 -0.20349043705E-02 -0.61645119237E-01  0.89155890836E+00  0.88000000000E+00 0. -1.
        -11    1    4    4    0    0 -0.93531432357E-01  0.16197106452E-01  0.24575753732E-01  0.98054596468E-01  0.51100000000E-03 0. -1.
         11    1    4    4    0    0 -0.20487865808E-01 -0.13575684328E-01  0.22706832337E-01  0.33465104305E-01  0.51100000000E-03 0.  1.
</event>
<event>
 8    1  0.2077555E+004  0.1043930E+01  0.7957747E-01            NaN
         13   -1    0    0    0    0  0.00000000000E+00  0.00000000000E+00  0.74505805969E-08  0.10566000000E+00  0.10566000000E+00 0.  1.
     999900   -1    0    0    0    0 -0.00000000000E+00 -0.00000000000E+00 -0.74505805969E-08  0.93827000000E+00  0.93827000000E+00 0.  1.
     999902    2    1    2    0    0  0.93928474066E-02  0.39300467010E-02 -0.95241593911E-02  0.10299879606E+01  0.10298935958E+01 0.  0.
     999903    2    3    3    0    0  0.10351041801E+00  0.19641566292E-01  0.80831367711E-01  0.14023007772E+00  0.45061812283E-01 0.  0.
         14    1    1    2    0    0 -0.93928474066E-02 -0.39300467010E-02  0.95241593911E-02  0.13942039362E-01  0.00000000000E+00 0.  1.
     999901    1    3    3    0    0 -0.94117570607E-01 -0.15711519591E-01 -0.90355527102E-01  0.88975788292E+00  0.88000000000E+00 0.  1.
        -11    1    4    4    0    0  0.82240809486E-01  0.62663364264E-02  0.80270402057E-01  0.11509307661E+00  0.51100000000E-03 0. -1.
         11    1    4    4    0    0  0.21269608528E-01  0.13375229866E-01  0.56096565364E-03  0.25137001101E-01  0.51100000000E-03 0.  1.
</event>
<event>
 8    1  0.2077555E+004  0.1043930E+01  0.7957747E-01            NaN
         13   -1    0    0    0    0  0.00000000000E+00  0.00000000000E+00  0.74505805969E-08  0.10566000000E+00  0.10566000000E+00 0.  1.
     999900   -1    0    0    0    0 -0.00000000000E+00 -0.00000000000E+00 -0.74505805969E-08  0.93827000000E+00  0.93827000000E+00 0.  1.
     999902    2    1    2    0    0  0.65539953794E-02 -0.93283089465E-03  0.10916670473E-01  0.10311629047E+01  0.10310838653E+01 0.  0.
     999903    2    3    3    0    0 -0.12998039187E+00 -0.42918408005E-02 -0.27375231147E-01  0.13980484442E+00  0.43389734648E-01 0.  0.
         14    1    1    2    0    0 -0.65539953794E-02  0.93283089465E-03 -0.10916670473E-01  0.12767095328E-01  0.00000000000E+00 0. -1.
     999901    1    3    3    0    0  0.13653438725E+00  0.33590099058E-02  0.38291901620E-01  0.89135806025E+00  0.88000000000E+00 0. -1.
        -11    1    4    4    0    0 -0.74351602361E-01 -0.36134588237E-02 -0.37344881213E-01  0.83283366479E-01  0.51100000000E-03 0. -1.
         11    1    4    4    0    0 -0.55628789514E-01 -0.67838197684E-03  0.99696500659E-02  0.56521477939E-01  0.51100000000E-03 0.  1.
</event>
<event>
 8    1  0.2077555E+004  0.1043930E+01  0.7957747E-01            NaN
         13   -1    0    0    0    0  0.00000000000E+00  0.00000000000E+00  0.74505805969E-08  0.10566000000E+00  0.10566000000E+00 0. -1.
     999900   -1    0    0    0    0 -0.00000000000E+00 -0.00000000000E+00 -0.74505805969E-08  0.93827000000E+00  0.93827000000E+00 0.  1.
     999902    2    1    2    0    0  0.12774176165E-01 -0.36244296879E-02 -0.54511538939E-02  0.10295762149E+01  0.10294761538E+01 0.  0.
     999903    2    3    3    0    0  0.31158970741E-01  0.11839062970E+00  0.46892040616E-01  0.13942707832E+00  0.47474456666E-01 0.  0.
         14    1    1    2    0    0 -0.12774176165E-01  0.36244296879E-02  0.54511538939E-02  0.14353785077E-01  0.00000000000E+00 0.  1.
     999901    1    3    3    0    0 -0.18384794576E-01 -0.12201505939E+00 -0.52343194509E-01  0.89014913661E+00  0.88000000000E+00 0.  1.
        -11    1    4    4    0    0 -0.56483041352E-03  0.48456372491E-01 -0.18012108735E-02  0.48495819923E-01  0.51100000000E-03 0.  1.
         11    1    4    4    0    0  0.31723801155E-01  0.69934257212E-01  0.48693251489E-01  0.90931258394E-01  0.51100000000E-03 0. -1.
</event>
<event>
 8    1  0.2077555E+004  0.1043930E+01  0.7957747E-01            NaN
         13   -1    0    0    0    0  0.00000000000E+00  0.00000000000E+00  0.74505805969E-08  0.10566000000E+00  0.10566000000E+00 0.  1.
     999900   -1    0    0    0    0 -0.00000000000E+00 -0.00000000000E+00 -0.74505805969E-08  0.93827000000E+00  0.93827000000E+00 0. -1.
     999902    2    1    2    0    0 -0.84635458971E-02 -0.81178278766E-02 -0.65392271020E-02  0.10305027058E+01  0.10304152243E+01 0.  0.
     999903    2    3    3    0    0 -0.24827453726E-01 -0.11682036683E+00 -0.63218220083E-01  0.14185399697E+00  0.43157995102E-01 0.  0.
         14    1    1    2    0    0  0.84635458971E-02  0.81178278766E-02  0.65392271020E-02  0.13427294205E-01  0.00000000000E+00 0.  1.
     999901    1    3    3    0    0  0.16363907829E-01  0.10870253895E+00  0.56678992981E-01  0.88864870883E+00  0.88000000000E+00 0. -1.
        -11    1    4    4    0    0 -0.31541213505E-01 -0.73012551675E-01 -0.25121062488E-01  0.83408691112E-01  0.51100000000E-03 0.  1.
         11    1    4    4    0    0  0.67137597795E-02 -0.43807815152E-01 -0.38097157595E-01  0.58445305856E-01  0.51100000000E-03 0. -1.
</event>
<event>
 8    1  0.2077555E+004  0.1043930E+01  0.7957747E-01            NaN
         13   -1    0    0    0    0  0.00000000000E+00  0.00000000000E+00  0.74505805969E-08  0.10566000000E+00  0.10566000000E+00 0. -1.
     999900   -1    0    0    0    0 -0.00000000000E+00 -0.00000000000E+00 -0.74505805969E-08  0.93827000000E+00  0.93827000000E+00 0.  1.
     999902    2    1    2    0    0 -0.50574824617E-02 -0.11577455584E-01 -0.86690830652E-02  0.10286078393E+01  0.10284937134E+01 0.  0.
     999903    2    3    3    0    0 -0.77872554446E-01 -0.54599253124E-01  0.90475468633E-01  0.13901099136E+00  0.45749667943E-01 0.  0.
         14    1    1    2    0    0  0.50574824617E-02  0.11577455584E-01  0.86690830652E-02  0.15322160678E-01  0.00000000000E+00 0. -1.
     999901    1    3    3    0    0  0.72815071984E-01  0.43021797540E-01 -0.99144551699E-01  0.88959684796E+00  0.88000000000E+00 0.  1.
        -11    1    4    4    0    0 -0.33402194756E-01 -0.18845088986E-02  0.14693674426E-01  0.36543442331E-01  0.51100000000E-03 0. -1.
         11    1    4    4    0    0 -0.44470359690E-01 -0.52714744226E-01  0.75781794207E-01  0.10246754903E+00  0.51100000000E-03 0.  1.
</event>
<event>
 8    1  0.2077555E+004  0.1043930E+01  0.7957747E-01            NaN
         13   -1    0    0    0    0  0.00000000000E+00  0.00000000000E+00  0.74505805969E-08  0.10566000000E+00  0.10566000000E+00 0.  1.
     999900   -1    0    0    0    0 -0.00000000000E+00 -0.00000000000E+00 -0.74505805969E-08  0.93827000000E+00  0.93827000000E+00 0. -1.
     999902    2    1    2    0    0  0.71811044773E-03 -0.76138861537E-02  0.96874147049E-02  0.10315876765E+01  0.10315138397E+01 0.  0.
     999903    2    3    3    0    0  0.92334369577E-01 -0.25719137110E-01  0.95727887339E-01  0.14247334081E+00  0.44132919784E-01 0.  0.
         14    1    1    2    0    0 -0.71811044773E-03  0.76138861537E-02 -0.96874147049E-02  0.12342323470E-01  0.00000000000E+00 0. -1.
     999901    1    3    3    0    0 -0.91616259129E-01  0.18105250957E-01 -0.86040472634E-01  0.88911433572E+00  0.88000000000E+00 0. -1.
        -11    1    4    4    0    0  0.58389906901E-01 -0.34924836933E-01  0.76525266423E-01  0.10239874504E+00  0.51100000000E-03 0.  1.
         11    1    4    4    0    0  0.33944462676E-01  0.92056998224E-02  0.19202620916E-01  0.40074595776E-01  0.51100000000E-03 0. -1.
</event>
<event>
 8    1  0.2077555E+004  0.1043930E+01  0.7957747E-01            NaN
         13   -1    0    0    0    0  0.00000000000E+00  0.00000000000E+00  0.74505805969E-08  0.10566000000E+00  0.10566000000E+00 0.  1.
     999900   -1    0    0    0    0 -0.00000000000E+00 -0.00000000000E+00 -0.74505805969E-08  0.93827000000E+00  0.93827000000E+00 0.  1.
     999902    2    1    2    0    0 -0.11831503974E-01 -0.33482583075E-02 -0.41888881071E-02  0.10309399229E+01  0.10308580807E+01 0.  0.
     999903    2    3    3    0    0  0.85530376369E-01 -0.71419592334E-01  0.71251361989E-01  0.13975853080E+00  0.45160678633E-01 0.  0.
         14    1    1    2    0    0  0.11831503974E-01  0.33482583075E-02  0.41888881071E-02  0.12990077119E-01  0.00000000000E+00 0.  1.
     999901    1    3    3    0    0 -0.97361880343E-01  0.68071334026E-01 -0.75440250096E-01  0.89118139208E+00  0.88000000000E+00 0.  1.
        -11    1    4    4    0    0  0.19409619958E-01 -0.34424372745E-01  0.44231068482E-01  0.59316265272E-01  0.51100000000E-03 0.  1.
         11    1    4    4    0    0  0.66120756410E-01 -0.36995219589E-01  0.27020293508E-01  0.80442265526E-01  0.51100000000E-03 0. -1.
</event>
<event>
 8    1  0.2077555E+004  0.1043930E+01  0.7957747E-01            NaN
         13   -1    0    0    0    0  0.00000000000E+00  0.00000000000E+00  0.74505805969E-08  0.10566000000E+00  0.10566000000E+00 0. -1.
     999900   -1    0    0    0    0 -0.00000000000E+00 -0.00000000000E+00 -0.74505805969E-08  0.93827000000E+00  0.93827000000E+00 0. -1.
     999902    2    1    2    0    0 -0.57010738681E-02 -0.17499253870E-02 -0.11093778951E-01  0.10313349052E+01  0.10312579940E+01 0.  0.
     999903    2    3    3    0    0  0.70550495589E-01 -0.47843530139E-01 -0.10422865850E+00  0.14194577323E+00  0.44928982647E-01 0.  0.
         14    1    1    2    0    0  0.57010738681E-02  0.17499253870E-02  0.11093778951E-01  0.12595094820E-01  0.00000000000E+00 0. -1.
     999901    1    3    3    0    0 -0.76251569457E-01  0.46093604752E-01  0.93134879547E-01  0.88938913195E+00  0.88000000000E+00 0. -1.
        -11    1    4    4    0    0  0.18298296117E-01 -0.34838401840E-01 -0.62340069926E-01  0.73723044721E-01  0.51100000000E-03 0.  1.
         11    1    4    4    0    0  0.52252199471E-01 -0.13005128299E-01 -0.41888588571E-01  0.68222728508E-01  0.51100000000E-03 0. -1.
</event>
<event>
 8    1  0.2077555E+004  0.1043930E+01  0.7957747E-01            NaN
         13   -1    0    0    0    0  0.00000000000E+00  0.00000000000E+00  0.74505805969E-08  0.10566000000E+00  0.10566000000E+00 0. -1.
     999900   -1    0    0    0    0 -0.00000000000E+00 -0.00000000000E+00 -0.74505805969E-08  0.93827000000E+00  0.93827000000E+00 0.  1.
     999902    2    1    2    0    0 -0.12161233012E-01  0.13870341773E-02 -0.64954394476E-02  0.10300732260E+01  0.10299800196E+01 0.  0.
     999903    2    3    3    0    0 -0.36405048997E-01  0.12496135636E+00 -0.28668691633E-01  0.14083196018E+00  0.45509108470E-01 0.  0.
         14    1    1    2    0    0  0.12161233012E-01 -0.13870341773E-02  0.64954394476E-02  0.13856774004E-01  0.00000000000E+00 0. -1.
     999901    1    3    3    0    0  0.24243815985E-01 -0.12357432218E+00  0.22173252185E-01  0.88924126581E+00  0.88000000000E+00 0. -1.
        -11    1    4    4    0    0 -0.37409422891E-01  0.11761946197E+00 -0.13779934064E-01  0.12419319811E+00  0.51100000000E-03 0. -1.
         11    1    4    4    0    0  0.10043738941E-02  0.73418943908E-02 -0.14888757569E-01  0.16638762067E-01  0.51100000000E-03 0.  1.
</event>
<event>
 8    1  0.2077555E+004  0.1043930E+01  0.7957747E-01            NaN
         13   -1    0    0    0    0  0.00000000000E+00  0.00000000000E+00  0.74505805969E-08  0.10566000000E+00  0.10566000000E+00 0.  1.
     999900   -1    0    0    0    0 -0.00000000000E+00 -0.00000000000E+00 -0.74505805969E-08  0.93827000000E+00  0.93827000000E+00 0.  1.
     999902    2    1    2    0    0  0.14357196275E-01 -0.54119817915E-02 -0.54268951761E-02  0.10276551782E+01  0.10275262992E+01 0.  0.
     999903    2    3    3    0    0  0.13525504374E-01 -0.38373990490E-01  0.12527075295E+00  0.13739169986E+00  0.39092393526E-01 0.  0.
         14    1    1    2    0    0 -0.14357196275E-01  0.54119817915E-02  0.54268951761E-02  0.16274821751E-01  0.00000000000E+00 0.  1.
     999901    1    3    3    0    0  0.83169190067E-03  0.32962008699E-01 -0.13069764812E+00  0.89026347839E+00  0.88000000000E+00 0.  1.
        -11    1    4    4    0    0  0.58497964470E-02 -0.29727942903E-01  0.34633481978E-01  0.46018582145E-01  0.51100000000E-03 0. -1.
         11    1    4    4    0    0  0.76757079273E-02 -0.86460475869E-02  0.90637270969E-01  0.91373117714E-01  0.51100000000E-03 0.  1.
</event>
<event>
 8    1  0.2077555E+004  0.1043930E+01  0.7957747E-01            NaN
         13   -1    0    0    0    0  0.00000000000E+00  0.00000000000E+00  0.74505805969E-08  0.10566000000E+00  0.10566000000E+00 0.  1.
     999900   -1    0    0    0    0 -0.00000000000E+00 -0.00000000000E+00 -0.74505805969E-08  0.93827000000E+00  0.93827000000E+00 0. -1.
     999902    2    1    2    0    0 -0.10932990049E-01  0.71128051463E-02  0.50217765440E-02  0.10299535731E+01  0.10298587390E+01 0.  0.
     999903    2    3    3    0    0 -0.12353631384E+00 -0.44833113433E-01  0.24304221259E-01  0.14104992275E+00  0.45090538252E-01 0.  0.
         14    1    1    2    0    0  0.10932990049E-01 -0.71128051463E-02 -0.50217765440E-02  0.13976426872E-01  0.00000000000E+00 0. -1.
     999901    1    3    3    0    0  0.11260332379E+00  0.51945918579E-01 -0.19282444715E-01  0.88890365038E+00  0.88000000000E+00 0. -1.
        -11    1    4    4    0    0 -0.89552738206E-01 -0.34916269652E-01 -0.32675429242E-02  0.96175759754E-01  0.51100000000E-03 0. -1.
         11    1    4    4    0    0 -0.33983575630E-01 -0.99168437814E-02  0.27571764183E-01  0.44874162994E-01  0.51100000000E-03 0.  1.
</event>
<event>
 8    1  0.2077555E+004  0.1043930E+01  0.7957747E-01            NaN
         13   -1    0    0    0    0  0.00000000000E+00  0.00000000000E+00  0.74505805969E-08  0.10566000000E+00  0.10566000000E+00 0. -1.
     999900   -1    0    0    0    0 -0.00000000000E+00 -0.00000000000E+00 -0.74505805969E-08  0.93827000000E+00  0.93827000000E+00 0.  1.
     999902    2    1    2    0    0  0.85615989369E-02  0.10473698519E-01  0.13898711531E-02  0.10303310633E+01  0.10302413159E+01 0.  0.
     999903    2    3    3    0    0  0.10809795495E+00 -0.37265991713E-01 -0.68639231367E-01  0.14067346660E+00  0.44763356890E-01 0.  0.
         14    1    1    2    0    0 -0.85615989369E-02 -0.10473698519E-01 -0.13898711531E-02  0.13598936681E-01  0.00000000000E+00 0.  1.
     999901    1    3    3    0    0 -0.99536356018E-01  0.47739690232E-01  0.70029102520E-01  0.88965759671E+00  0.88000000000E+00 0. -1.
        -11    1    4    4    0    0  0.32973354446E-01 -0.18401512593E-01 -0.90218375055E-03  0.37774764402E-01  0.51100000000E-03 0.  1.
         11    1    4    4    0    0  0.75124600509E-01 -0.18864479120E-01 -0.67737047616E-01  0.10289870220E+00  0.51100000000E-03 0. -1.
</event>
<event>
 8    1  0.2077555E+004  0.1043930E+01  0.7957747E-01            NaN
         13   -1    0    0    0    0  0.00000000000E+00  0.00000000000E+00  0.74505805969E-08  0.10566000000E+00  0.10566000000E+00 0.  1.
     999900   -1    0    0    0    0 -0.00000000000E+00 -0.00000000000E+00 -0.74505805969E-08  0.93827000000E+00  0.93827000000E+00 0.  1.
     999902    2    1    2    0    0  0.44200267417E-02  0.10008802039E-03 -0.13214690911E-01  0.10299953414E+01  0.10299010771E+01 0.  0.
     999903    2    3    3    0    0 -0.84342851939E-01  0.12959312029E-03  0.10014143418E+00  0.13829558219E+00  0.44537936046E-01 0.  0.
         14    1    1    2    0    0 -0.44200267417E-02 -0.10008802039E-03  0.13214690911E-01  0.13934658585E-01  0.00000000000E+00 0.  1.
     999901    1    3    3    0    0  0.88762878681E-01 -0.29505099900E-04 -0.11335612509E+00  0.89169975922E+00  0.88000000000E+00 0.  1.
        -11    1    4    4    0    0 -0.59343738373E-01  0.20297304899E-01  0.72970373486E-01  0.96221600475E-01  0.51100000000E-03 0. -1.
         11    1    4    4    0    0 -0.24999113566E-01 -0.20167711779E-01  0.27171060691E-01  0.42073981718E-01  0.51100000000E-03 0.  1.
</event>
<event>
 8    1  0.2077555E+004  0.1043930E+01  0.7957747E-01            NaN
         13   -1    0    0    0    0  0.00000000000E+00  0.00000000000E+00  0.74505805969E-08  0.10566000000E+00  0.10566000000E+00 0.  1.
     999900   -1    0    0    0    0 -0.00000000000E+00 -0.00000000000E+00 -0.74505805969E-08  0.93827000000E+00  0.93827000000E+00 0.  1.
     999902    2    1    2    0    0 -0.42232873324E-02  0.12212686527E-01 -0.73875501000E-02  0.10290450491E+01  0.10289373894E+01 0.  0.
     999903    2    3    3    0    0  0.40154638500E-01 -0.11324975219E+00  0.48469438899E-01  0.13728822848E+00  0.45396803938E-01 0.  0.
         14    1    1    2    0    0  0.42232873324E-02 -0.12212686527E-01  0.73875501000E-02  0.14884950943E-01  0.00000000000E+00 0.  1.
     999901    1    3    3    0    0 -0.44377925832E-01  0.12546243871E+00 -0.55856988999E-01  0.89175682058E+00  0.88000000000E+00 0.  1.
        -11    1    4    4    0    0  0.10602037184E-01 -0.61956418918E-01  0.46261249497E-01  0.78047199589E-01  0.51100000000E-03 0. -1.
         11    1    4    4    0    0  0.29552601316E-01 -0.51293333269E-01  0.22081894022E-02  0.59241028889E-01  0.51100000000E-03 0.  1.
</event>
<event>
 8    1  0.2077555E+004  0.1043930E+01  0.7957747E-01            NaN
         13   -1    0    0    0    0  0.00000000000E+00  0.00000000000E+00  0.74505805969E-08  0.10566000000E+00  0.10566000000E+00 0.  1.
     999900   -1    0    0    0    0 -0.00000000000E+00 -0.00000000000E+00 -0.74505805969E-08  0.93827000000E+00  0.93827000000E+00 0. -1.
     999902    2    1    2    0    0 -0.14136655923E-01 -0.14643807951E-02 -0.47081916494E-02  0.10289581424E+01  0.10288492126E+01 0.  0.
     999903    2    3    3    0    0 -0.69359077661E-01 -0.80205960899E-02 -0.11350134143E+00  0.14051655778E+00  0.44579556827E-01 0.  0.
         14    1    1    2    0    0  0.14136655923E-01  0.14643807951E-02  0.47081916494E-02  0.14971857614E-01  0.00000000000E+00 0.  1.
     999901    1    3    3    0    0  0.55222421738E-01  0.65562152948E-02  0.10879314978E+00  0.88844158461E+00  0.88000000000E+00 0.  1.
        -11    1    4    4    0    0 -0.19162615426E-01 -0.18382147826E-01 -0.63854212087E-01  0.69157289644E-01  0.51100000000E-03 0.  1.
         11    1    4    4    0    0 -0.50196462234E-01  0.10361551736E-01 -0.49647129347E-01  0.71359268134E-01  0.51100000000E-03 0. -1.
</event>
<event>
 8    1  0.2077555E+004  0.1043930E+01  0.7957747E-01            NaN
         13   -1    0    0    0    0  0.00000000000E+00  0.00000000000E+00  0.74505805969E-08  0.10566000000E+00  0.10566000000E+00 0.  1.
     999900   -1    0    0    0    0 -0.00000000000E+00 -0.00000000000E+00 -0.74505805969E-08  0.93827000000E+00  0.93827000000E+00 0.  1.
     999902    2    1    2    0    0 -0.44714257924E-02 -0.12662650165E-01  0.25039748639E-02  0.10302696103E+01  0.10301790444E+01 0.  0.
     999903    2    3    3    0    0  0.66426428783E-01  0.78124310963E-01  0.82693502589E-01  0.13914720651E+00  0.44809053839E-01 0.  0.
         14    1    1    2    0    0  0.44714257924E-02  0.12662650165E-01 -0.25039748639E-02  0.13660389744E-01  0.00000000000E+00 0. -1.
     999901    1    3    3    0    0 -0.70897854575E-01 -0.90786961128E-01 -0.80189527726E-01  0.89112240374E+00  0.88000000000E+00 0.  1.
        -11    1    4    4    0    0  0.16503753713E-02  0.28385065053E-01  0.32929176215E-01  0.43508934992E-01  0.51100000000E-03 0. -1.
         11    1    4    4    0    0  0.64776053412E-01  0.49739245909E-01  0.49764326375E-01  0.95638271522E-01  0.51100000000E-03 0.  1.
</event>
<event>
 8    1  0.2077555E+004  0.1043930E+01  0.7957747E-01            NaN
         13   -1    0    0    0    0  0.00000000000E+00  0.00000000000E+00  0.74505805969E-08  0.10566000000E+00  0.10566000000E+00 0.  1.
     999900   -1    0    0    0    0 -0.00000000000E+00 -0.00000000000E+00 -0.74505805969E-08  0.93827000000E+00  0.93827000000E+00 0.  1.
     999902    2    1    2    0    0  0.41424916132E-02 -0.12197833269E-01  0.55123749970E-02  0.10299180889E+01  0.10298227694E+01 0.  0.
     999903    2    3    3    0    0  0.49827042583E-01 -0.97486309107E-01  0.77861196251E-01  0.14166387182E+00  0.44944099295E-01 0.  0.
         14    1    1    2    0    0 -0.41424916132E-02  0.12197833269E-01 -0.55123749970E-02  0.14011911052E-01  0.00000000000E+00 0. -1.
     999901    1    3    3    0    0 -0.45684550970E-01  0.85288475838E-01 -0.72348821254E-01  0.88825421713E+00  0.88000000000E+00 0. -1.
        -11    1    4    4    0    0  0.51442061572E-02 -0.35814348718E-01  0.47412282451E-01  0.59643240013E-01  0.51100000000E-03 0. -1.
         11    1    4    4    0    0  0.44682836426E-01 -0.61671960389E-01  0.30448913800E-01  0.82020631807E-01  0.51100000000E-03 0.  1.
</event>
<event>
 8    1  0.2077555E+004  0.1043930E+01  0.7957747E-01            NaN
         13   -1    0    0    0    0  0.00000000000E+00  0.00000000000E+00  0.74505805969E-08  0.10566000000E+00  0.10566000000E+00 0. -1.
     999900   -1    0    0    0    0 -0.00000000000E+00 -0.00000000000E+00 -0.74505805969E-08  0.93827000000E+00  0.93827000000E+00 0. -1.
     999902    2    1    2    0    0 -0.21391914480E-02  0.10982061945E-01  0.65153301021E-02  0.10309827474E+01  0.10309014473E+01 0.  0.
     999903    2    3    3    0    0  0.49700918202E-01  0.12237945130E+00  0.26154916607E-01  0.14222941337E+00  0.45806276779E-01 0.  0.
         14    1    1    2    0    0  0.21391914480E-02 -0.10982061945E-01 -0.65153301021E-02  0.12947252641E-01  0.00000000000E+00 0.  1.
     999901    1    3    3    0    0 -0.51840109650E-01 -0.11139738936E+00 -0.19639586505E-01  0.88875333399E+00  0.88000000000E+00 0. -1.
        -11    1    4    4    0    0  0.27301891120E-01  0.10332928494E+00  0.69440805254E-02  0.10710189428E+00  0.51100000000E-03 0. -1.
         11    1    4    4    0    0  0.22399027082E-01  0.19050166368E-01  0.19210836082E-01  0.35127519082E-01  0.51100000000E-03 0.  1.
</event>
<event>
 8    1  0.2077555E+004  0.1043930E+01  0.7957747E-01            NaN
         13   -1    0    0    0    0  0.00000000000E+00  0.00000000000E+00  0.74505805969E-08  0.10566000000E+00  0.10566000000E+00 0.  1.
     999900   -1    0    0    0    0 -0.00000000000E+00 -0.00000000000E+00 -0.74505805969E-08  0.93827000000E+00  0.93827000000E+00 0.  1.
     999902    2    1    2    0    0  0.16297207862E-01 -0.34994429400E-02 -0.38571629105E-02  0.10268208565E+01  0.10266783082E+01 0.  0.
     999903    2    3    3    0    0 -0.45200493479E-01 -0.47469421230E-01 -0.11194656098E+00  0.13699017361E+00  0.44020956257E-01 0.  0.
         14    1    1    2    0    0 -0.16297207862E-01  0.34994429400E-02  0.38571629105E-02  0.17109143482E-01  0.00000000000E+00 0.  1.
     999901    1    3    3    0    0  0.61497701341E-01  0.43969978290E-01  0.10808939807E+00  0.88983068290E+00  0.88000000000E+00 0. -1.
        -11    1    4    4    0    0 -0.12439530699E-01 -0.13332540472E-01 -0.33685826691E-02  0.18550122093E-01  0.51100000000E-03 0. -1.
         11    1    4    4    0    0 -0.32760962780E-01 -0.34136880758E-01 -0.10857797831E+00  0.11844005152E+00  0.51100000000E-03 0.  1.
</event>
<event>
 8    1  0.2077555E+004  0.1043930E+01  0.7957747E-01            NaN
         13   -1    0    0    0    0  0.00000000000E+00  0.00000000000E+00  0.74505805969E-08  0.10566000000E+00  0.10566000000E+00 0. -1.
     999900   -1    0    0    0    0 -0.00000000000E+00 -0.00000000000E+00 -0.74505805969E-08  0.93827000000E+00  0.93827000000E+00 0. -1.
     999902    2    1    2    0    0  0.91422144309E-02 -0.63082440260E-02  0.94266189250E-02  0.10293617066E+01  0.10292586108E+01 0.  0.
     999903    2    3    3    0    0 -0.72437142091E-01 -0.76687935236E-01  0.80487058657E-01  0.13994724844E+00  0.44484680159E-01 0.  0.
         14    1    1    2    0    0 -0.91422144309E-02  0.63082440260E-02 -0.94266189250E-02  0.14568293371E-01  0.00000000000E+00 0.  1.
     999901    1    3    3    0    0  0.81579356522E-01  0.70379691210E-01 -0.71060439732E-01  0.88941445819E+00  0.88000000000E+00 0. -1.
        -11    1    4    4    0    0 -0.25109821547E-01 -0.43779854777E-01  0.60828181090E-01  0.79041176346E-01  0.51100000000E-03 0. -1.
         11    1    4    4    0    0 -0.47327320544E-01 -0.32908080459E-01  0.19658877566E-01  0.60906072091E-01  0.51100000000E-03 0.  1.
</event>
<event>
 8    1  0.2077555E+004  0.1043930E+01  0.7957747E-01            NaN
         13   -1    0    0    0    0  0.00000000000E+00  0.00000000000E+00  0.74505805969E-08  0.10566000000E+00  0.10566000000E+00 0. -1.
     999900   -1    0    0    0    0 -0.00000000000E+00 -0.00000000000E+00 -0.74505805969E-08  0.93827000000E+00  0.93827000000E+00 0.  1.
     999902    2    1    2    0    0 -0.68761510898E-02 -0.12369141805E-01 -0.80367854622E-02  0.10276552636E+01  0.10275263860E+01 0.  0.
     999903    2    3    3    0    0 -0.40384180495E-01  0.19129496225E-01  0.12146117206E+00  0.13698996555E+00  0.44906733157E-01 0.  0.
         14    1    1    2    0    0  0.68761510898E-02  0.12369141805E-01  0.80367854622E-02  0.16274736354E-01  0.00000000000E+00 0. -1.
     999901    1    3    3    0    0  0.33508029405E-01 -0.31498638031E-01 -0.12949795752E+00  0.89066529810E+00  0.88000000000E+00 0.  1.
        -11    1    4    4    0    0 -0.17513412453E-01  0.27994825560E-01  0.39772974410E-01  0.51697006570E-01  0.51100000000E-03 0. -1.
         11    1    4    4    0    0 -0.22870768041E-01 -0.88653293349E-02  0.81688197650E-01  0.85292958979E-01  0.51100000000E-03 0.  1.
</event>
<event>
 8    1  0.2077555E+004  0.1043930E+01  0.7957747E-01            NaN
         13   -1    0    0    0    0  0.00000000000E+00  0.00000000000E+00  0.74505805969E-08  0.10566000000E+00  0.10566000000E+00 0.  1.
     999900   -1    0    0    0    0 -0.00000000000E+00 -0.00000000000E+00 -0.74505805969E-08  0.93827000000E+00  0.93827000000E+00 0. -1.
     999902    2    1    2    0    0  0.44982928600E-03 -0.12101292425E-01  0.60097122782E-02  0.10304111145E+01  0.10303224275E+01 0.  0.
     999903    2    3    3    0    0  0.63105482904E-01 -0.11083933552E+00 -0.42254141304E-01  0.14136424750E+00  0.43940616081E-01 0.  0.
         14    1    1    2    0    0 -0.44982928600E-03  0.12101292425E-01 -0.60097122782E-02  0.13518885546E-01  0.00000000000E+00 0.  1.
     999901    1    3    3    0    0 -0.62655653618E-01  0.98738043096E-01  0.48263853582E-01  0.88904686696E+00  0.88000000000E+00 0.  1.
        -11    1    4    4    0    0  0.56917366478E-01 -0.65538853182E-01 -0.14877902508E-01  0.88071226784E-01  0.51100000000E-03 0.  1.
         11    1    4    4    0    0  0.61881164259E-02 -0.45300482338E-01 -0.27376238796E-01  0.53293020712E-01  0.51100000000E-03 0. -1.
</event>
<event>
 8    1  0.2077555E+004  0.1043930E+01  0.7957747E-01            NaN
         13   -1    0    0    0    0  0.00000000000E+00  0.00000000000E+00  0.74505805969E-08  0.10566000000E+00  0.10566000000E+00 0.  1.
     999900   -1    0    0    0    0 -0.00000000000E+00 -0.00000000000E+00 -0.74505805969E-08  0.93827000000E+00  0.93827000000E+00 0. -1.
     999902    2    1    2    0    0 -0.96798444045E-02 -0.83734194560E-02  0.37064247400E-02  0.10306051688E+01  0.10305190260E+01 0.  0.
     999903    2    3    3    0    0 -0.12785307695E+00  0.37305191406E-01 -0.79924193777E-02  0.14145483772E+00  0.46984101100E-01 0.  0.
         14    1    1    2    0    0  0.96798444045E-02  0.83734194560E-02 -0.37064247400E-02  0.13324831160E-01  0.00000000000E+00 0.  1.
     999901    1    3    3    0    0  0.11817323254E+00 -0.45678610862E-01  0.11698844118E-01  0.88915033112E+00  0.88000000000E+00 0. -1.
        -11    1    4    4    0    0 -0.20114965750E-01  0.17890626687E-01 -0.16619176421E-01  0.31640867818E-01  0.51100000000E-03 0. -1.
         11    1    4    4    0    0 -0.10773811120E+00  0.19414564720E-01  0.86267570433E-02  0.10981396990E+00  0.51100000000E-03 0.  1.
</event>
<event>
 8    1  0.2077555E+004  0.1043930E+01  0.7957747E-01            NaN
         13   -1    0    0    0    0  0.00000000000E+00  0.00000000000E+00  0.74505805969E-08  0.10566000000E+00  0.10566000000E+00 0.  1.
     999900   -1    0    0    0    0 -0.00000000000E+00 -0.00000000000E+00 -0.74505805969E-08  0.93827000000E+00  0.93827000000E+00 0. -1.
     999902    2    1    2    0    0 -0.15032495005E-02 -0.14217070533E-01  0.64813452010E-03  0.10296189926E+01  0.10295195312E+01 0.  0.
     999903    2    3    3    0    0  0.16488527985E-01 -0.29123455422E-01 -0.12806444509E+00  0.13994892316E+00  0.45443941144E-01 0.  0.
         14    1    1    2    0    0  0.15032495005E-02  0.14217070533E-01 -0.64813452010E-03  0.14311007370E-01  0.00000000000E+00 0. -1.
     999901    1    3    3    0    0 -0.17991777486E-01  0.14906384890E-01  0.12871257961E+00  0.88967006947E+00  0.88000000000E+00 0.  1.
        -11    1    4    4    0    0 -0.42858889191E-02  0.10679805324E-01 -0.24779732220E-01  0.27326238956E-01  0.51100000000E-03 0. -1.
         11    1    4    4    0    0  0.20774416905E-01 -0.39803260747E-01 -0.10328471287E+00  0.11262268420E+00  0.51100000000E-03 0.  1.
</event>
<event>
 8    1  0.2077555E+004  0.1043930E+01  0.7957747E-01            NaN
         13   -1    0    0    0    0  0.00000000000E+00  0.00000000000E+00  0.74505805969E-08  0.10566000000E+00  0.10566000000E+00 0.  1.
     999900   -1    0    0    0    0 -0.00000000000E+00 -0.00000000000E+00 -0.74505805969E-08  0.93827000000E+00  0.93827000000E+00 0. -1.
     999902    2    1    2    0    0 -0.47472591440E-02 -0.77497690357E-02  0.11176746432E-01  0.10295246173E+01  0.10294238304E+01 0.  0.
     999903    2    3    3    0    0  0.93069950595E-01 -0.36009630166E-02  0.95090902705E-01  0.14012762793E+00  0.43800567260E-01 0.  0.
         14    1    1    2    0    0  0.47472591440E-02  0.77497690357E-02 -0.11176746432E-01  0.14405382685E-01  0.00000000000E+00 0. -1.
     999901    1    3    3    0    0 -0.97817209739E-01 -0.41488060191E-02 -0.83914156272E-01  0.88939698939E+00  0.88000000000E+00 0. -1.
        -11    1    4    4    0    0  0.55431995040E-01  0.16603399493E-01  0.39702334283E-01  0.70177741609E-01  0.51100000000E-03 0. -1.
         11    1    4    4    0    0  0.37637955555E-01 -0.20204362510E-01  0.55388568422E-01  0.69949886316E-01  0.51100000000E-03 0.  1.
</event>
<event>
 8    1  0.2077555E+004  0.1043930E+01  0.7957747E-01            NaN
         13   -1    0    0    0    0  0.00000000000E+00  0.00000000000E+00  0.74505805969E-08  0.10566000000E+00  0.10566000000E+00 0.  1.
     999900   -1    0    0    0    0 -0.00000000000E+00 -0.00000000000E+00 -0.74505805969E-08  0.93827000000E+00  0.93827000000E+00 0.  1.
     999902    2    1    2    0    0 -0.11457094907E-01  0.38113008025E-02 -0.73478775890E-02  0.10297955618E+01  0.10296985563E+01 0.  0.
     999903    2    3    3    0    0 -0.98185769695E-01 -0.50835116619E-01  0.73638829010E-01  0.14015128425E+00  0.44665992516E-01 0.  0.
         14    1    1    2    0    0  0.11457094907E-01 -0.38113008025E-02  0.73478775890E-02  0.14134438177E-01  0.00000000000E+00 0. -1.
     999901    1    3    3    0    0  0.86728674789E-01  0.54646417421E-01 -0.80986706599E-01  0.88964427757E+00  0.88000000000E+00 0. -1.
        -11    1    4    4    0    0 -0.46497739886E-01 -0.28058279963E-01  0.10289816620E-01  0.55276109994E-01  0.51100000000E-03 0.  1.
         11    1    4    4    0    0 -0.51688029809E-01 -0.22776836655E-01  0.63349012391E-01  0.84875174259E-01  0.51100000000E-03 0. -1.
</event>
<event>
 8    1  0.2077555E+004  0.1043930E+01  0.7957747E-01            NaN
         13   -1    0    0    0    0  0.00000000000E+00  0.00000000000E+00  0.74505805969E-08  0.10566000000E+00  0.10566000000E+00 0. -1.
     999900   -1    0    0    0    0 -0.00000000000E+00 -0.00000000000E+00 -0.74505805969E-08  0.93827000000E+00  0.93827000000E+00 0. -1.
     999902    2    1    2    0    0  0.65132554644E-02 -0.12047652047E-01 -0.53274187483E-02  0.10292347692E+01  0.10291298559E+01 0.  0.
     999903    2    3    3    0    0  0.62228074850E-01  0.48901428448E-01  0.10395516245E+00  0.13863855654E+00  0.46371225524E-01 0.  0.
         14    1    1    2    0    0 -0.65132554644E-02  0.12047652047E-01  0.53274187483E-02  0.14695230761E-01  0.00000000000E+00 0. -1.
     999901    1    3    3    0    0 -0.55714819386E-01 -0.60949080495E-01 -0.10928258120E+00  0.89059621269E+00  0.88000000000E+00 0. -1.
        -11    1    4    4    0    0  0.23997926695E-02  0.70297789682E-02  0.42636875944E-01  0.43282110721E-01  0.51100000000E-03 0. -1.
         11    1    4    4    0    0  0.59828282181E-01  0.41871649479E-01  0.61318286508E-01  0.95356445823E-01  0.51100000000E-03 0.  1.
</event>
<event>
 8    1  0.2077555E+004  0.1043930E+01  0.7957747E-01            NaN
         13   -1    0    0    0    0  0.00000000000E+00  0.00000000000E+00  0.74505805969E-08  0.10566000000E+00  0.10566000000E+00 0. -1.
     999900   -1    0    0    0    0 -0.00000000000E+00 -0.00000000000E+00 -0.74505805969E-08  0.93827000000E+00  0.93827000000E+00 0. -1.
     999902    2    1    2    0    0  0.99305718301E-02  0.92408937333E-02  0.13074363663E-02  0.10303020961E+01  0.10302119634E+01 0.  0.
     999903    2    3    3    0    0  0.10132800179E+00 -0.34759268019E-01  0.79680143191E-01  0.14101486154E+00  0.45394881842E-01 0.  0.
         14    1    1    2    0    0 -0.99305718301E-02 -0.92408937333E-02 -0.13074363663E-02  0.13627903864E-01  0.00000000000E+00 0. -1.
     999901    1    3    3    0    0 -0.91397429958E-01  0.44000161752E-01 -0.78372706824E-01  0.88928723459E+00  0.88000000000E+00 0.  1.
        -11    1    4    4    0    0  0.37275022739E-01 -0.73165358847E-02  0.55492247048E-01  0.67250350341E-01  0.51100000000E-03 0.  1.
         11    1    4    4    0    0  0.64052979049E-01 -0.27442732134E-01  0.24187896143E-01  0.73764511202E-01  0.51100000000E-03 0. -1.
</event>
<event>
 7    1  0.2077555E+004  0.1043930E+01  0.7957747E-01            NaN
         13   -1    0    0    0    0  0.00000000000E+00  0.00000000000E+00  0.74505805969E-08  0.10566000000E+00  0.10566000000E+00 0. -1.
     999900   -1    0    0    0    0 -0.00000000000E+00 -0.00000000000E+00 -0.74505805969E-08  0.93827000000E+00  0.93827000000E+00 0.  1.
     999903    2    1    2    0    0  0.47667831411E-01 -0.29537781693E-02 -0.98327534267E-02  0.65542981885E-01  0.43797859280E-01 0.  0.
         14    1    1    2    0    0  0.52938519494E-01  0.57940612473E-02 -0.71243013032E-01  0.88947315293E-01  0.00000000000E+00 0. -1.
     999901    1    1    2    0    0 -0.10060635090E+00 -0.28402830780E-02  0.81075766458E-01  0.88943970282E+00  0.88000000000E+00 0. -1.
        -11    1    3    3    0    0 -0.43919569594E-03  0.11793465810E-01  0.53718233597E-02  0.12976761379E-01  0.51100000000E-03 0. -1.
         11    1    3    3    0    0  0.48107027107E-01 -0.14747243979E-01 -0.15204576786E-01  0.52566220506E-01  0.51100000000E-03 0.  1.
</event>
<event>
 8    1  0.2077555E+004  0.1043930E+01  0.7957747E-01            NaN
         13   -1    0    0    0    0  0.00000000000E+00  0.00000000000E+00  0.74505805969E-08  0.10566000000E+00  0.10566000000E+00 0.  1.
     999900   -1    0    0    0    0 -0.00000000000E+00 -0.00000000000E+00 -0.74505805969E-08  0.93827000000E+00  0.93827000000E+00 0.  1.
     999902    2    1    2    0    0 -0.86787654758E-02  0.73501330669E-02 -0.88160696219E-02  0.10295401247E+01  0.10294395562E+01 0.  0.
     999903    2    3    3    0    0 -0.21648764412E-01 -0.52222120231E-01 -0.12045596602E+00  0.14039416333E+00  0.44777924304E-01 0.  0.
         14    1    1    2    0    0  0.86787654758E-02 -0.73501330669E-02  0.88160696219E-02  0.14389875255E-01  0.00000000000E+00 0.  1.
     999901    1    3    3    0    0  0.12969998936E-01  0.59572253298E-01  0.11163989640E+00  0.88914596142E+00  0.88000000000E+00 0. -1.
        -11    1    4    4    0    0 -0.18496544915E-01 -0.47118965751E-01 -0.55340467898E-01  0.75000984096E-01  0.51100000000E-03 0. -1.
         11    1    4    4    0    0 -0.31522194964E-02 -0.51031544795E-02 -0.65115498122E-01  0.65393179232E-01  0.51100000000E-03 0.  1.
</event>
<event>
 8    1  0.2077555E+004  0.1043930E+01  0.7957747E-01            NaN
         13   -1    0    0    0    0  0.00000000000E+00  0.00000000000E+00  0.74505805969E-08  0.10566000000E+00  0.10566000000E+00 0. -1.
     999900   -1    0    0    0    0 -0.00000000000E+00 -0.00000000000E+00 -0.74505805969E-08  0.93827000000E+00  0.93827000000E+00 0.  1.
     999902    2    1    2    0    0  0.82491138294E-02 -0.93550131104E-02 -0.46600942242E-02  0.10306153229E+01  0.10305293121E+01 0.  0.
     999903    2    3    3    0    0  0.51632769482E-01  0.19350376560E-01 -0.12036025685E+00  0.14151877658E+00  0.50005927022E-01 0.  0.
         14    1    1    2    0    0 -0.82491138294E-02  0.93550131104E-02  0.46600942242E-02  0.13314677144E-01  0.00000000000E+00 0.  1.
     999901    1    3    3    0    0 -0.43383655653E-01 -0.28705389670E-01  0.11570016263E+00  0.88909654628E+00  0.88000000000E+00 0.  1.
        -11    1    4    4    0    0  0.52896487749E-01  0.23565686867E-02 -0.66393453664E-01  0.84923163169E-01  0.51100000000E-03 0. -1.
         11    1    4    4    0    0 -0.12637182665E-02  0.16993807873E-01 -0.53966803186E-01  0.56595613408E-01  0.51100000000E-03 0.  1.
</event>
<event>
 8    1  0.2077555E+004  0.1043930E+01  0.7957747E-01            NaN
         13   -1    0    0    0    0  0.00000000000E+00  0.00000000000E+00  0.74505805969E-08  0.10566000000E+00  0.10566000000E+00 0.  1.
     999900   -1    0    0    0    0 -0.00000000000E+00 -0.00000000000E+00 -0.74505805969E-08  0.93827000000E+00  0.93827000000E+00 0. -1.
     999902    2    1    2    0    0  0.12306273799E-01  0.40218154873E-03 -0.50324898319E-02  0.10306284182E+01  0.10305425776E+01 0.  0.
     999903    2    3    3    0    0  0.32578392531E-02  0.36032745873E-01  0.12759776890E+00  0.13993082820E+00  0.44614725810E-01 0.  0.
         14    1    1    2    0    0 -0.12306273799E-01 -0.40218154873E-03  0.50324898319E-02  0.13301581813E-01  0.00000000000E+00 0. -1.
     999901    1    3    3    0    0  0.90484345457E-02 -0.35630564325E-01 -0.13263025874E+00  0.89069758999E+00  0.88000000000E+00 0. -1.
        -11    1    4    4    0    0 -0.15319059667E-01  0.10562833536E-01  0.84531653018E-01  0.86556966931E-01  0.51100000000E-03 0.  1.
         11    1    4    4    0    0  0.18576898921E-01  0.25469912337E-01  0.43066115885E-01  0.53373861266E-01  0.51100000000E-03 0. -1.
</event>
<event>
 8    1  0.2077555E+004  0.1043930E+01  0.7957747E-01            NaN
         13   -1    0    0    0    0  0.00000000000E+00  0.00000000000E+00  0.74505805969E-08  0.10566000000E+00  0.10566000000E+00 0. -1.
     999900   -1    0    0    0    0 -0.00000000000E+00 -0.00000000000E+00 -0.74505805969E-08  0.93827000000E+00  0.93827000000E+00 0. -1.
     999902    2    1    2    0    0  0.10849082241E-01 -0.42862664874E-02  0.83847599857E-02  0.10295641075E+01  0.10294638763E+01 0.  0.
     999903    2    3    3    0    0  0.72223566333E-01 -0.98359250880E-02  0.11223154833E+00  0.14131764318E+00  0.45406683197E-01 0.  0.
         14    1    1    2    0    0 -0.10849082241E-01  0.42862664874E-02 -0.83847599857E-02  0.14365892450E-01  0.00000000000E+00 0.  1.
     999901    1    3    3    0    0 -0.61374484092E-01  0.55496586006E-02 -0.10384678834E+00  0.88824646437E+00  0.88000000000E+00 0. -1.
        -11    1    4    4    0    0  0.58924803339E-01 -0.83132708990E-02  0.50199033294E-01  0.77855295171E-01  0.51100000000E-03 0.  1.
         11    1    4    4    0    0  0.13298762994E-01 -0.15226541890E-02  0.62032515033E-01  0.63462348013E-01  0.51100000000E-03 0. -1.
</event>
<event>
 8    1  0.2077555E+004  0.1043930E+01  0.7957747E-01            NaN
         13   -1    0    0    0    0  0.00000000000E+00  0.00000000000E+00  0.74505805969E-08  0.10566000000E+00  0.10566000000E+00 0.  1.
     999900   -1    0    0    0    0 -0.00000000000E+00 -0.00000000000E+00 -0.74505805969E-08  0.93827000000E+00  0.93827000000E+00 0. -1.
     999902    2    1    2    0    0  0.12897478021E-02  0.11839708326E-01 -0.72594115877E-02  0.10299821973E+01  0.10298877539E+01 0.  0.
     999903    2    3    3    0    0 -0.25770950689E-01 -0.61417206983E-01  0.11299924641E+00  0.13837634166E+00  0.44079099702E-01 0.  0.
         14    1    1    2    0    0 -0.12897478021E-02 -0.11839708326E-01  0.72594115877E-02  0.13947802667E-01  0.00000000000E+00 0.  1.
     999901    1    3    3    0    0  0.27060698491E-01  0.73256915309E-01 -0.12025865799E+00  0.89160585567E+00  0.88000000000E+00 0.  1.
        -11    1    4    4    0    0  0.12112035846E-01 -0.10708435147E-01  0.28883402927E-01  0.33104139941E-01  0.51100000000E-03 0. -1.
         11    1    4    4    0    0 -0.37882986535E-01 -0.50708771836E-01  0.84115843479E-01  0.10527220172E+00  0.51100000000E-03 0.  1.
</event>
<event>
 7    1  0.2077555E+004  0.1043930E+01  0.7957747E-01            NaN
         13   -1    0    0    0    0  0.00000000000E+00  0.00000000000E+00  0.74505805969E-08  0.10566000000E+00  0.10566000000E+00 0. -1.
     999900   -1    0    0    0    0 -0.00000000000E+00 -0.00000000000E+00 -0.74505805969E-08  0.93827000000E+00  0.93827000000E+00 0. -1.
     999903    2    1    2    0    0  0.32158501928E-01  0.46994114858E-01 -0.81495189741E-01  0.10922376444E+00  0.45229953465E-01 0.  0.
         14    1    1    2    0    0  0.27390015433E-02 -0.21283375077E-01 -0.39910968348E-01  0.45314121183E-01  0.00000000000E+00 0.  1.
     999901    1    1    2    0    0 -0.34897503472E-01 -0.25710739781E-01  0.12140615809E+00  0.88939211437E+00  0.88000000000E+00 0.  1.
        -11    1    3    3    0    0  0.18879154461E-01  0.15246347063E-01 -0.68092725796E-01  0.72289376807E-01  0.51100000000E-03 0. -1.
         11    1    3    3    0    0  0.13279347467E-01  0.31747767796E-01 -0.13402463946E-01  0.36934387635E-01  0.51100000000E-03 0.  1.
</event>
<event>
 8    1  0.2077555E+004  0.1043930E+01  0.7957747E-01            NaN
         13   -1    0    0    0    0  0.00000000000E+00  0.00000000000E+00  0.74505805969E-08  0.10566000000E+00  0.10566000000E+00 0. -1.
     999900   -1    0    0    0    0 -0.00000000000E+00 -0.00000000000E+00 -0.74505805969E-08  0.93827000000E+00  0.93827000000E+00 0. -1.
     999902    2    1    2    0    0 -0.94335754286E-02 -0.29074119628E-02  0.77798460481E-02  0.10313613328E+01  0.10312847461E+01 0.  0.
     999903    2    3    3    0    0  0.80734145693E-01 -0.91052812891E-01  0.56892260842E-01  0.14101765823E+00  0.42902605650E-01 0.  0.
         14    1    1    2    0    0  0.94335754286E-02  0.29074119628E-02 -0.77798460481E-02  0.12568667162E-01  0.00000000000E+00 0.  1.
     999901    1    3    3    0    0 -0.90167721121E-01  0.88145400928E-01 -0.49112414793E-01  0.89034367461E+00  0.88000000000E+00 0.  1.
        -11    1    4    4    0    0  0.41378791499E-01 -0.16174504337E-01  0.20384231239E-01  0.48883504178E-01  0.51100000000E-03 0.  1.
         11    1    4    4    0    0  0.39355354194E-01 -0.74878308554E-01  0.36508029603E-01  0.92134154047E-01  0.51100000000E-03 0. -1.
</event>
<event>
 8    1  0.2077555E+004  0.1043930E+01  0.7957747E-01            NaN
         13   -1    0    0    0    0  0.00000000000E+00  0.00000000000E+00  0.74505805969E-08  0.10566000000E+00  0.10566000000E+00 0. -1.
     999900   -1    0    0    0    0 -0.00000000000E+00 -0.00000000000E+00 -0.74505805969E-08  0.93827000000E+00  0.93827000000E+00 0.  1.
     999902    2    1    2    0    0 -0.14707687110E-02 -0.40867610480E-02 -0.14921713726E-01  0.10283890117E+01  0.10282715775E+01 0.  0.
     999903    2    3    3    0    0 -0.25780180662E-01 -0.12722350949E+00 -0.23483265656E-01  0.13944193427E+00  0.45190155836E-01 0.  0.
         14    1    1    2    0    0  0.14707687110E-02  0.40867610480E-02  0.14921713726E-01  0.15540988289E-01  0.00000000000E+00 0.  1.
     999901    1    3    3    0    0  0.24309411951E-01  0.12313674844E+00  0.85615519302E-02  0.88894707744E+00  0.88000000000E+00 0. -1.
        -11    1    4    4    0    0 -0.22402142200E-01 -0.40504950173E-01  0.82826159857E-02  0.47025204010E-01  0.51100000000E-03 0. -1.
         11    1    4    4    0    0 -0.33780384616E-02 -0.86718559316E-01 -0.31765881642E-01  0.92416730256E-01  0.51100000000E-03 0.  1.
</event>
<event>
 8    1  0.2077555E+004  0.1043930E+01  0.7957747E-01            NaN
         13   -1    0    0    0    0  0.00000000000E+00  0.00000000000E+00  0.74505805969E-08  0.10566000000E+00  0.10566000000E+00 0. -1.
     999900   -1    0    0    0    0 -0.00000000000E+00 -0.00000000000E+00 -0.74505805969E-08  0.93827000000E+00  0.93827000000E+00 0. -1.
     999902    2    1    2    0    0  0.28188749014E-02  0.22279414335E-02  0.14922487269E-02  0.10400394236E+01  0.10400321466E+01 0.  0.
     999903    2    3    3    0    0 -0.59016626922E-01  0.41601442281E-01 -0.12478071081E+00  0.14800872781E+00  0.33506946516E-01 0.  0.
         14    1    1    2    0    0 -0.28188749014E-02 -0.22279414335E-02 -0.14922487269E-02  0.38905764360E-02  0.00000000000E+00 0.  1.
     999901    1    3    3    0    0  0.61835501824E-01 -0.39373500847E-01  0.12627295954E+00  0.89203069575E+00  0.88000000000E+00 0.  1.
        -11    1    4    4    0    0 -0.53755117614E-01  0.39097000564E-01 -0.12559725386E+00  0.14210249618E+00  0.51100000000E-03 0. -1.
         11    1    4    4    0    0 -0.52615093086E-02  0.25044417172E-02  0.81654304938E-03  0.59062316303E-02  0.51100000000E-03 0.  1.
</event>
<event>
 8    1  0.2442665E+004  0.1043930E+01  0.7957747E-01            NaN
         13   -1    0    0    0    0  0.00000000000E+00  0.00000000000E+00  0.74505805969E-08  0.10566000000E+00  0.10566000000E+00 0. -1.
     999900   -1    0    0    0    0 -0.00000000000E+00 -0.00000000000E+00 -0.74505805969E-08  0.93827000000E+00  0.93827000000E+00 0. -1.
     999902    2    1    2    0    0  0.34997959887E-02 -0.13319517658E-01  0.54551827587E-03  0.10301475578E+01  0.10300553554E+01 0.  0.
     999903    2    3    3    0    0 -0.35224484862E-01 -0.99965284346E-01 -0.81888278760E-01  0.14121427026E+00  0.44743239928E-01 0.  0.
         14    1    1    2    0    0 -0.34997959887E-02  0.13319517658E-01 -0.54551827587E-03  0.13782442193E-01  0.00000000000E+00 0. -1.
     999901    1    3    3    0    0  0.38724280851E-01  0.86645766688E-01  0.82433797036E-01  0.88893328755E+00  0.88000000000E+00 0.  1.
        -11    1    4    4    0    0 -0.39056214738E-01 -0.47280323192E-01 -0.52700626939E-01  0.80860584165E-01  0.51100000000E-03 0. -1.
         11    1    4    4    0    0  0.38317298763E-02 -0.52684961154E-01 -0.29187651821E-01  0.60353686097E-01  0.51100000000E-03 0.  1.
</event>
<event>
 8    1  0.2077555E+004  0.1043930E+01  0.7957747E-01            NaN
         13   -1    0    0    0    0  0.00000000000E+00  0.00000000000E+00  0.74505805969E-08  0.10566000000E+00  0.10566000000E+00 0.  1.
     999900   -1    0    0    0    0 -0.00000000000E+00 -0.00000000000E+00 -0.74505805969E-08  0.93827000000E+00  0.93827000000E+00 0. -1.
     999902    2    1    2    0    0 -0.54524870004E-02  0.89549949563E-02  0.89757938207E-02  0.10301283181E+01  0.10300358563E+01 0.  0.
     999903    2    3    3    0    0 -0.87474322992E-01  0.28797014679E-01 -0.95104280078E-01  0.13998566147E+00  0.45498748240E-01 0.  0.
         14    1    1    2    0    0  0.54524870004E-02 -0.89549949563E-02 -0.89757938207E-02  0.13801681922E-01  0.00000000000E+00 0. -1.
     999901    1    3    3    0    0  0.82021835992E-01 -0.19842019722E-01  0.10408007390E+00  0.89014265661E+00  0.88000000000E+00 0.  1.
        -11    1    4    4    0    0 -0.55312181232E-01  0.17236363452E-01 -0.27287691037E-01  0.64042242471E-01  0.51100000000E-03 0.  1.
         11    1    4    4    0    0 -0.32162141761E-01  0.11560651227E-01 -0.67816589041E-01  0.75943419001E-01  0.51100000000E-03 0. -1.
</event>
<event>
 8    1  0.2077555E+004  0.1043930E+01  0.7957747E-01            NaN
         13   -1    0    0    0    0  0.00000000000E+00  0.00000000000E+00  0.74505805969E-08  0.10566000000E+00  0.10566000000E+00 0.  1.
     999900   -1    0    0    0    0 -0.00000000000E+00 -0.00000000000E+00 -0.74505805969E-08  0.93827000000E+00  0.93827000000E+00 0. -1.
     999902    2    1    2    0    0 -0.86833837784E-02  0.10374102305E-01 -0.18190032807E-02  0.10302796548E+01  0.10301892229E+01 0.  0.
     999903    2    3    3    0    0 -0.12331065321E+00  0.49066618571E-01  0.19992309980E-01  0.14173463333E+00  0.45562743244E-01 0.  0.
         14    1    1    2    0    0  0.86833837784E-02 -0.10374102305E-01  0.18190032807E-02  0.13650345249E-01  0.00000000000E+00 0.  1.
     999901    1    3    3    0    0  0.11462726943E+00 -0.38692516266E-01 -0.21811313261E-01  0.88854502143E+00  0.88000000000E+00 0.  1.
        -11    1    4    4    0    0 -0.50114639771E-01  0.12687982532E-01  0.29370889101E-01  0.59458996525E-01  0.51100000000E-03 0. -1.
         11    1    4    4    0    0 -0.73196013442E-01  0.36378636038E-01 -0.93785791201E-02  0.82275636801E-01  0.51100000000E-03 0.  1.
</event>
<event>
 8    1  0.2077555E+004  0.1043930E+01  0.7957747E-01            NaN
         13   -1    0    0    0    0  0.00000000000E+00  0.00000000000E+00  0.74505805969E-08  0.10566000000E+00  0.10566000000E+00 0.  1.
     999900   -1    0    0    0    0 -0.00000000000E+00 -0.00000000000E+00 -0.74505805969E-08  0.93827000000E+00  0.93827000000E+00 0. -1.
     999902    2    1    2    0    0 -0.10779712509E-02  0.49750490803E-02 -0.13192547208E-01  0.10297894046E+01  0.10296923140E+01 0.  0.
     999903    2    3    3    0    0 -0.89565636663E-01 -0.46268062885E-01  0.83601324031E-01  0.13859639694E+00  0.45354635398E-01 0.  0.
         14    1    1    2    0    0  0.10779712509E-02 -0.49750490803E-02  0.13192547208E-01  0.14140595362E-01  0.00000000000E+00 0.  1.
     999901    1    3    3    0    0  0.88487665412E-01  0.51243111965E-01 -0.96793871238E-01  0.89119300769E+00  0.88000000000E+00 0. -1.
        -11    1    4    4    0    0 -0.34244394690E-02 -0.20236452815E-01  0.14452135766E-01  0.25107093767E-01  0.51100000000E-03 0.  1.
         11    1    4    4    0    0 -0.86141197194E-01 -0.26031610069E-01  0.69149188265E-01  0.11348930318E+00  0.51100000000E-03 0. -1.
</event>
<event>
 8    1  0.2077555E+004  0.1043930E+01  0.7957747E-01            NaN
         13   -1    0    0    0    0  0.00000000000E+00  0.00000000000E+00  0.74505805969E-08  0.10566000000E+00  0.10566000000E+00 0. -1.
     999900   -1    0    0    0    0 -0.00000000000E+00 -0.00000000000E+00 -0.74505805969E-08  0.93827000000E+00  0.93827000000E+00 0.  1.
     999902    2    1    2    0    0  0.16729229435E-01  0.74155401382E-02  0.68371072674E-03  0.10256181237E+01  0.10254546362E+01 0.  0.
     999903    2    3    3    0    0 -0.12492879692E-01  0.12097825957E+00 -0.43236432944E-01  0.13675401602E+00  0.45171455962E-01 0.  0.
         14    1    1    2    0    0 -0.16729229435E-01 -0.74155401382E-02 -0.68371072674E-03  0.18311876294E-01  0.00000000000E+00 0.  1.
     999901    1    3    3    0    0  0.29222109128E-01 -0.11356271943E+00  0.43920143671E-01  0.88886410768E+00  0.88000000000E+00 0.  1.
        -11    1    4    4    0    0 -0.27824190149E-01  0.51855615205E-01 -0.22075102266E-01  0.62855084495E-01  0.51100000000E-03 0. -1.
         11    1    4    4    0    0  0.15331310457E-01  0.69122644363E-01 -0.21161330678E-01  0.73898931529E-01  0.51100000000E-03 0.  1.
</event>
<event>
 8    1  0.2077555E+004  0.1043930E+01  0.7957747E-01            NaN
         13   -1    0    0    0    0  0.00000000000E+00  0.00000000000E+00  0.74505805969E-08  0.10566000000E+00  0.10566000000E+00 0. -1.
     999900   -1    0    0    0    0 -0.00000000000E+00 -0.00000000000E+00 -0.74505805969E-08  0.93827000000E+00  0.93827000000E+00 0.  1.
     999902    2    1    2    0    0  0.19952001581E-02  0.68532244416E-02  0.11764997527E-01  0.10301690888E+01  0.10300771762E+01 0.  0.
     999903    2    3    3    0    0  0.88589750528E-01 -0.81556268406E-01  0.55748054772E-01  0.14042229121E+00  0.45945679267E-01 0.  0.
         14    1    1    2    0    0 -0.19952001581E-02 -0.68532244416E-02 -0.11764997527E-01  0.13760911152E-01  0.00000000000E+00 0. -1.
     999901    1    3    3    0    0 -0.86594550370E-01  0.88409492848E-01 -0.43983057245E-01  0.88974679764E+00  0.88000000000E+00 0.  1.
        -11    1    4    4    0    0  0.20525636749E-01 -0.29424312483E-01 -0.37328223765E-02  0.36073355998E-01  0.51100000000E-03 0. -1.
         11    1    4    4    0    0  0.68064113779E-01 -0.52131955923E-01  0.59480877149E-01  0.10434893521E+00  0.51100000000E-03 0.  1.
</event>
<event>
 8    1  0.2077555E+004  0.1043930E+01  0.7957747E-01            NaN
         13   -1    0    0    0    0  0.00000000000E+00  0.00000000000E+00  0.74505805969E-08  0.10566000000E+00  0.10566000000E+00 0.  1.
     999900   -1    0    0    0    0 -0.00000000000E+00 -0.00000000000E+00 -0.74505805969E-08  0.93827000000E+00  0.93827000000E+00 0.  1.
     999902    2    1    2    0    0 -0.21096902115E-01 -0.15391299310E-01 -0.23328125540E-02  0.10177114305E+01  0.10173736493E+01 0.  0.
     999903    2    3    3    0    0 -0.27146144166E-01 -0.12013948741E+00  0.59228361817E-02  0.13144006573E+00  0.45508255429E-01 0.  0.
         14    1    1    2    0    0  0.21096902115E-01  0.15391299310E-01  0.23328125540E-02  0.26218569521E-01  0.00000000000E+00 0.  1.
     999901    1    3    3    0    0  0.60492420506E-02  0.10474818810E+00 -0.82556487357E-02  0.88627136475E+00  0.88000000000E+00 0.  1.
        -11    1    4    4    0    0  0.93274227543E-02 -0.67849993155E-02 -0.32901697917E-02  0.12005139283E-01  0.51100000000E-03 0. -1.
         11    1    4    4    0    0 -0.36473566920E-01 -0.11335448809E+00  0.92130059734E-02  0.11943492645E+00  0.51100000000E-03 0.  1.
</event>
<event>
 8    1  0.2077555E+004  0.1043930E+01  0.7957747E-01            NaN
         13   -1    0    0    0    0  0.00000000000E+00  0.00000000000E+00  0.74505805969E-08  0.10566000000E+00  0.10566000000E+00 0.  1.
     999900   -1    0    0    0    0 -0.00000000000E+00 -0.00000000000E+00 -0.74505805969E-08  0.93827000000E+00  0.93827000000E+00 0.  1.
     999902    2    1    2    0    0 -0.29470190119E-02 -0.13996339829E-01 -0.28935863268E-02  0.10293370122E+01  0.10292335641E+01 0.  0.
     999903    2    3    3    0    0 -0.99446520015E-01  0.84737619764E-01  0.12429467963E-01  0.13844120214E+00  0.44061323525E-01 0.  0.
         14    1    1    2    0    0  0.29470190119E-02  0.13996339829E-01  0.28935863268E-02  0.14592987751E-01  0.00000000000E+00 0.  1.
     999901    1    3    3    0    0  0.96499501003E-01 -0.98733959593E-01 -0.15323054290E-01  0.89089581011E+00  0.88000000000E+00 0.  1.
        -11    1    4    4    0    0 -0.55679714516E-01  0.74131435461E-01  0.55288611028E-02  0.92879113681E-01  0.51100000000E-03 0.  1.
         11    1    4    4    0    0 -0.43766805499E-01  0.10606184303E-01  0.69006068606E-02  0.45562088463E-01  0.51100000000E-03 0. -1.
</event>
<event>
 8    1  0.2077555E+004  0.1043930E+01  0.7957747E-01            NaN
         13   -1    0    0    0    0  0.00000000000E+00  0.00000000000E+00  0.74505805969E-08  0.10566000000E+00  0.10566000000E+00 0. -1.
     999900   -1    0    0    0    0 -0.00000000000E+00 -0.00000000000E+00 -0.74505805969E-08  0.93827000000E+00  0.93827000000E+00 0.  1.
     999902    2    1    2    0    0  0.11612832406E-02 -0.13840375541E-01  0.18429824314E-03  0.10300397682E+01  0.10299461081E+01 0.  0.
     999903    2    3    3    0    0 -0.20835843412E-01 -0.12536577730E+00  0.43191659115E-01  0.14168656034E+00  0.45374568585E-01 0.  0.
         14    1    1    2    0    0 -0.11612832406E-02  0.13840375541E-01 -0.18429824314E-03  0.13890231809E-01  0.00000000000E+00 0. -1.
     999901    1    3    3    0    0  0.21997126653E-01  0.11152540176E+00 -0.43007360872E-01  0.88835320786E+00  0.88000000000E+00 0. -1.
        -11    1    4    4    0    0 -0.26525344600E-01 -0.10316840603E+00  0.50140870704E-01  0.11773564432E+00  0.51100000000E-03 0.  1.
         11    1    4    4    0    0  0.56895011879E-02 -0.22197371272E-01 -0.69492115884E-02  0.23950916013E-01  0.51100000000E-03 0. -1.
</event>
<event>
 7    1  0.6216450E+004  0.1043930E+01  0.7957747E-01            NaN
         13   -1    0    0    0    0  0.00000000000E+00  0.00000000000E+00  0.74505805969E-08  0.10566000000E+00  0.10566000000E+00 0.  1.
     999900   -1    0    0    0    0 -0.00000000000E+00 -0.00000000000E+00 -0.74505805969E-08  0.93827000000E+00  0.93827000000E+00 0. -1.
     999903    2    1    2    0    0  0.10597243163E-01 -0.26087687262E-01  0.78910143065E-01  0.95082241504E-01  0.44955010639E-01 0.  0.
         14    1    1    2    0    0  0.86790854172E-02 -0.59662106501E-01  0.50046358992E-02  0.60497436775E-01  0.00000000000E+00 0. -1.
     999901    1    1    2    0    0 -0.19276328580E-01  0.85749793763E-01 -0.83914778964E-01  0.88835032172E+00  0.88000000000E+00 0.  1.
        -11    1    3    3    0    0 -0.14276907715E-01 -0.24037739599E-01  0.38500186217E-01  0.47583279402E-01  0.51100000000E-03 0. -1.
         11    1    3    3    0    0  0.24874150877E-01 -0.20499476633E-02  0.40409956848E-01  0.47498962102E-01  0.51100000000E-03 0.  1.
</event>
<event>
 8    1  0.2077555E+004  0.1043930E+01  0.7957747E-01            NaN
         13   -1    0    0    0    0  0.00000000000E+00  0.00000000000E+00  0.74505805969E-08  0.10566000000E+00  0.10566000000E+00 0.  1.
     999900   -1    0    0    0    0 -0.00000000000E+00 -0.00000000000E+00 -0.74505805969E-08  0.93827000000E+00  0.93827000000E+00 0.  1.
     999902    2    1    2    0    0 -0.10584539609E-01  0.82126505466E-02 -0.23999389862E-02  0.10303197166E+01  0.10302298183E+01 0.  0.
     999903    2    3    3    0    0 -0.12964057178E+00 -0.28989793004E-01  0.18137016041E-01  0.14128646235E+00  0.44562620471E-01 0.  0.
         14    1    1    2    0    0  0.10584539609E-01 -0.82126505466E-02  0.23999389862E-02  0.13610283423E-01  0.00000000000E+00 0. -1.
     999901    1    3    3    0    0  0.11905603217E+00  0.37202443550E-01 -0.20536955027E-01  0.88903325423E+00  0.88000000000E+00 0.  1.
        -11    1    4    4    0    0 -0.85002444644E-01  0.26227636229E-02  0.60031758788E-02  0.85256048033E-01  0.51100000000E-03 0.  1.
         11    1    4    4    0    0 -0.44638127132E-01 -0.31612556627E-01  0.12133840162E-01  0.56030414316E-01  0.51100000000E-03 0. -1.
</event>
<event>
 8    1  0.2077555E+004  0.1043930E+01  0.7957747E-01            NaN
         13   -1    0    0    0    0  0.00000000000E+00  0.00000000000E+00  0.74505805969E-08  0.10566000000E+00  0.10566000000E+00 0. -1.
     999900   -1    0    0    0    0 -0.00000000000E+00 -0.00000000000E+00 -0.74505805969E-08  0.93827000000E+00  0.93827000000E+00 0.  1.
     999902    2    1    2    0    0 -0.67604356857E-02 -0.47707706600E-02 -0.10755222315E-01  0.10303602340E+01  0.10302708737E+01 0.  0.
     999903    2    3    3    0    0  0.53289291428E-01 -0.12004148407E+00  0.19765922155E-01  0.14029009776E+00  0.45176469226E-01 0.  0.
         14    1    1    2    0    0  0.67604356857E-02  0.47707706600E-02  0.10755222315E-01  0.13569766040E-01  0.00000000000E+00 0. -1.
     999901    1    3    3    0    0 -0.60049727114E-01  0.11527071341E+00 -0.30521144470E-01  0.89007013620E+00  0.88000000000E+00 0.  1.
        -11    1    4    4    0    0  0.34068465464E-01 -0.37539981921E-01  0.22654636543E-01  0.55528409482E-01  0.51100000000E-03 0.  1.
         11    1    4    4    0    0  0.19220825964E-01 -0.82501502150E-01 -0.28887143878E-02  0.84761688277E-01  0.51100000000E-03 0. -1.
</event>
<event>
 8    1  0.2077555E+004  0.1043930E+01  0.7957747E-01            NaN
         13   -1    0    0    0    0  0.00000000000E+00  0.00000000000E+00  0.74505805969E-08  0.10566000000E+00  0.10566000000E+00 0. -1.
     999900   -1    0    0    0    0 -0.00000000000E+00 -0.00000000000E+00 -0.74505805969E-08  0.93827000000E+00  0.93827000000E+00 0.  1.
     999902    2    1    2    0    0 -0.28851088445E-02 -0.11049032659E-01  0.80197369052E-02  0.10299757478E+01  0.10298812164E+01 0.  0.
     999903    2    3    3    0    0  0.93213140874E-01  0.49934418708E-02  0.96574087183E-01  0.14018132906E+00  0.40132612771E-01 0.  0.
         14    1    1    2    0    0  0.28851088445E-02  0.11049032659E-01 -0.80197369052E-02  0.13954252247E-01  0.00000000000E+00 0.  1.
     999901    1    3    3    0    0 -0.96098249718E-01 -0.16042474530E-01 -0.88554350278E-01  0.88979441870E+00  0.88000000000E+00 0.  1.
        -11    1    4    4    0    0  0.60304961845E-02  0.29402187750E-02 -0.33810304922E-02  0.75302230290E-02  0.51100000000E-03 0.  1.
         11    1    4    4    0    0  0.87182644689E-01  0.20532230958E-02  0.99955117675E-01  0.13265110603E+00  0.51100000000E-03 0. -1.
</event>
<event>
 8    1  0.2077555E+004  0.1043930E+01  0.7957747E-01            NaN
         13   -1    0    0    0    0  0.00000000000E+00  0.00000000000E+00  0.74505805969E-08  0.10566000000E+00  0.10566000000E+00 0. -1.
     999900   -1    0    0    0    0 -0.00000000000E+00 -0.00000000000E+00 -0.74505805969E-08  0.93827000000E+00  0.93827000000E+00 0. -1.
     999902    2    1    2    0    0 -0.24221738246E-02 -0.14571320496E-01  0.89048041738E-02  0.10266822220E+01  0.10265373345E+01 0.  0.
     999903    2    3    3    0    0 -0.33643142928E-02 -0.12314573651E+00 -0.44198957877E-01  0.13842026688E+00  0.45060308217E-01 0.  0.
         14    1    1    2    0    0  0.24221738246E-02  0.14571320496E-01 -0.89048041738E-02  0.17247777956E-01  0.00000000000E+00 0.  1.
     999901    1    3    3    0    0  0.94214046813E-03  0.10857441601E+00  0.53103762051E-01  0.88826195516E+00  0.88000000000E+00 0. -1.
        -11    1    4    4    0    0 -0.25039741994E-02 -0.95384576233E-01 -0.12439703602E-01  0.96226267810E-01  0.51100000000E-03 0.  1.
         11    1    4    4    0    0 -0.86034009340E-03 -0.27761160274E-01 -0.31759254275E-01  0.42193999075E-01  0.51100000000E-03 0. -1.
</event>
<event>
 8    1  0.2077555E+004  0.1043930E+01  0.7957747E-01            NaN
         13   -1    0    0    0    0  0.00000000000E+00  0.00000000000E+00  0.74505805969E-08  0.10566000000E+00  0.10566000000E+00 0. -1.
     999900   -1    0    0    0    0 -0.00000000000E+00 -0.00000000000E+00 -0.74505805969E-08  0.93827000000E+00  0.93827000000E+00 0.  1.
     999902    2    1    2    0    0  0.48323552883E-02 -0.22258211601E-02  0.12767945803E-01  0.10300979222E+01  0.10300050499E+01 0.  0.
     999903    2    3    3    0    0  0.94735777081E-01  0.91388085506E-01  0.19578163333E-01  0.14055165139E+00  0.45219604124E-01 0.  0.
         14    1    1    2    0    0 -0.48323552883E-02  0.22258211601E-02 -0.12767945803E-01  0.13832077845E-01  0.00000000000E+00 0.  1.
     999901    1    3    3    0    0 -0.89903421792E-01 -0.93613906666E-01 -0.68102175297E-02  0.88954627077E+00  0.88000000000E+00 0. -1.
        -11    1    4    4    0    0  0.82940297322E-01  0.83634365731E-01  0.31655048068E-01  0.12196763194E+00  0.51100000000E-03 0. -1.
         11    1    4    4    0    0  0.11795479759E-01  0.77537197751E-02 -0.12076884735E-01  0.18584019452E-01  0.51100000000E-03 0.  1.
</event>
<event>
 8    1  0.2077555E+004  0.1043930E+01  0.7957747E-01            NaN
         13   -1    0    0    0    0  0.00000000000E+00  0.00000000000E+00  0.74505805969E-08  0.10566000000E+00  0.10566000000E+00 0. -1.
     999900   -1    0    0    0    0 -0.00000000000E+00 -0.00000000000E+00 -0.74505805969E-08  0.93827000000E+00  0.93827000000E+00 0.  1.
     999902    2    1    2    0    0 -0.14907873070E-02 -0.14981400414E-02  0.13079308369E-01  0.10306810311E+01  0.10305958726E+01 0.  0.
     999903    2    3    3    0    0 -0.37214969640E-01 -0.70986454232E-01  0.10840517962E+00  0.14209121302E+00  0.44879830642E-01 0.  0.
         14    1    1    2    0    0  0.14907873070E-02  0.14981400414E-02 -0.13079308369E-01  0.13248968933E-01  0.00000000000E+00 0.  1.
     999901    1    3    3    0    0  0.35724182333E-01  0.69488314191E-01 -0.95325871251E-01  0.88858981805E+00  0.88000000000E+00 0.  1.
        -11    1    4    4    0    0 -0.24278830388E-01 -0.88398189497E-02  0.17484329149E-01  0.31202033441E-01  0.51100000000E-03 0. -1.
         11    1    4    4    0    0 -0.12936139252E-01 -0.62146635283E-01  0.90920850471E-01  0.11088917958E+00  0.51100000000E-03 0.  1.
</event>
<event>
 8    1  0.2077555E+004  0.1043930E+01  0.7957747E-01            NaN
         13   -1    0    0    0    0  0.00000000000E+00  0.00000000000E+00  0.74505805969E-08  0.10566000000E+00  0.10566000000E+00 0.  1.
     999900   -1    0    0    0    0 -0.00000000000E+00 -0.00000000000E+00 -0.74505805969E-08  0.93827000000E+00  0.93827000000E+00 0.  1.
     999902    2    1    2    0    0  0.77402295481E-02  0.80493298133E-02  0.72503592697E-02  0.10306157004E+01  0.10305296946E+01 0.  0.
     999903    2    3    3    0    0 -0.64302106293E-01  0.23041140886E-01  0.11484257524E+00  0.14101413933E+00  0.45061240056E-01 0.  0.
         14    1    1    2    0    0 -0.77402295481E-02 -0.80493298133E-02 -0.72503592697E-02  0.13314299585E-01  0.00000000000E+00 0. -1.
     999901    1    3    3    0    0  0.72042335841E-01 -0.14991811072E-01 -0.10759221597E+00  0.88960156109E+00  0.88000000000E+00 0.  1.
        -11    1    4    4    0    0 -0.13479556205E-01  0.17299914975E-01  0.68737260033E-01  0.72153014708E-01  0.51100000000E-03 0.  1.
         11    1    4    4    0    0 -0.50822550089E-01  0.57412259105E-02  0.46105315206E-01  0.68861124619E-01  0.51100000000E-03 0. -1.
</event>
<event>
 7    1  0.2077555E+004  0.1043930E+01  0.7957747E-01            NaN
         13   -1    0    0    0    0  0.00000000000E+00  0.00000000000E+00  0.74505805969E-08  0.10566000000E+00  0.10566000000E+00 0.  1.
     999900   -1    0    0    0    0 -0.00000000000E+00 -0.00000000000E+00 -0.74505805969E-08  0.93827000000E+00  0.93827000000E+00 0.  1.
     999902    2    1    2    0    0  0.52896070576E-02  0.85874966121E-03  0.76694707861E-03  0.10385165352E+01  0.10385024257E+01 0.  0.
         14    1    1    2    0    0 -0.52896070576E-02 -0.85874966121E-03 -0.76694707861E-03  0.54134648448E-02  0.00000000000E+00 0. -1.
     999901    1    3    3    0    0  0.12783248709E+00  0.17813441585E-01 -0.49102920789E-01  0.89076908359E+00  0.88000000000E+00 0.  1.
        -11    1    3    3    0    0 -0.10904371056E+00 -0.23509005823E-02  0.18539367088E-01  0.11063465460E+00  0.51100000000E-03 0.  1.
         11    1    3    3    0    0 -0.13499169468E-01 -0.14603791342E-01  0.31330500779E-01  0.37112796957E-01  0.51100000000E-03 0. -1.
</event>
<event>
 8    1  0.2077555E+004  0.1043930E+01  0.7957747E-01            NaN
         13   -1    0    0    0    0  0.00000000000E+00  0.00000000000E+00  0.74505805969E-08  0.10566000000E+00  0.10566000000E+00 0.  1.
     999900   -1    0    0    0    0 -0.00000000000E+00 -0.00000000000E+00 -0.74505805969E-08  0.93827000000E+00  0.93827000000E+00 0. -1.
     999902    2    1    2    0    0  0.13623348946E-01  0.32044465835E-02 -0.10519251693E-02  0.10298953764E+01  0.10297997454E+01 0.  0.
     999903    2    3    3    0    0  0.60625706303E-02 -0.87963031930E-01  0.98448251329E-01  0.13957579349E+00  0.44889800498E-01 0.  0.
         14    1    1    2    0    0 -0.13623348946E-01 -0.32044465835E-02  0.10519251693E-02  0.14034623650E-01  0.00000000000E+00 0. -1.
     999901    1    3    3    0    0  0.75607783161E-02  0.91167478513E-01 -0.99500176499E-01  0.89031958286E+00  0.88000000000E+00 0. -1.
        -11    1    4    4    0    0 -0.91948599906E-02 -0.26693444419E-01  0.58221934267E-01  0.64708115225E-01  0.51100000000E-03 0. -1.
         11    1    4    4    0    0  0.15257430621E-01 -0.61269587511E-01  0.40226317063E-01  0.74867678262E-01  0.51100000000E-03 0.  1.
</event>
<event>
 8    1  0.2077555E+004  0.1043930E+01  0.7957747E-01            NaN
         13   -1    0    0    0    0  0.00000000000E+00  0.00000000000E+00  0.74505805969E-08  0.10566000000E+00  0.10566000000E+00 0.  1.
     999900   -1    0    0    0    0 -0.00000000000E+00 -0.00000000000E+00 -0.74505805969E-08  0.93827000000E+00  0.93827000000E+00 0.  1.
     999902    2    1    2    0    0  0.14007050279E-01 -0.20208427115E-02 -0.11116301952E-02  0.10297343322E+01  0.10296364785E+01 0.  0.
     999903    2    3    3    0    0  0.57985162869E-01 -0.76244464746E-01  0.92514262791E-01  0.14057235129E+00  0.45013327012E-01 0.  0.
         14    1    1    2    0    0 -0.14007050279E-01  0.20208427115E-02  0.11116301952E-02  0.14195667807E-01  0.00000000000E+00 0. -1.
     999901    1    3    3    0    0 -0.43978112590E-01  0.74223622034E-01 -0.93625892987E-01  0.88916198091E+00  0.88000000000E+00 0. -1.
        -11    1    4    4    0    0  0.31047632896E-01 -0.28380361280E-01  0.69026424195E-01  0.80835071430E-01  0.51100000000E-03 0.  1.
         11    1    4    4    0    0  0.26937529973E-01 -0.47864103465E-01  0.23487838596E-01  0.59737279855E-01  0.51100000000E-03 0. -1.
</event>
<event>
 8    1  0.2077555E+004  0.1043930E+01  0.7957747E-01            NaN
         13   -1    0    0    0    0  0.00000000000E+00  0.00000000000E+00  0.74505805969E-08  0.10566000000E+00  0.10566000000E+00 0.  1.
     999900   -1    0    0    0    0 -0.00000000000E+00 -0.00000000000E+00 -0.74505805969E-08  0.93827000000E+00  0.93827000000E+00 0.  1.
     999902    2    1    2    0    0  0.92291323669E-03  0.43642746633E-02 -0.12675832699E-01  0.10304921655E+01  0.10304045457E+01 0.  0.
     999903    2    3    3    0    0 -0.11694610795E+00 -0.36995346827E-01 -0.50636783313E-01  0.14086035499E+00  0.47249422568E-01 0.  0.
         14    1    1    2    0    0 -0.92291323669E-03 -0.43642746633E-02  0.12675832699E-01  0.13437834527E-01  0.00000000000E+00 0.  1.
     999901    1    3    3    0    0  0.11786902119E+00  0.41359621490E-01  0.37960950615E-01  0.88963181048E+00  0.88000000000E+00 0. -1.
        -11    1    4    4    0    0 -0.21073212751E-01 -0.25413773746E-01 -0.23569684222E-01  0.40567614263E-01  0.51100000000E-03 0. -1.
         11    1    4    4    0    0 -0.95872895199E-01 -0.11581573080E-01 -0.27067099091E-01  0.10029274073E+00  0.51100000000E-03 0.  1.
</event>
<event>
 7    1  0.2077555E+004  0.1043930E+01  0.7957747E-01            NaN
         13   -1    0    0    0    0  0.00000000000E+00  0.00000000000E+00  0.74505805969E-08  0.10566000000E+00  0.10566000000E+00 0.  1.
     999900   -1    0    0    0    0 -0.00000000000E+00 -0.00000000000E+00 -0.74505805969E-08  0.93827000000E+00  0.93827000000E+00 0.  1.
     999903    2    1    2    0    0  0.47807503007E-01  0.32062203326E-01 -0.48231969503E-01  0.88030686812E-01  0.45929693147E-01 0.  0.
         14    1    1    2    0    0 -0.69578553580E-01 -0.88742870928E-02  0.26728296864E-01  0.75062173849E-01  0.00000000000E+00 0. -1.
     999901    1    1    2    0    0  0.21771050573E-01 -0.23187916233E-01  0.21503672640E-01  0.88083713934E+00  0.88000000000E+00 0. -1.
        -11    1    3    3    0    0  0.90163298211E-02 -0.12379747271E-02 -0.33653797209E-01  0.34866401771E-01  0.51100000000E-03 0.  1.
         11    1    3    3    0    0  0.38791173185E-01  0.33300178053E-01 -0.14578172294E-01  0.53164285041E-01  0.51100000000E-03 0. -1.
</event>
<event>
 7    1  0.2770780E+004  0.1043930E+01  0.7957747E-01            NaN
         13   -1    0    0    0    0  0.00000000000E+00  0.00000000000E+00  0.74505805969E-08  0.10566000000E+00  0.10566000000E+00 0.  1.
     999900   -1    0    0    0    0 -0.00000000000E+00 -0.00000000000E+00 -0.74505805969E-08  0.93827000000E+00  0.93827000000E+00 0. -1.
     999903    2    1    2    0    0  0.43705629474E-01 -0.95256146564E-01 -0.53499652281E-01  0.12605359928E+00  0.45203778497E-01 0.  0.
         14    1    1    2    0    0 -0.12629141811E-01  0.12300423736E-01 -0.24291387041E-01  0.30014448710E-01  0.00000000000E+00 0.  1.
     999901    1    1    2    0    0 -0.31076487662E-01  0.82955722828E-01  0.77791039322E-01  0.88786195201E+00  0.88000000000E+00 0.  1.
        -11    1    3    3    0    0  0.18278577777E-02 -0.52595598949E-01 -0.14204080643E-01  0.54512889492E-01  0.51100000000E-03 0. -1.
         11    1    3    3    0    0  0.41877771696E-01 -0.42660547615E-01 -0.39295571638E-01  0.71540709783E-01  0.51100000000E-03 0.  1.
</event>
<event>
 8    1  0.2077555E+004  0.1043930E+01  0.7957747E-01            NaN
         13   -1    0    0    0    0  0.00000000000E+00  0.00000000000E+00  0.74505805969E-08  0.10566000000E+00  0.10566000000E+00 0. -1.
     999900   -1    0    0    0    0 -0.00000000000E+00 -0.00000000000E+00 -0.74505805969E-08  0.93827000000E+00  0.93827000000E+00 0.  1.
     999902    2    1    2    0    0 -0.24651765307E-02  0.12972264588E-01 -0.81264993442E-02  0.10284252673E+01  0.10283083845E+01 0.  0.
     999903    2    3    3    0    0 -0.67826007491E-01 -0.98777923550E-01 -0.50400166674E-01  0.13794943625E+00  0.46178184108E-01 0.  0.
         14    1    1    2    0    0  0.24651765307E-02 -0.12972264588E-01  0.81264993442E-02  0.15504732680E-01  0.00000000000E+00 0.  1.
     999901    1    3    3    0    0  0.65360830961E-01  0.11175018814E+00  0.42273667330E-01  0.89047583107E+00  0.88000000000E+00 0. -1.
        -11    1    4    4    0    0 -0.55692131415E-01 -0.57784391770E-01 -0.13315675833E-01  0.81352429451E-01  0.51100000000E-03 0.  1.
         11    1    4    4    0    0 -0.12133876076E-01 -0.40993531780E-01 -0.37084490841E-01  0.56597006797E-01  0.51100000000E-03 0. -1.
</event>
<event>
 8    1  0.2077555E+004  0.1043930E+01  0.7957747E-01            NaN
         13   -1    0    0    0    0  0.00000000000E+00  0.00000000000E+00  0.74505805969E-08  0.10566000000E+00  0.10566000000E+00 0. -1.
     999900   -1    0    0    0    0 -0.00000000000E+00 -0.00000000000E+00 -0.74505805969E-08  0.93827000000E+00  0.93827000000E+00 0.  1.
     999902    2    1    2    0    0  0.60593044889E-02  0.22468978968E-02  0.13494412424E-01  0.10289679518E+01  0.10288591657E+01 0.  0.
     999903    2    3    3    0    0 -0.22784055025E-01  0.35886753175E-01  0.12633040994E+00  0.14065745334E+00  0.44924096971E-01 0.  0.
         14    1    1    2    0    0 -0.60593044889E-02 -0.22468978968E-02 -0.13494412424E-01  0.14962048246E-01  0.00000000000E+00 0.  1.
     999901    1    3    3    0    0  0.28843359514E-01 -0.33639855278E-01 -0.11283599752E+00  0.88831049841E+00  0.88000000000E+00 0.  1.
        -11    1    4    4    0    0 -0.10837275212E-01  0.43803586120E-01  0.76640453357E-01  0.88939422658E-01  0.51100000000E-03 0. -1.
         11    1    4    4    0    0 -0.11946779813E-01 -0.79168329451E-02  0.49689956582E-01  0.51718030685E-01  0.51100000000E-03 0.  1.
</event>
<event>
 8    1  0.2077555E+004  0.1043930E+01  0.7957747E-01            NaN
         13   -1    0    0    0    0  0.00000000000E+00  0.00000000000E+00  0.74505805969E-08  0.10566000000E+00  0.10566000000E+00 0.  1.
     999900   -1    0    0    0    0 -0.00000000000E+00 -0.00000000000E+00 -0.74505805969E-08  0.93827000000E+00  0.93827000000E+00 0.  1.
     999902    2    1    2    0    0 -0.10753404001E-01  0.55908097940E-03 -0.94535022406E-02  0.10296011140E+01  0.10295014021E+01 0.  0.
     999903    2    3    3    0    0  0.19481512477E-01  0.83949055475E-01  0.98716563817E-01  0.13855184421E+00  0.44996447837E-01 0.  0.
         14    1    1    2    0    0  0.10753404001E-01 -0.55908097940E-03  0.94535022406E-02  0.14328885992E-01  0.00000000000E+00 0.  1.
     999901    1    3    3    0    0 -0.30234916478E-01 -0.83389974496E-01 -0.10817006606E+00  0.89104926980E+00  0.88000000000E+00 0.  1.
        -11    1    4    4    0    0  0.17897203233E-01  0.70139468369E-02  0.28485369184E-01  0.34368338807E-01  0.51100000000E-03 0. -1.
         11    1    4    4    0    0  0.15843092435E-02  0.76935108638E-01  0.70231194633E-01  0.10418350540E+00  0.51100000000E-03 0.  1.
</event>
<event>
 8    1  0.2077555E+004  0.1043930E+01  0.7957747E-01            NaN
         13   -1    0    0    0    0  0.00000000000E+00  0.00000000000E+00  0.74505805969E-08  0.10566000000E+00  0.10566000000E+00 0. -1.
     999900   -1    0    0    0    0 -0.00000000000E+00 -0.00000000000E+00 -0.74505805969E-08  0.93827000000E+00  0.93827000000E+00 0. -1.
     999902    2    1    2    0    0 -0.65578848425E-02  0.11670580189E-01 -0.45353251242E-02  0.10297957342E+01  0.10296987310E+01 0.  0.
     999903    2    3    3    0    0  0.25801642230E-01 -0.87531326973E-01 -0.94886662154E-01  0.13903677608E+00  0.44724585013E-01 0.  0.
         14    1    1    2    0    0  0.65578848425E-02 -0.11670580189E-01  0.45353251242E-02  0.14134265794E-01  0.00000000000E+00 0. -1.
     999901    1    3    3    0    0 -0.32359527072E-01  0.99201907162E-01  0.90351337030E-01  0.89075895813E+00  0.88000000000E+00 0. -1.
        -11    1    4    4    0    0  0.32085355495E-01 -0.46144123825E-01 -0.71949925815E-01  0.91300619640E-01  0.51100000000E-03 0.  1.
         11    1    4    4    0    0 -0.62837132650E-02 -0.41387203148E-01 -0.22936736339E-01  0.47736156441E-01  0.51100000000E-03 0. -1.
</event>
<event>
 8    1  0.2077555E+004  0.1043930E+01  0.7957747E-01            NaN
         13   -1    0    0    0    0  0.00000000000E+00  0.00000000000E+00  0.74505805969E-08  0.10566000000E+00  0.10566000000E+00 0. -1.
     999900   -1    0    0    0    0 -0.00000000000E+00 -0.00000000000E+00 -0.74505805969E-08  0.93827000000E+00  0.93827000000E+00 0. -1.
     999902    2    1    2    0    0 -0.67781544302E-03 -0.14035126852E-01 -0.76950912741E-03  0.10298574606E+01  0.10297613087E+01 0.  0.
     999903    2    3    3    0    0  0.43633493049E-01  0.86090455199E-01  0.88591408693E-01  0.13858084933E+00  0.45174837199E-01 0.  0.
         14    1    1    2    0    0  0.67781544302E-03  0.14035126852E-01  0.76950912741E-03  0.14072539352E-01  0.00000000000E+00 0. -1.
     999901    1    3    3    0    0 -0.44311308492E-01 -0.10012558205E+00 -0.89360917820E-01  0.89127661131E+00  0.88000000000E+00 0. -1.
        -11    1    4    4    0    0  0.22784795212E-01  0.75740102480E-01  0.50196722849E-01  0.93678610804E-01  0.51100000000E-03 0.  1.
         11    1    4    4    0    0  0.20848697837E-01  0.10350352719E-01  0.38394685844E-01  0.44902238530E-01  0.51100000000E-03 0. -1.
</event>
<event>
 8    1  0.2077555E+004  0.1043930E+01  0.7957747E-01            NaN
         13   -1    0    0    0    0  0.00000000000E+00  0.00000000000E+00  0.74505805969E-08  0.10566000000E+00  0.10566000000E+00 0.  1.
     999900   -1    0    0    0    0 -0.00000000000E+00 -0.00000000000E+00 -0.74505805969E-08  0.93827000000E+00  0.93827000000E+00 0. -1.
     999902    2    1    2    0    0 -0.13451387828E-01 -0.13480976716E-02 -0.37917774487E-02  0.10298895307E+01  0.10297938195E+01 0.  0.
     999903    2    3    3    0    0  0.11773695335E+00  0.42299374326E-01  0.41590331413E-01  0.13793940963E+00  0.40574595635E-01 0.  0.
         14    1    1    2    0    0  0.13451387828E-01  0.13480976716E-02  0.37917774487E-02  0.14040469296E-01  0.00000000000E+00 0.  1.
     999901    1    3    3    0    0 -0.13118834118E+00 -0.43647471998E-01 -0.45382108861E-01  0.89195012107E+00  0.88000000000E+00 0. -1.
        -11    1    4    4    0    0  0.90871980675E-01  0.21834320729E-01  0.14365266886E-01  0.94557265439E-01  0.51100000000E-03 0.  1.
         11    1    4    4    0    0  0.26864972673E-01  0.20465053597E-01  0.27225064527E-01  0.43382144195E-01  0.51100000000E-03 0. -1.
</event>
<event>
 8    1  0.2077555E+004  0.1043930E+01  0.7957747E-01            NaN
         13   -1    0    0    0    0  0.00000000000E+00  0.00000000000E+00  0.74505805969E-08  0.10566000000E+00  0.10566000000E+00 0. -1.
     999900   -1    0    0    0    0 -0.00000000000E+00 -0.00000000000E+00 -0.74505805969E-08  0.93827000000E+00  0.93827000000E+00 0.  1.
     999902    2    1    2    0    0  0.13479013958E-02 -0.10225278744E-01 -0.96763650741E-02  0.10297876804E+01  0.10296905659E+01 0.  0.
     999903    2    3    3    0    0  0.58597093318E-01 -0.28941829508E-02 -0.12042061331E+00  0.14097076814E+00  0.43927641870E-01 0.  0.
         14    1    1    2    0    0 -0.13479013958E-02  0.10225278744E-01  0.96763650741E-02  0.14142319634E-01  0.00000000000E+00 0.  1.
     999901    1    3    3    0    0 -0.57249191922E-01 -0.73310957936E-02  0.11074424823E+00  0.88881691223E+00  0.88000000000E+00 0. -1.
        -11    1    4    4    0    0  0.64135185606E-01  0.13744448937E-02 -0.95228871312E-01  0.11482164510E+00  0.51100000000E-03 0. -1.
         11    1    4    4    0    0 -0.55380922887E-02 -0.42686278444E-02 -0.25191741997E-01  0.26149123039E-01  0.51100000000E-03 0.  1.
</event>
<event>
 8    1  0.2077555E+004  0.1043930E+01  0.7957747E-01            NaN
         13   -1    0    0    0    0  0.00000000000E+00  0.00000000000E+00  0.74505805969E-08  0.10566000000E+00  0.10566000000E+00 0.  1.
     999900   -1    0    0    0    0 -0.00000000000E+00 -0.00000000000E+00 -0.74505805969E-08  0.93827000000E+00  0.93827000000E+00 0.  1.
     999902    2    1    2    0    0  0.12566729161E-01 -0.40827335107E-02 -0.10450266284E-02  0.10306754357E+01  0.10305902048E+01 0.  0.
     999903    2    3    3    0    0 -0.11851799006E+00 -0.29578493803E-01 -0.48376888635E-01  0.13934298223E+00  0.46419199457E-01 0.  0.
         14    1    1    2    0    0 -0.12566729161E-01  0.40827335107E-02  0.10450266284E-02  0.13254564322E-01  0.00000000000E+00 0. -1.
     999901    1    3    3    0    0  0.13108471923E+00  0.25495760292E-01  0.47331862007E-01  0.89133245345E+00  0.88000000000E+00 0. -1.
        -11    1    4    4    0    0 -0.63401493687E-01 -0.94732223268E-02 -0.48966357211E-01  0.80668808114E-01  0.51100000000E-03 0.  1.
         11    1    4    4    0    0 -0.55116496378E-01 -0.20105271476E-01  0.58946857538E-03  0.58674174117E-01  0.51100000000E-03 0. -1.
</event>
<event>
 8    1  0.2077555E+004  0.1043930E+01  0.7957747E-01            NaN
         13   -1    0    0    0    0  0.00000000000E+00  0.00000000000E+00  0.74505805969E-08  0.10566000000E+00  0.10566000000E+00 0. -1.
     999900   -1    0    0    0    0 -0.00000000000E+00 -0.00000000000E+00 -0.74505805969E-08  0.93827000000E+00  0.93827000000E+00 0.  1.
     999902    2    1    2    0    0 -0.30595435667E-02  0.52131378131E-02  0.11987039478E-01  0.10305051451E+01  0.10304176956E+01 0.  0.
     999903    2    3    3    0    0  0.15649556037E-01 -0.12149344325E+00  0.51701227149E-01  0.14034684191E+00  0.44929431222E-01 0.  0.
         14    1    1    2    0    0  0.30595435667E-02 -0.52131378131E-02 -0.11987039478E-01  0.13424854865E-01  0.00000000000E+00 0. -1.
     999901    1    3    3    0    0 -0.18709099604E-01  0.12670658106E+00 -0.39714187671E-01  0.89015830322E+00  0.88000000000E+00 0.  1.
        -11    1    4    4    0    0 -0.94951055592E-02 -0.82156842806E-01  0.24257478006E-01  0.86189269690E-01  0.51100000000E-03 0. -1.
         11    1    4    4    0    0  0.25144661596E-01 -0.39336600442E-01  0.27443749143E-01  0.54157572224E-01  0.51100000000E-03 0.  1.
</event>
<event>
 8    1  0.2077555E+004  0.1043930E+01  0.7957747E-01            NaN
         13   -1    0    0    0    0  0.00000000000E+00  0.00000000000E+00  0.74505805969E-08  0.10566000000E+00  0.10566000000E+00 0.  1.
     999900   -1    0    0    0    0 -0.00000000000E+00 -0.00000000000E+00 -0.74505805969E-08  0.93827000000E+00  0.93827000000E+00 0.  1.
     999902    2    1    2    0    0  0.12027509952E-01  0.16949057957E-03 -0.63550964983E-02  0.10303257002E+01  0.10302358815E+01 0.  0.
     999903    2    3    3    0    0  0.12117391169E+00  0.32449787943E-01  0.48400200750E-01  0.14130764793E+00  0.43464540940E-01 0.  0.
         14    1    1    2    0    0 -0.12027509952E-01 -0.16949057957E-03  0.63550964983E-02  0.13604299843E-01  0.00000000000E+00 0. -1.
     999901    1    3    3    0    0 -0.10914640174E+00 -0.32280297363E-01 -0.54755297249E-01  0.88901805223E+00  0.88000000000E+00 0.  1.
        -11    1    4    4    0    0  0.44409504984E-01  0.20388164638E-01 -0.16150284741E-02  0.48895304766E-01  0.51100000000E-03 0.  1.
         11    1    4    4    0    0  0.76764406705E-01  0.12061623304E-01  0.50015229224E-01  0.92412343163E-01  0.51100000000E-03 0. -1.
</event>
<event>
 8    1  0.2077555E+004  0.1043930E+01  0.7957747E-01            NaN
         13   -1    0    0    0    0  0.00000000000E+00  0.00000000000E+00  0.74505805969E-08  0.10566000000E+00  0.10566000000E+00 0.  1.
     999900   -1    0    0    0    0 -0.00000000000E+00 -0.00000000000E+00 -0.74505805969E-08  0.93827000000E+00  0.93827000000E+00 0.  1.
     999902    2    1    2    0    0 -0.29524399425E-03  0.35579286610E-02 -0.13285402182E-01  0.10301732585E+01  0.10300814019E+01 0.  0.
     999903    2    3    3    0    0  0.98306363028E-01 -0.40414761054E-01 -0.81831967931E-01  0.14092947527E+00  0.43210555444E-01 0.  0.
         14    1    1    2    0    0  0.29524399425E-03 -0.35579286610E-02  0.13285402182E-01  0.13756741494E-01  0.00000000000E+00 0.  1.
     999901    1    3    3    0    0 -0.98601607022E-01  0.43972689715E-01  0.68546565748E-01  0.88924378324E+00  0.88000000000E+00 0. -1.
        -11    1    4    4    0    0  0.10063015236E+00 -0.32615495183E-01 -0.71130823770E-01  0.12747569690E+00  0.51100000000E-03 0.  1.
         11    1    4    4    0    0 -0.23237893321E-02 -0.77992658701E-02 -0.10701144160E-01  0.13453778365E-01  0.51100000000E-03 0. -1.
</event>
<event>
 8    1  0.2077555E+004  0.1043930E+01  0.7957747E-01            NaN
         13   -1    0    0    0    0  0.00000000000E+00  0.00000000000E+00  0.74505805969E-08  0.10566000000E+00  0.10566000000E+00 0.  1.
     999900   -1    0    0    0    0 -0.00000000000E+00 -0.00000000000E+00 -0.74505805969E-08  0.93827000000E+00  0.93827000000E+00 0. -1.
     999902    2    1    2    0    0 -0.38085309291E-02  0.10353324826E-01 -0.55029289064E-02  0.10316020452E+01  0.10315283812E+01 0.  0.
     999903    2    3    3    0    0  0.69961021536E-01 -0.10420156812E+00  0.41877694791E-01  0.13985673747E+00  0.45317263393E-01 0.  0.
         14    1    1    2    0    0  0.38085309291E-02 -0.10353324826E-01  0.55029289064E-02  0.12327954791E-01  0.00000000000E+00 0.  1.
     999901    1    3    3    0    0 -0.73769552465E-01  0.11455489295E+00 -0.47380623697E-01  0.89174530774E+00  0.88000000000E+00 0. -1.
        -11    1    4    4    0    0 -0.21517322263E-02 -0.22204272321E-01 -0.14876509728E-02  0.22363673386E-01  0.51100000000E-03 0.  1.
         11    1    4    4    0    0  0.72112753762E-01 -0.81997295803E-01  0.43365345764E-01  0.11749306409E+00  0.51100000000E-03 0. -1.
</event>
<event>
 8    1  0.2077555E+004  0.1043930E+01  0.7957747E-01            NaN
         13   -1    0    0    0    0  0.00000000000E+00  0.00000000000E+00  0.74505805969E-08  0.10566000000E+00  0.10566000000E+00 0. -1.
     999900   -1    0    0    0    0 -0.00000000000E+00 -0.00000000000E+00 -0.74505805969E-08  0.93827000000E+00  0.93827000000E+00 0. -1.
     999902    2    1    2    0    0  0.71133931041E-02  0.32186120330E-02 -0.12296962536E-01  0.10293637681E+01  0.10292607016E+01 0.  0.
     999903    2    3    3    0    0 -0.31525241741E-01 -0.98026192608E-02  0.12592232174E+00  0.13764236141E+00  0.44710807748E-01 0.  0.
         14    1    1    2    0    0 -0.71133931041E-02 -0.32186120330E-02  0.12296962536E-01  0.14566231924E-01  0.00000000000E+00 0. -1.
     999901    1    3    3    0    0  0.38638634845E-01  0.13021231294E-01 -0.13821928428E+00  0.89172140667E+00  0.88000000000E+00 0. -1.
        -11    1    4    4    0    0 -0.32536798445E-01 -0.21382307976E-01  0.66239875916E-01  0.76836375694E-01  0.51100000000E-03 0. -1.
         11    1    4    4    0    0  0.10115567045E-02  0.11579688715E-01  0.59682445825E-01  0.60805985712E-01  0.51100000000E-03 0.  1.
</event>
<event>
 7    1  0.2077555E+004  0.1043930E+01  0.7957747E-01            NaN
         13   -1    0    0    0    0  0.00000000000E+00  0.00000000000E+00  0.74505805969E-08  0.10566000000E+00  0.10566000000E+00 0.  1.
     999900   -1    0    0    0    0 -0.00000000000E+00 -0.00000000000E+00 -0.74505805969E-08  0.93827000000E+00  0.93827000000E+00 0. -1.
     999902    2    1    2    0    0 -0.10235453969E-01  0.33513013730E-02 -0.87719962234E-02  0.10300395840E+01  0.10299459214E+01 0.  0.
         14    1    1    2    0    0  0.10235453969E-01 -0.33513013730E-02  0.87719962234E-02  0.13890415998E-01  0.00000000000E+00 0.  1.
     999901    1    3    3    0    0 -0.64726167529E-01  0.11456569215E+00 -0.62531825996E-01  0.89197814090E+00  0.88000000000E+00 0.  1.
        -11    1    3    3    0    0  0.39198664120E-01 -0.55618798392E-01  0.18667884843E-01  0.70560166162E-01  0.51100000000E-03 0. -1.
         11    1    3    3    0    0  0.15292049441E-01 -0.55595592384E-01  0.35091944930E-01  0.67501276940E-01  0.51100000000E-03 0.  1.
</event>
<event>
 8    1  0.2077555E+004  0.1043930E+01  0.7957747E-01            NaN
         13   -1    0    0    0    0  0.00000000000E+00  0.00000000000E+00  0.74505805969E-08  0.10566000000E+00  0.10566000000E+00 0. -1.
     999900   -1    0    0    0    0 -0.00000000000E+00 -0.00000000000E+00 -0.74505805969E-08  0.93827000000E+00  0.93827000000E+00 0. -1.
     999902    2    1    2    0    0 -0.21996327618E-02 -0.79842511792E-02  0.13810144214E-01  0.10278269961E+01  0.10277008452E+01 0.  0.
     999903    2    3    3    0    0  0.98812263174E-01  0.62471376989E-01 -0.54305107088E-01  0.13664402605E+00  0.45343234362E-01 0.  0.
         14    1    1    2    0    0  0.21996327618E-02  0.79842511792E-02 -0.13810144214E-01  0.16103003894E-01  0.00000000000E+00 0.  1.
     999901    1    3    3    0    0 -0.10101189594E+00 -0.70455628168E-01  0.68115251302E-01  0.89118297006E+00  0.88000000000E+00 0.  1.
        -11    1    4    4    0    0  0.37242327531E-01  0.16870880439E-01 -0.42753810397E-01  0.59158828514E-01  0.51100000000E-03 0.  1.
         11    1    4    4    0    0  0.61569935643E-01  0.45600496550E-01 -0.11551296691E-01  0.77485197534E-01  0.51100000000E-03 0. -1.
</event>
<event>
 8    1  0.2077555E+004  0.1043930E+01  0.7957747E-01            NaN
         13   -1    0    0    0    0  0.00000000000E+00  0.00000000000E+00  0.74505805969E-08  0.10566000000E+00  0.10566000000E+00 0.  1.
     999900   -1    0    0    0    0 -0.00000000000E+00 -0.00000000000E+00 -0.74505805969E-08  0.93827000000E+00  0.93827000000E+00 0.  1.
     999902    2    1    2    0    0 -0.81486699047E-02 -0.65858120744E-02  0.79004123885E-02  0.10308078714E+01  0.10307243461E+01 0.  0.
     999903    2    3    3    0    0  0.12309370719E-01 -0.87898473647E-01 -0.99197620535E-01  0.14035839561E+00  0.44526947141E-01 0.  0.
         14    1    1    2    0    0  0.81486699047E-02  0.65858120744E-02 -0.79004123885E-02  0.13122128555E-01  0.00000000000E+00 0. -1.
     999901    1    3    3    0    0 -0.20458040624E-01  0.81312661572E-01  0.10709803292E+00  0.89044947583E+00  0.88000000000E+00 0. -1.
        -11    1    4    4    0    0  0.16362384949E-01 -0.12772045802E-01 -0.38290960853E-01  0.43558140448E-01  0.51100000000E-03 0.  1.
         11    1    4    4    0    0 -0.40530142301E-02 -0.75126427845E-01 -0.60906659682E-01  0.96800255163E-01  0.51100000000E-03 0. -1.
</event>
<event>
 8    1  0.2077555E+004  0.1043930E+01  0.7957747E-01            NaN
         13   -1    0    0    0    0  0.00000000000E+00  0.00000000000E+00  0.74505805969E-08  0.10566000000E+00  0.10566000000E+00 0.  1.
     999900   -1    0    0    0    0 -0.00000000000E+00 -0.00000000000E+00 -0.74505805969E-08  0.93827000000E+00  0.93827000000E+00 0. -1.
     999902    2    1    2    0    0  0.19288422128E-01  0.41503354074E-02 -0.25744493013E-02  0.10240328570E+01  0.10238395362E+01 0.  0.
     999903    2    3    3    0    0  0.10721162560E+00  0.48389022861E-01 -0.55230816142E-01  0.13698142432E+00  0.43331713089E-01 0.  0.
         14    1    1    2    0    0 -0.19288422128E-01 -0.41503354074E-02  0.25744493013E-02  0.19897143046E-01  0.00000000000E+00 0. -1.
     999901    1    3    3    0    0 -0.87923203470E-01 -0.44238687454E-01  0.52656366841E-01  0.88705143264E+00  0.88000000000E+00 0. -1.
        -11    1    4    4    0    0  0.70431403302E-01  0.21966160526E-01 -0.12723961389E-01  0.74868251574E-01  0.51100000000E-03 0. -1.
         11    1    4    4    0    0  0.36780222296E-01  0.26422862335E-01 -0.42506854753E-01  0.62113172742E-01  0.51100000000E-03 0.  1.
</event>
<event>
 8    1  0.2077555E+004  0.1043930E+01  0.7957747E-01            NaN
         13   -1    0    0    0    0  0.00000000000E+00  0.00000000000E+00  0.74505805969E-08  0.10566000000E+00  0.10566000000E+00 0.  1.
     999900   -1    0    0    0    0 -0.00000000000E+00 -0.00000000000E+00 -0.74505805969E-08  0.93827000000E+00  0.93827000000E+00 0.  1.
     999902    2    1    2    0    0  0.13288129863E-01 -0.61426493860E-03  0.84823773971E-03  0.10306006630E+01  0.10305144615E+01 0.  0.
     999903    2    3    3    0    0  0.15877140863E-01  0.12597374207E+00 -0.40754011246E-01  0.14056584708E+00  0.44456727721E-01 0.  0.
         14    1    1    2    0    0 -0.13288129863E-01  0.61426493860E-03 -0.84823773971E-03  0.13329336966E-01  0.00000000000E+00 0. -1.
     999901    1    3    3    0    0 -0.25890109995E-02 -0.12658800700E+00  0.41602248986E-01  0.89003481596E+00  0.88000000000E+00 0. -1.
        -11    1    4    4    0    0  0.28287025513E-01  0.89704613957E-01 -0.17342299699E-01  0.95645648397E-01  0.51100000000E-03 0.  1.
         11    1    4    4    0    0 -0.12409884650E-01  0.36269128110E-01 -0.23411711547E-01  0.44920198680E-01  0.51100000000E-03 0. -1.
</event>
<event>
 8    1  0.2077555E+004  0.1043930E+01  0.7957747E-01            NaN
         13   -1    0    0    0    0  0.00000000000E+00  0.00000000000E+00  0.74505805969E-08  0.10566000000E+00  0.10566000000E+00 0.  1.
     999900   -1    0    0    0    0 -0.00000000000E+00 -0.00000000000E+00 -0.74505805969E-08  0.93827000000E+00  0.93827000000E+00 0.  1.
     999902    2    1    2    0    0  0.13677744009E-01  0.53138631456E-03  0.19095159923E-02  0.10301093884E+01  0.10300166711E+01 0.  0.
     999903    2    3    3    0    0 -0.42638986134E-01  0.15272465719E-01 -0.12387701985E+00  0.13926084569E+00  0.44684849206E-01 0.  0.
         14    1    1    2    0    0 -0.13677744009E-01 -0.53138631456E-03 -0.19095159923E-02  0.13820611561E-01  0.00000000000E+00 0.  1.
     999901    1    3    3    0    0  0.56316730143E-01 -0.14741079405E-01  0.12578653584E+00  0.89084854275E+00  0.88000000000E+00 0. -1.
        -11    1    4    4    0    0  0.25716607283E-02  0.69844938593E-02 -0.60559155482E-01  0.61016956881E-01  0.51100000000E-03 0.  1.
         11    1    4    4    0    0 -0.45210646862E-01  0.82879718601E-02 -0.63317864367E-01  0.78243888811E-01  0.51100000000E-03 0. -1.
</event>
<event>
 8    1  0.2077555E+004  0.1043930E+01  0.7957747E-01            NaN
         13   -1    0    0    0    0  0.00000000000E+00  0.00000000000E+00  0.74505805969E-08  0.10566000000E+00  0.10566000000E+00 0. -1.
     999900   -1    0    0    0    0 -0.00000000000E+00 -0.00000000000E+00 -0.74505805969E-08  0.93827000000E+00  0.93827000000E+00 0.  1.
     999902    2    1    2    0    0 -0.24753071032E-04  0.12270501110E-01  0.31503312997E-02  0.10312615195E+01  0.10311837039E+01 0.  0.
     999903    2    3    3    0    0  0.92143108169E-01  0.98100975697E-01  0.92175544094E-02  0.14227412017E+00  0.45197435170E-01 0.  0.
         14    1    1    2    0    0  0.24753071032E-04 -0.12270501110E-01 -0.31503312997E-02  0.12668480474E-01  0.00000000000E+00 0. -1.
     999901    1    3    3    0    0 -0.92167861240E-01 -0.85830474586E-01 -0.60672231097E-02  0.88898739935E+00  0.88000000000E+00 0. -1.
        -11    1    4    4    0    0  0.38770394333E-01  0.68784320713E-01  0.17330781582E-01  0.80839615065E-01  0.51100000000E-03 0.  1.
         11    1    4    4    0    0  0.53372713835E-01  0.29316654984E-01 -0.81132271729E-02  0.61434505107E-01  0.51100000000E-03 0. -1.
</event>
<event>
 8    1  0.2077555E+004  0.1043930E+01  0.7957747E-01            NaN
         13   -1    0    0    0    0  0.00000000000E+00  0.00000000000E+00  0.74505805969E-08  0.10566000000E+00  0.10566000000E+00 0. -1.
     999900   -1    0    0    0    0 -0.00000000000E+00 -0.00000000000E+00 -0.74505805969E-08  0.93827000000E+00  0.93827000000E+00 0. -1.
     999902    2    1    2    0    0  0.69632020125E-02  0.73539304252E-02  0.91938142949E-02  0.10302518168E+01  0.10301610133E+01 0.  0.
     999903    2    3    3    0    0  0.12805266314E+00  0.57866079526E-02  0.39965259426E-01  0.14142562683E+00  0.44418651439E-01 0.  0.
         14    1    1    2    0    0 -0.69632020125E-02 -0.73539304252E-02 -0.91938142949E-02  0.13678183222E-01  0.00000000000E+00 0.  1.
     999901    1    3    3    0    0 -0.12108946113E+00  0.15673224726E-02 -0.30771445131E-01  0.88882618994E+00  0.88000000000E+00 0. -1.
        -11    1    4    4    0    0  0.40688957142E-01 -0.10882405007E-01  0.30452341894E-01  0.51977150941E-01  0.51100000000E-03 0.  1.
         11    1    4    4    0    0  0.87363705997E-01  0.16669012960E-01  0.95129175311E-02  0.89448475893E-01  0.51100000000E-03 0. -1.
</event>
<event>
 8    1  0.2077555E+004  0.1043930E+01  0.7957747E-01            NaN
         13   -1    0    0    0    0  0.00000000000E+00  0.00000000000E+00  0.74505805969E-08  0.10566000000E+00  0.10566000000E+00 0. -1.
     999900   -1    0    0    0    0 -0.00000000000E+00 -0.00000000000E+00 -0.74505805969E-08  0.93827000000E+00  0.93827000000E+00 0.  1.
     999902    2    1    2    0    0  0.12085234145E-01 -0.59162342646E-02  0.45721543630E-02  0.10297187612E+01  0.10296206913E+01 0.  0.
     999903    2    3    3    0    0 -0.63455234914E-01 -0.11086338490E+00 -0.33110544802E-01  0.13947146259E+00  0.45152228646E-01 0.  0.
         14    1    1    2    0    0 -0.12085234145E-01  0.59162342646E-02 -0.45721543630E-02  0.14211238783E-01  0.00000000000E+00 0.  1.
     999901    1    3    3    0    0  0.75540469059E-01  0.10494715063E+00  0.37682699165E-01  0.89024729862E+00  0.88000000000E+00 0. -1.
        -11    1    4    4    0    0 -0.53803670235E-01 -0.55041071958E-01 -0.76189977097E-02  0.77347687620E-01  0.51100000000E-03 0. -1.
         11    1    4    4    0    0 -0.96515646788E-02 -0.55822312940E-01 -0.25491547093E-01  0.62123774973E-01  0.51100000000E-03 0.  1.
</event>
<event>
 8    1  0.2077555E+004  0.1043930E+01  0.7957747E-01            NaN
         13   -1    0    0    0    0  0.00000000000E+00  0.00000000000E+00  0.74505805969E-08  0.10566000000E+00  0.10566000000E+00 0.  1.
     999900   -1    0    0    0    0 -0.00000000000E+00 -0.00000000000E+00 -0.74505805969E-08  0.93827000000E+00  0.93827000000E+00 0. -1.
     999902    2    1    2    0    0  0.78951611020E-02  0.32591950932E-02  0.10049979339E-01  0.10307406859E+01  0.10306562975E+01 0.  0.
     999903    2    3    3    0    0  0.14813858330E-01  0.13166062324E+00 -0.10568511367E-01  0.14115655988E+00  0.47534312378E-01 0.  0.
         14    1    1    2    0    0 -0.78951611020E-02 -0.32591950932E-02 -0.10049979339E-01  0.13189314091E-01  0.00000000000E+00 0.  1.
     999901    1    3    3    0    0 -0.69186972277E-02 -0.12840142815E+00  0.20618490705E-01  0.88958412603E+00  0.88000000000E+00 0.  1.
        -11    1    4    4    0    0 -0.22098228449E-02  0.42548429673E-01 -0.24832448265E-01  0.49316972661E-01  0.51100000000E-03 0.  1.
         11    1    4    4    0    0  0.17023681175E-01  0.89112193571E-01  0.14263936899E-01  0.91839587219E-01  0.51100000000E-03 0. -1.
</event>
<event>
 8    1  0.2077555E+004  0.1043930E+01  0.7957747E-01            NaN
         13   -1    0    0    0    0  0.00000000000E+00  0.00000000000E+00  0.74505805969E-08  0.10566000000E+00  0.10566000000E+00 0.  1.
     999900   -1    0    0    0    0 -0.00000000000E+00 -0.00000000000E+00 -0.74505805969E-08  0.93827000000E+00  0.93827000000E+00 0.  1.
     999902    2    1    2    0    0  0.18707787715E-01 -0.68987833111E-02  0.30593770400E-02  0.10237573869E+01  0.10235586221E+01 0.  0.
     999903    2    3    3    0    0 -0.68442338269E-01  0.58403468609E-01 -0.85864121874E-01  0.13259695394E+00  0.45978103015E-01 0.  0.
         14    1    1    2    0    0 -0.18707787715E-01  0.68987833111E-02 -0.30593770400E-02  0.20172613123E-01  0.00000000000E+00 0.  1.
     999901    1    3    3    0    0  0.87150125983E-01 -0.65302251921E-01  0.88923498914E-01  0.89116043293E+00  0.88000000000E+00 0. -1.
        -11    1    4    4    0    0 -0.61276358515E-02  0.20652621583E-01 -0.22090597714E-02  0.21661481146E-01  0.51100000000E-03 0. -1.
         11    1    4    4    0    0 -0.62314702417E-01  0.37750847026E-01 -0.83655062103E-01  0.11093547280E+00  0.51100000000E-03 0.  1.
</event>
<event>
 8    1  0.2077555E+004  0.1043930E+01  0.7957747E-01            NaN
         13   -1    0    0    0    0  0.00000000000E+00  0.00000000000E+00  0.74505805969E-08  0.10566000000E+00  0.10566000000E+00 0. -1.
     999900   -1    0    0    0    0 -0.00000000000E+00 -0.00000000000E+00 -0.74505805969E-08  0.93827000000E+00  0.93827000000E+00 0. -1.
     999902    2    1    2    0    0  0.76811733853E-02  0.30352235754E-02  0.12293964053E-01  0.10291193768E+01  0.10290127974E+01 0.  0.
     999903    2    3    3    0    0 -0.11355410866E+00 -0.36211867761E-01 -0.51700078690E-01  0.13764107350E+00  0.45456924867E-01 0.  0.
         14    1    1    2    0    0 -0.76811733853E-02 -0.30352235754E-02 -0.12293964053E-01  0.14810623176E-01  0.00000000000E+00 0.  1.
     999901    1    3    3    0    0  0.12123528204E+00  0.39247091337E-01  0.63994042743E-01  0.89147830332E+00  0.88000000000E+00 0.  1.
        -11    1    4    4    0    0 -0.24564993104E-01 -0.25138962004E-01 -0.22265518845E-02  0.35222506315E-01  0.51100000000E-03 0. -1.
         11    1    4    4    0    0 -0.88989115552E-01 -0.11072905757E-01 -0.49473526805E-01  0.10241856718E+00  0.51100000000E-03 0.  1.
</event>
<event>
 8    1  0.2077555E+004  0.1043930E+01  0.7957747E-01            NaN
         13   -1    0    0    0    0  0.00000000000E+00  0.00000000000E+00  0.74505805969E-08  0.10566000000E+00  0.10566000000E+00 0.  1.
     999900   -1    0    0    0    0 -0.00000000000E+00 -0.00000000000E+00 -0.74505805969E-08  0.93827000000E+00  0.93827000000E+00 0. -1.
     999902    2    1    2    0    0 -0.14122879376E-01  0.69470453162E-02 -0.67215254652E-03  0.10281766210E+01  0.10280559299E+01 0.  0.
     999903    2    3    3    0    0 -0.24526857051E-01 -0.12095851620E+00 -0.41694988683E-01  0.13792331520E+00  0.45297234326E-01 0.  0.
         14    1    1    2    0    0  0.14122879376E-01 -0.69470453162E-02  0.67215254652E-03  0.15753378988E-01  0.00000000000E+00 0. -1.
     999901    1    3    3    0    0  0.10403977675E-01  0.12790556152E+00  0.41022836136E-01  0.89025330581E+00  0.88000000000E+00 0.  1.
        -11    1    4    4    0    0 -0.77709277218E-02 -0.64109409639E-01  0.14770081598E-02  0.64597572679E-01  0.51100000000E-03 0.  1.
         11    1    4    4    0    0 -0.16755929329E-01 -0.56849106560E-01 -0.43171996843E-01  0.73325742525E-01  0.51100000000E-03 0. -1.
</event>
<event>
 8    1  0.2077555E+004  0.1043930E+01  0.7957747E-01            NaN
         13   -1    0    0    0    0  0.00000000000E+00  0.00000000000E+00  0.74505805969E-08  0.10566000000E+00  0.10566000000E+00 0. -1.
     999900   -1    0    0    0    0 -0.00000000000E+00 -0.00000000000E+00 -0.74505805969E-08  0.93827000000E+00  0.93827000000E+00 0. -1.
     999902    2    1    2    0    0  0.70105523697E-02 -0.38734378904E-02 -0.11385305093E-01  0.10300096359E+01  0.10299155662E+01 0.  0.
     999903    2    3    3    0    0 -0.49653702444E-01 -0.10031670229E+00 -0.72236222445E-01  0.14084431087E+00  0.45717799016E-01 0.  0.
         14    1    1    2    0    0 -0.70105523697E-02  0.38734378904E-02  0.11385305093E-01  0.13920364136E-01  0.00000000000E+00 0. -1.
     999901    1    3    3    0    0  0.56664254813E-01  0.96443264404E-01  0.60850917352E-01  0.88916532499E+00  0.88000000000E+00 0. -1.
        -11    1    4    4    0    0 -0.25551116894E-01 -0.42825637286E-01 -0.58746425713E-01  0.77060355816E-01  0.51100000000E-03 0.  1.
         11    1    4    4    0    0 -0.24102585550E-01 -0.57491065008E-01 -0.13489796732E-01  0.63783955058E-01  0.51100000000E-03 0. -1.
</event>
<event>
 8    1  0.2077555E+004  0.1043930E+01  0.7957747E-01            NaN
         13   -1    0    0    0    0  0.00000000000E+00  0.00000000000E+00  0.74505805969E-08  0.10566000000E+00  0.10566000000E+00 0. -1.
     999900   -1    0    0    0    0 -0.00000000000E+00 -0.00000000000E+00 -0.74505805969E-08  0.93827000000E+00  0.93827000000E+00 0. -1.
     999902    2    1    2    0    0  0.13483978573E-03  0.87396754886E-02 -0.11549198651E-01  0.10294460745E+01  0.10293441777E+01 0.  0.
     999903    2    3    3    0    0  0.56191129217E-01 -0.13809397689E-01  0.11684599083E+00  0.13807853357E+00  0.45437356773E-01 0.  0.
         14    1    1    2    0    0 -0.13483978573E-03 -0.87396754886E-02  0.11549198651E-01  0.14483925534E-01  0.00000000000E+00 0. -1.
     999901    1    3    3    0    0 -0.56056289432E-01  0.22549073178E-01 -0.12839518948E+00  0.89136754090E+00  0.88000000000E+00 0. -1.
        -11    1    4    4    0    0  0.30301706999E-01 -0.30144915032E-01  0.62897241069E-01  0.76047573297E-01  0.51100000000E-03 0. -1.
         11    1    4    4    0    0  0.25889422218E-01  0.16335517343E-01  0.53948749766E-01  0.62030960269E-01  0.51100000000E-03 0.  1.
</event>
<event>
 8    1  0.2077555E+004  0.1043930E+01  0.7957747E-01            NaN
         13   -1    0    0    0    0  0.00000000000E+00  0.00000000000E+00  0.74505805969E-08  0.10566000000E+00  0.10566000000E+00 0. -1.
     999900   -1    0    0    0    0 -0.00000000000E+00 -0.00000000000E+00 -0.74505805969E-08  0.93827000000E+00  0.93827000000E+00 0.  1.
     999902    2    1    2    0    0  0.24748013073E-02 -0.24992856738E-02  0.13605973491E-01  0.10298767589E+01  0.10297808723E+01 0.  0.
     999903    2    3    3    0    0 -0.75207103002E-01  0.88657674271E-01 -0.60450170196E-01  0.13868184083E+00  0.45410773497E-01 0.  0.
         14    1    1    2    0    0 -0.24748013073E-02  0.24992856738E-02 -0.13605973491E-01  0.14053241086E-01  0.00000000000E+00 0.  1.
     999901    1    3    3    0    0  0.77681904310E-01 -0.91156959945E-01  0.74056143687E-01  0.89119491809E+00  0.88000000000E+00 0. -1.
        -11    1    4    4    0    0 -0.20451600418E-01  0.56915219763E-01 -0.38480925523E-01  0.71684398236E-01  0.51100000000E-03 0. -1.
         11    1    4    4    0    0 -0.54755502584E-01  0.31742454508E-01 -0.21969244673E-01  0.66997442593E-01  0.51100000000E-03 0.  1.
</event>
<event>
 8    1  0.2243973E+004  0.1043930E+01  0.7957747E-01            NaN
         13   -1    0    0    0    0  0.00000000000E+00  0.00000000000E+00  0.74505805969E-08  0.10566000000E+00  0.10566000000E+00 0. -1.
     999900   -1    0    0    0    0 -0.00000000000E+00 -0.00000000000E+00 -0.74505805969E-08  0.93827000000E+00  0.93827000000E+00 0.  1.
     999902    2    1    2    0    0  0.39051792978E-03 -0.11034312299E-01  0.87622326693E-02  0.10298344236E+01  0.10297379544E+01 0.  0.
     999903    2    3    3    0    0  0.58180301273E-01 -0.11862111776E+00 -0.17686781050E-01  0.14100703312E+00  0.45980910528E-01 0.  0.
         14    1    1    2    0    0 -0.39051792978E-03  0.11034312299E-01 -0.87622326693E-02  0.14095576381E-01  0.00000000000E+00 0.  1.
     999901    1    3    3    0    0 -0.57789783343E-01  0.10758680546E+00  0.26449013719E-01  0.88882739049E+00  0.88000000000E+00 0. -1.
        -11    1    4    4    0    0  0.42776212515E-01 -0.47423913122E-01  0.66259518746E-02  0.64210561843E-01  0.51100000000E-03 0.  1.
         11    1    4    4    0    0  0.15404088758E-01 -0.71197204633E-01 -0.24312732924E-01  0.76796471282E-01  0.51100000000E-03 0. -1.
</event>
<event>
 8    1  0.2077555E+004  0.1043930E+01  0.7957747E-01            NaN
         13   -1    0    0    0    0  0.00000000000E+00  0.00000000000E+00  0.74505805969E-08  0.10566000000E+00  0.10566000000E+00 0. -1.
     999900   -1    0    0    0    0 -0.00000000000E+00 -0.00000000000E+00 -0.74505805969E-08  0.93827000000E+00  0.93827000000E+00 0. -1.
     999902    2    1    2    0    0 -0.57082362661E-02 -0.12263388396E-01  0.23303161006E-02  0.10302039288E+01  0.10301124841E+01 0.  0.
     999903    2    3    3    0    0 -0.12270396462E+00  0.17197560154E-01 -0.49676188779E-01  0.14045080326E+00  0.43665608847E-01 0.  0.
         14    1    1    2    0    0  0.57082362661E-02  0.12263388396E-01 -0.23303161006E-02  0.13726071155E-01  0.00000000000E+00 0. -1.
     999901    1    3    3    0    0  0.11699572835E+00 -0.29460948550E-01  0.52006504880E-01  0.88975312559E+00  0.88000000000E+00 0.  1.
        -11    1    4    4    0    0 -0.49090842444E-01  0.11971904649E-01  0.16470810201E-02  0.50558988416E-01  0.51100000000E-03 0. -1.
         11    1    4    4    0    0 -0.73613122175E-01  0.52256555045E-02 -0.51323269799E-01  0.89891814842E-01  0.51100000000E-03 0.  1.
</event>
<event>
 8    1  0.2077555E+004  0.1043930E+01  0.7957747E-01            NaN
         13   -1    0    0    0    0  0.00000000000E+00  0.00000000000E+00  0.74505805969E-08  0.10566000000E+00  0.10566000000E+00 0.  1.
     999900   -1    0    0    0    0 -0.00000000000E+00 -0.00000000000E+00 -0.74505805969E-08  0.93827000000E+00  0.93827000000E+00 0.  1.
     999902    2    1    2    0    0  0.32110405522E-02 -0.11758089177E-01  0.62960087620E-02  0.10302112840E+01  0.10301199379E+01 0.  0.
     999903    2    3    3    0    0 -0.95186200094E-01 -0.93613194450E-01 -0.76482156185E-02  0.14084256596E+00  0.44207355951E-01 0.  0.
         14    1    1    2    0    0 -0.32110405522E-02  0.11758089177E-01 -0.62960087620E-02  0.13718716006E-01  0.00000000000E+00 0. -1.
     999901    1    3    3    0    0  0.98397240647E-01  0.81855105273E-01  0.13944224381E-01  0.88936871804E+00  0.88000000000E+00 0.  1.
        -11    1    4    4    0    0 -0.36951350189E-01 -0.66834429944E-01 -0.75554603197E-02  0.76743660378E-01  0.51100000000E-03 0. -1.
         11    1    4    4    0    0 -0.58234849906E-01 -0.26778764506E-01 -0.92755298796E-04  0.64098905580E-01  0.51100000000E-03 0.  1.
</event>
<event>
 8    1  0.2077555E+004  0.1043930E+01  0.7957747E-01            NaN
         13   -1    0    0    0    0  0.00000000000E+00  0.00000000000E+00  0.74505805969E-08  0.10566000000E+00  0.10566000000E+00 0. -1.
     999900   -1    0    0    0    0 -0.00000000000E+00 -0.00000000000E+00 -0.74505805969E-08  0.93827000000E+00  0.93827000000E+00 0. -1.
     999902    2    1    2    0    0 -0.12563975900E-01  0.50335220269E-02  0.44607585301E-02  0.10296790982E+01  0.10295804763E+01 0.  0.
     999903    2    3    3    0    0 -0.25418691893E-01  0.78214208924E-01  0.10500816546E+00  0.14084253413E+00  0.45236403831E-01 0.  0.
         14    1    1    2    0    0  0.12563975900E-01 -0.50335220269E-02 -0.44607585301E-02  0.14250901764E-01  0.00000000000E+00 0. -1.
     999901    1    3    3    0    0  0.12854715993E-01 -0.73180686897E-01 -0.10054740693E+00  0.88883656411E+00  0.88000000000E+00 0. -1.
        -11    1    4    4    0    0 -0.12182552346E-01  0.67551526841E-01  0.54805037884E-01  0.87837786053E-01  0.51100000000E-03 0.  1.
         11    1    4    4    0    0 -0.13236139547E-01  0.10662682083E-01  0.50203127572E-01  0.53004748074E-01  0.51100000000E-03 0. -1.
</event>
<event>
 8    1  0.2077555E+004  0.1043930E+01  0.7957747E-01            NaN
         13   -1    0    0    0    0  0.00000000000E+00  0.00000000000E+00  0.74505805969E-08  0.10566000000E+00  0.10566000000E+00 0.  1.
     999900   -1    0    0    0    0 -0.00000000000E+00 -0.00000000000E+00 -0.74505805969E-08  0.93827000000E+00  0.93827000000E+00 0.  1.
     999902    2    1    2    0    0  0.52760581742E-02 -0.61110718768E-02  0.11660174928E-01  0.10297475577E+01  0.10296498876E+01 0.  0.
     999903    2    3    3    0    0 -0.10245096124E+00 -0.49730638865E-01  0.68604762566E-01  0.14028116523E+00  0.44753278879E-01 0.  0.
         14    1    1    2    0    0 -0.52760581742E-02  0.61110718768E-02 -0.11660174928E-01  0.14182442269E-01  0.00000000000E+00 0. -1.
     999901    1    3    3    0    0  0.10772701941E+00  0.43619566988E-01 -0.56944587638E-01  0.88946639251E+00  0.88000000000E+00 0.  1.
        -11    1    4    4    0    0 -0.28381830644E-02 -0.10601071975E-01  0.19823747744E-01  0.22664512034E-01  0.51100000000E-03 0. -1.
         11    1    4    4    0    0 -0.99612778171E-01 -0.39129566890E-01  0.48781014822E-01  0.11761665319E+00  0.51100000000E-03 0.  1.
</event>
<event>
 8    1  0.2077555E+004  0.1043930E+01  0.7957747E-01            NaN
         13   -1    0    0    0    0  0.00000000000E+00  0.00000000000E+00  0.74505805969E-08  0.10566000000E+00  0.10566000000E+00 0.  1.
     999900   -1    0    0    0    0 -0.00000000000E+00 -0.00000000000E+00 -0.74505805969E-08  0.93827000000E+00  0.93827000000E+00 0. -1.
     999902    2    1    2    0    0 -0.58283883894E-02 -0.67280680321E-02  0.77190722847E-02  0.10321477639E+01  0.10320805131E+01 0.  0.
     999903    2    3    3    0    0  0.13337373205E+00 -0.45906443220E-02 -0.17051514901E-01  0.14085915693E+00  0.41724351591E-01 0.  0.
         14    1    1    2    0    0  0.58283883894E-02  0.67280680321E-02 -0.77190722847E-02  0.11782236104E-01  0.00000000000E+00 0. -1.
     999901    1    3    3    0    0 -0.13920212044E+00 -0.21374237101E-02  0.24770587186E-01  0.89128860696E+00  0.88000000000E+00 0. -1.
        -11    1    4    4    0    0  0.36149915747E-01 -0.16972100006E-01  0.54214561714E-02  0.40305358145E-01  0.51100000000E-03 0. -1.
         11    1    4    4    0    0  0.97223816300E-01  0.12381455684E-01 -0.22472971073E-01  0.10055379879E+00  0.51100000000E-03 0.  1.
</event>
<event>
 8    1  0.2077555E+004  0.1043930E+01  0.7957747E-01            NaN
         13   -1    0    0    0    0  0.00000000000E+00  0.00000000000E+00  0.74505805969E-08  0.10566000000E+00  0.10566000000E+00 0. -1.
     999900   -1    0    0    0    0 -0.00000000000E+00 -0.00000000000E+00 -0.74505805969E-08  0.93827000000E+00  0.93827000000E+00 0. -1.
     999902    2    1    2    0    0  0.82058081819E-02 -0.67428783145E-03  0.49057896606E-02  0.10343458086E+01  0.10343014044E+01 0.  0.
     999903    2    3    3    0    0  0.65527396558E-01  0.76928530166E-02 -0.11929171151E+00  0.14373882862E+00  0.45577612182E-01 0.  0.
         14    1    1    2    0    0 -0.82058081819E-02  0.67428783145E-03 -0.49057896606E-02  0.95841913687E-02  0.00000000000E+00 0.  1.
     999901    1    3    3    0    0 -0.57321588376E-01 -0.83671408480E-02  0.12419750117E+00  0.89060698001E+00  0.88000000000E+00 0.  1.
        -11    1    4    4    0    0 -0.35750761952E-02  0.12810111662E-02 -0.31960759003E-01  0.32189647349E-01  0.51100000000E-03 0. -1.
         11    1    4    4    0    0  0.69102472753E-01  0.64118418504E-02 -0.87330952507E-01  0.11154918128E+00  0.51100000000E-03 0.  1.
</event>
<event>
 8    1  0.2077555E+004  0.1043930E+01  0.7957747E-01            NaN
         13   -1    0    0    0    0  0.00000000000E+00  0.00000000000E+00  0.74505805969E-08  0.10566000000E+00  0.10566000000E+00 0.  1.
     999900   -1    0    0    0    0 -0.00000000000E+00 -0.00000000000E+00 -0.74505805969E-08  0.93827000000E+00  0.93827000000E+00 0. -1.
     999902    2    1    2    0    0  0.21306795445E-02  0.35934392042E-02 -0.12722833168E-01  0.10305388430E+01  0.10304518349E+01 0.  0.
     999903    2    3    3    0    0 -0.39549154260E-01  0.54437342891E-01 -0.11626741956E+00  0.14203234760E+00  0.46124993335E-01 0.  0.
         14    1    1    2    0    0 -0.21306795445E-02 -0.35934392042E-02  0.12722833168E-01  0.13391156950E-01  0.00000000000E+00 0.  1.
     999901    1    3    3    0    0  0.41679833805E-01 -0.50843903686E-01  0.10354458639E+00  0.88850649545E+00  0.88000000000E+00 0.  1.
        -11    1    4    4    0    0 -0.46979052705E-01  0.42089832088E-01 -0.10887627786E+00  0.12582881371E+00  0.51100000000E-03 0.  1.
         11    1    4    4    0    0  0.74298984447E-02  0.12347510802E-01 -0.73911417019E-02  0.16203533892E-01  0.51100000000E-03 0. -1.
</event>
<event>
 8    1  0.2077555E+004  0.1043930E+01  0.7957747E-01            NaN
         13   -1    0    0    0    0  0.00000000000E+00  0.00000000000E+00  0.74505805969E-08  0.10566000000E+00  0.10566000000E+00 0. -1.
     999900   -1    0    0    0    0 -0.00000000000E+00 -0.00000000000E+00 -0.74505805969E-08  0.93827000000E+00  0.93827000000E+00 0. -1.
     999902    2    1    2    0    0  0.10316046703E-01 -0.63393884435E-03  0.94983931165E-02  0.10298928290E+01  0.10297971631E+01 0.  0.
     999903    2    3    3    0    0 -0.64638455609E-01 -0.67868947697E-02 -0.11357614101E+00  0.13815106299E+00  0.44294294381E-01 0.  0.
         14    1    1    2    0    0 -0.10316046703E-01  0.63393884435E-03 -0.94983931165E-02  0.14037171006E-01  0.00000000000E+00 0.  1.
     999901    1    3    3    0    0  0.74954502313E-01  0.61529559254E-02  0.12307453413E+00  0.89174176600E+00  0.88000000000E+00 0.  1.
        -11    1    4    4    0    0  0.65466496581E-02 -0.13648296837E-02 -0.15059755971E-01  0.16485713594E-01  0.51100000000E-03 0.  1.
         11    1    4    4    0    0 -0.71185105268E-01 -0.54220650860E-02 -0.98516385039E-01  0.12166534940E+00  0.51100000000E-03 0. -1.
</event>
<event>
 8    1  0.2077555E+004  0.1043930E+01  0.7957747E-01            NaN
         13   -1    0    0    0    0  0.00000000000E+00  0.00000000000E+00  0.74505805969E-08  0.10566000000E+00  0.10566000000E+00 0.  1.
     999900   -1    0    0    0    0 -0.00000000000E+00 -0.00000000000E+00 -0.74505805969E-08  0.93827000000E+00  0.93827000000E+00 0.  1.
     999902    2    1    2    0    0 -0.28636779600E-02 -0.11177231178E-01 -0.74248155299E-02  0.10302092481E+01  0.10301178747E+01 0.  0.
     999903    2    3    3    0    0 -0.26339541861E-01 -0.12328966478E+00  0.44956588066E-01  0.14124123660E+00  0.45098549847E-01 0.  0.
         14    1    1    2    0    0  0.28636779600E-02  0.11177231178E-01  0.74248155299E-02  0.13720751945E-01  0.00000000000E+00 0.  1.
     999901    1    3    3    0    0  0.23475863901E-01  0.11211243360E+00 -0.52381403596E-01  0.88896801146E+00  0.88000000000E+00 0. -1.
        -11    1    4    4    0    0 -0.34966390592E-01 -0.11238782844E+00  0.31405582861E-01  0.12182054100E+00  0.51100000000E-03 0. -1.
         11    1    4    4    0    0  0.86268487307E-02 -0.10901836337E-01  0.13551005205E-01  0.19420695600E-01  0.51100000000E-03 0.  1.
</event>
<event>
 8    1  0.2077555E+004  0.1043930E+01  0.7957747E-01            NaN
         13   -1    0    0    0    0  0.00000000000E+00  0.00000000000E+00  0.74505805969E-08  0.10566000000E+00  0.10566000000E+00 0. -1.
     999900   -1    0    0    0    0 -0.00000000000E+00 -0.00000000000E+00 -0.74505805969E-08  0.93827000000E+00  0.93827000000E+00 0. -1.
     999902    2    1    2    0    0 -0.25217848555E-03 -0.15154152062E-01  0.20183389315E-02  0.10286399506E+01  0.10285263061E+01 0.  0.
     999903    2    3    3    0    0  0.11151077408E+00  0.48057230955E-01 -0.47274076433E-01  0.13795685391E+00  0.45311202329E-01 0.  0.
         14    1    1    2    0    0  0.25217848555E-03  0.15154152062E-01 -0.20183389315E-02  0.15290049403E-01  0.00000000000E+00 0.  1.
     999901    1    3    3    0    0 -0.11176295256E+00 -0.63211383017E-01  0.49292415364E-01  0.89068309669E+00  0.88000000000E+00 0. -1.
        -11    1    4    4    0    0  0.48025474579E-01  0.44428356850E-01 -0.30527472670E-01  0.72197734102E-01  0.51100000000E-03 0.  1.
         11    1    4    4    0    0  0.63485299498E-01  0.36288741053E-02 -0.16746603763E-01  0.65759119810E-01  0.51100000000E-03 0. -1.
</event>
<event>
 8    1  0.2077555E+004  0.1043930E+01  0.7957747E-01            NaN
         13   -1    0    0    0    0  0.00000000000E+00  0.00000000000E+00  0.74505805969E-08  0.10566000000E+00  0.10566000000E+00 0. -1.
     999900   -1    0    0    0    0 -0.00000000000E+00 -0.00000000000E+00 -0.74505805969E-08  0.93827000000E+00  0.93827000000E+00 0. -1.
     999902    2    1    2    0    0  0.13099658545E-01  0.32752458938E-03 -0.91010955012E-02  0.10279757446E+01  0.10278519316E+01 0.  0.
     999903    2    3    3    0    0 -0.45740203498E-01 -0.12265872392E-01 -0.12233239832E+00  0.13868273835E+00  0.45000759939E-01 0.  0.
         14    1    1    2    0    0 -0.13099658545E-01 -0.32752458938E-03  0.91010955012E-02  0.15954255410E-01  0.00000000000E+00 0.  1.
     999901    1    3    3    0    0  0.58839862043E-01  0.12593396982E-01  0.11323130282E+00  0.88929300624E+00  0.88000000000E+00 0.  1.
        -11    1    4    4    0    0 -0.45025134538E-01 -0.25490390090E-01 -0.10265656675E+00  0.11495936041E+00  0.51100000000E-03 0.  1.
         11    1    4    4    0    0 -0.71506896033E-03  0.13224517697E-01 -0.19675831567E-01  0.23723377938E-01  0.51100000000E-03 0. -1.
</event>
<event>
 8    1  0.2077555E+004  0.1043930E+01  0.7957747E-01            NaN
         13   -1    0    0    0    0  0.00000000000E+00  0.00000000000E+00  0.74505805969E-08  0.10566000000E+00  0.10566000000E+00 0.  1.
     999900   -1    0    0    0    0 -0.00000000000E+00 -0.00000000000E+00 -0.74505805969E-08  0.93827000000E+00  0.93827000000E+00 0. -1.
     999902    2    1    2    0    0 -0.63143930478E-02  0.73990980583E-02  0.80956518531E-02  0.10312746537E+01  0.10311970003E+01 0.  0.
     999903    2    3    3    0    0  0.10698136735E+00 -0.77823245468E-01 -0.45614488431E-02  0.13983818406E+00  0.45082595446E-01 0.  0.
         14    1    1    2    0    0  0.63143930478E-02 -0.73990980583E-02 -0.80956518531E-02  0.12655346323E-01  0.00000000000E+00 0. -1.
     999901    1    3    3    0    0 -0.11329576039E+00  0.85222343526E-01  0.12657100696E-01  0.89143646961E+00  0.88000000000E+00 0.  1.
        -11    1    4    4    0    0  0.80443680459E-01 -0.69870513953E-01  0.12524155054E-01  0.10728555367E+00  0.51100000000E-03 0.  1.
         11    1    4    4    0    0  0.26537686887E-01 -0.79527315146E-02 -0.17085603897E-01  0.32552630391E-01  0.51100000000E-03 0. -1.
</event>
<event>
 7    1  0.2077555E+004  0.1043930E+01  0.7957747E-01            NaN
         13   -1    0    0    0    0  0.00000000000E+00  0.00000000000E+00  0.74505805969E-08  0.10566000000E+00  0.10566000000E+00 0.  1.
     999900   -1    0    0    0    0 -0.00000000000E+00 -0.00000000000E+00 -0.74505805969E-08  0.93827000000E+00  0.93827000000E+00 0. -1.
     999902    2    1    2    0    0  0.94147159175E-02 -0.98885465354E-02 -0.48241155917E-02  0.10294492431E+01  0.10293473912E+01 0.  0.
         14    1    1    2    0    0 -0.94147159175E-02  0.98885465354E-02  0.48241155917E-02  0.14480756874E-01  0.00000000000E+00 0.  1.
     999901    1    3    3    0    0  0.14423243513E-01 -0.60644546211E-01  0.10333709324E+00  0.88823664965E+00  0.88000000000E+00 0.  1.
        -11    1    3    3    0    0 -0.16777940709E-01 -0.13485588304E-01 -0.47160772971E-01  0.51843611126E-01  0.51100000000E-03 0.  1.
         11    1    3    3    0    0  0.11769413113E-01  0.64241587980E-01 -0.61000435856E-01  0.89368982353E-01  0.51100000000E-03 0. -1.
</event>
<event>
 8    1  0.2077555E+004  0.1043930E+01  0.7957747E-01            NaN
         13   -1    0    0    0    0  0.00000000000E+00  0.00000000000E+00  0.74505805969E-08  0.10566000000E+00  0.10566000000E+00 0. -1.
     999900   -1    0    0    0    0 -0.00000000000E+00 -0.00000000000E+00 -0.74505805969E-08  0.93827000000E+00  0.93827000000E+00 0. -1.
     999902    2    1    2    0    0  0.56543309608E-02 -0.31603472349E-02 -0.21691266098E-02  0.10370988681E+01  0.10370763703E+01 0.  0.
     999903    2    3    3    0    0  0.11820294672E-01  0.42871181335E-01 -0.13195494443E+00  0.14636811232E+00  0.45098330226E-01 0.  0.
         14    1    1    2    0    0 -0.56543309608E-02  0.31603472349E-02  0.21691266098E-02  0.68311319347E-02  0.00000000000E+00 0. -1.
     999901    1    3    3    0    0 -0.61659637115E-02 -0.46031528570E-01  0.12978581782E+00  0.89073075575E+00  0.88000000000E+00 0.  1.
        -11    1    4    4    0    0  0.24546988890E-01  0.80179432256E-02 -0.46215999837E-01  0.52943572217E-01  0.51100000000E-03 0. -1.
         11    1    4    4    0    0 -0.12726694218E-01  0.34853238109E-01 -0.85738944590E-01  0.93424540100E-01  0.51100000000E-03 0.  1.
</event>
<event>
 8    1  0.2077555E+004  0.1043930E+01  0.7957747E-01            NaN
         13   -1    0    0    0    0  0.00000000000E+00  0.00000000000E+00  0.74505805969E-08  0.10566000000E+00  0.10566000000E+00 0.  1.
     999900   -1    0    0    0    0 -0.00000000000E+00 -0.00000000000E+00 -0.74505805969E-08  0.93827000000E+00  0.93827000000E+00 0. -1.
     999902    2    1    2    0    0  0.13221913457E-01 -0.51932276608E-02 -0.42897119750E-02  0.10290911915E+01  0.10289842031E+01 0.  0.
     999903    2    3    3    0    0 -0.89355509232E-02 -0.12471896842E+00 -0.34343567810E-01  0.14022641540E+00  0.53378851360E-01 0.  0.
         14    1    1    2    0    0 -0.13221913457E-01  0.51932276608E-02  0.42897119750E-02  0.14838808504E-01  0.00000000000E+00 0.  1.
     999901    1    3    3    0    0  0.22157464380E-01  0.11952574076E+00  0.30053855835E-01  0.88886477609E+00  0.88000000000E+00 0.  1.
        -11    1    4    4    0    0  0.22399173797E-01 -0.46521438789E-01 -0.10770323380E-01  0.52746831568E-01  0.51100000000E-03 0.  1.
         11    1    4    4    0    0 -0.31334724721E-01 -0.78197529630E-01 -0.23573244429E-01  0.87479583833E-01  0.51100000000E-03 0. -1.
</event>
<event>
 8    1  0.2077555E+004  0.1043930E+01  0.7957747E-01            NaN
         13   -1    0    0    0    0  0.00000000000E+00  0.00000000000E+00  0.74505805969E-08  0.10566000000E+00  0.10566000000E+00 0.  1.
     999900   -1    0    0    0    0 -0.00000000000E+00 -0.00000000000E+00 -0.74505805969E-08  0.93827000000E+00  0.93827000000E+00 0. -1.
     999902    2    1    2    0    0 -0.49803061729E-02  0.11363755528E-01 -0.49885517711E-02  0.10305574895E+01  0.10304707250E+01 0.  0.
     999903    2    3    3    0    0  0.10241409288E+00  0.67603986465E-01 -0.49467334836E-01  0.14113358453E+00  0.49119507944E-01 0.  0.
         14    1    1    2    0    0  0.49803061729E-02 -0.11363755528E-01  0.49885517711E-02  0.13372510537E-01  0.00000000000E+00 0.  1.
     999901    1    3    3    0    0 -0.10739439905E+00 -0.56240230937E-01  0.44478783064E-01  0.88942390493E+00  0.88000000000E+00 0. -1.
        -11    1    4    4    0    0  0.48424614768E-02  0.26864233295E-02 -0.19345588497E-01  0.20129064031E-01  0.51100000000E-03 0. -1.
         11    1    4    4    0    0  0.97571631401E-01  0.64917563135E-01 -0.30121746338E-01  0.12100452050E+00  0.51100000000E-03 0.  1.
</event>
<event>
 8    1  0.2077555E+004  0.1043930E+01  0.7957747E-01            NaN
         13   -1    0    0    0    0  0.00000000000E+00  0.00000000000E+00  0.74505805969E-08  0.10566000000E+00  0.10566000000E+00 0.  1.
     999900   -1    0    0    0    0 -0.00000000000E+00 -0.00000000000E+00 -0.74505805969E-08  0.93827000000E+00  0.93827000000E+00 0. -1.
     999902    2    1    2    0    0 -0.20115486285E-02  0.94181258636E-02  0.98704396301E-02  0.10301396773E+01  0.10300473687E+01 0.  0.
     999903    2    3    3    0    0 -0.74578998878E-01  0.10649324580E+00  0.35840818872E-01  0.14145296399E+00  0.42679482788E-01 0.  0.
         14    1    1    2    0    0  0.20115486285E-02 -0.94181258636E-02 -0.98704396301E-02  0.13790322736E-01  0.00000000000E+00 0. -1.
     999901    1    3    3    0    0  0.72567450249E-01 -0.97075119933E-01 -0.25970379242E-01  0.88868671327E+00  0.88000000000E+00 0. -1.
        -11    1    4    4    0    0 -0.71502544344E-01  0.71180842557E-01  0.31729355803E-01  0.10576549218E+00  0.51100000000E-03 0. -1.
         11    1    4    4    0    0 -0.30764545343E-02  0.35312403240E-01  0.41114630691E-02  0.35687471817E-01  0.51100000000E-03 0.  1.
</event>
<event>
 8    1  0.2077555E+004  0.1043930E+01  0.7957747E-01            NaN
         13   -1    0    0    0    0  0.00000000000E+00  0.00000000000E+00  0.74505805969E-08  0.10566000000E+00  0.10566000000E+00 0.  1.
     999900   -1    0    0    0    0 -0.00000000000E+00 -0.00000000000E+00 -0.74505805969E-08  0.93827000000E+00  0.93827000000E+00 0.  1.
     999902    2    1    2    0    0 -0.10702416496E-01  0.30210125257E-02  0.89921981162E-02  0.10296286762E+01  0.10295293502E+01 0.  0.
     999903    2    3    3    0    0  0.12517477708E+00 -0.21487998437E-01  0.31931542378E-01  0.13856778217E+00  0.45287392991E-01 0.  0.
         14    1    1    2    0    0  0.10702416496E-01 -0.30210125257E-02 -0.89921981162E-02  0.14301323802E-01  0.00000000000E+00 0. -1.
     999901    1    3    3    0    0 -0.13587719357E+00  0.24509010963E-01 -0.22939344262E-01  0.89106089403E+00  0.88000000000E+00 0. -1.
        -11    1    4    4    0    0  0.36347201873E-01 -0.17407502100E-01  0.28898059533E-01  0.49593338052E-01  0.51100000000E-03 0. -1.
         11    1    4    4    0    0  0.88827575203E-01 -0.40804963371E-02  0.30334828445E-02  0.88974444117E-01  0.51100000000E-03 0.  1.
</event>
<event>
 8    1  0.2327282E+004  0.1043930E+01  0.7957747E-01            NaN
         13   -1    0    0    0    0  0.00000000000E+00  0.00000000000E+00  0.74505805969E-08  0.10566000000E+00  0.10566000000E+00 0.  1.
     999900   -1    0    0    0    0 -0.00000000000E+00 -0.00000000000E+00 -0.74505805969E-08  0.93827000000E+00  0.93827000000E+00 0.  1.
     999902    2    1    2    0    0 -0.12297265919E-03 -0.14283725875E-01 -0.10563606501E-02  0.10296067376E+01  0.10295071046E+01 0.  0.
     999903    2    3    3    0    0  0.13153141207E+00 -0.91848867269E-03 -0.13908878254E-01  0.13961983110E+00  0.44708884563E-01 0.  0.
         14    1    1    2    0    0  0.12297265919E-03  0.14283725875E-01  0.10563606501E-02  0.14323262371E-01  0.00000000000E+00 0.  1.
     999901    1    3    3    0    0 -0.13165438473E+00 -0.13365237202E-01  0.12852517604E-01  0.88998690653E+00  0.88000000000E+00 0.  1.
        -11    1    4    4    0    0  0.93648292170E-01 -0.35662642002E-02  0.10758649977E-01  0.94333082941E-01  0.51100000000E-03 0.  1.
         11    1    4    4    0    0  0.37883119902E-01  0.26477755275E-02 -0.24667528232E-01  0.45286748159E-01  0.51100000000E-03 0. -1.
</event>
<event>
 8    1  0.2077555E+004  0.1043930E+01  0.7957747E-01            NaN
         13   -1    0    0    0    0  0.00000000000E+00  0.00000000000E+00  0.74505805969E-08  0.10566000000E+00  0.10566000000E+00 0. -1.
     999900   -1    0    0    0    0 -0.00000000000E+00 -0.00000000000E+00 -0.74505805969E-08  0.93827000000E+00  0.93827000000E+00 0.  1.
     999902    2    1    2    0    0 -0.41901263794E-02 -0.35005837372E-02  0.12777161294E-01  0.10300351414E+01  0.10299414184E+01 0.  0.
     999903    2    3    3    0    0  0.12341122093E+00 -0.46457062594E-01  0.19256517143E-01  0.13977150347E+00  0.42150582595E-01 0.  0.
         14    1    1    2    0    0  0.41901263794E-02  0.35005837372E-02 -0.12777161294E-01  0.13894858629E-01  0.00000000000E+00 0.  1.
     999901    1    3    3    0    0 -0.12760134731E+00  0.42956478857E-01 -0.64793558490E-02  0.89026363790E+00  0.88000000000E+00 0.  1.
        -11    1    4    4    0    0  0.91429572193E-01 -0.13602397672E-01  0.15908529377E-01  0.93796238314E-01  0.51100000000E-03 0. -1.
         11    1    4    4    0    0  0.31981648742E-01 -0.32854664922E-01  0.33479877661E-02  0.45975265159E-01  0.51100000000E-03 0.  1.
</event>
<event>
 8    1  0.2077555E+004  0.1043930E+01  0.7957747E-01            NaN
         13   -1    0    0    0    0  0.00000000000E+00  0.00000000000E+00  0.74505805969E-08  0.10566000000E+00  0.10566000000E+00 0. -1.
     999900   -1    0    0    0    0 -0.00000000000E+00 -0.00000000000E+00 -0.74505805969E-08  0.93827000000E+00  0.93827000000E+00 0.  1.
     999902    2    1    2    0    0  0.14439684452E-01  0.61042475053E-02  0.15477231175E-01  0.10219002245E+01  0.10216627417E+01 0.  0.
     999903    2    3    3    0    0  0.11079419891E+00  0.20859695919E-01 -0.57108337266E-01  0.13354749022E+00  0.43163509274E-01 0.  0.
         14    1    1    2    0    0 -0.14439684452E-01 -0.61042475053E-02 -0.15477231175E-01  0.22029775522E-01  0.00000000000E+00 0.  1.
     999901    1    3    3    0    0 -0.96354514460E-01 -0.14755448414E-01  0.72585568442E-01  0.88835273426E+00  0.88000000000E+00 0. -1.
        -11    1    4    4    0    0  0.24773901814E-02  0.72939209444E-02 -0.14375462652E-01  0.16317285078E-01  0.51100000000E-03 0.  1.
         11    1    4    4    0    0  0.10831680873E+00  0.13565774975E-01 -0.42732874614E-01  0.11723020514E+00  0.51100000000E-03 0. -1.
</event>
<event>
 8    1  0.2077555E+004  0.1043930E+01  0.7957747E-01            NaN
         13   -1    0    0    0    0  0.00000000000E+00  0.00000000000E+00  0.74505805969E-08  0.10566000000E+00  0.10566000000E+00 0. -1.
     999900   -1    0    0    0    0 -0.00000000000E+00 -0.00000000000E+00 -0.74505805969E-08  0.93827000000E+00  0.93827000000E+00 0.  1.
     999902    2    1    2    0    0  0.12794359454E-01 -0.20230686094E-02  0.17260973526E-03  0.10309755323E+01  0.10308941410E+01 0.  0.
     999903    2    3    3    0    0  0.81431880375E-01  0.13985209437E-01  0.10598189531E+00  0.14183944641E+00  0.45382036074E-01 0.  0.
         14    1    1    2    0    0 -0.12794359454E-01  0.20230686094E-02 -0.17260973526E-03  0.12954467745E-01  0.00000000000E+00 0.  1.
     999901    1    3    3    0    0 -0.68637520922E-01 -0.16008278046E-01 -0.10580928558E+00  0.88913608585E+00  0.88000000000E+00 0.  1.
        -11    1    4    4    0    0  0.74109105350E-01  0.12307198151E-01  0.62541756688E-01  0.97751516985E-01  0.51100000000E-03 0.  1.
         11    1    4    4    0    0  0.73227750252E-02  0.16780112857E-02  0.43440138625E-01  0.44087929421E-01  0.51100000000E-03 0. -1.
</event>
<event>
 8    1  0.2077555E+004  0.1043930E+01  0.7957747E-01            NaN
         13   -1    0    0    0    0  0.00000000000E+00  0.00000000000E+00  0.74505805969E-08  0.10566000000E+00  0.10566000000E+00 0. -1.
     999900   -1    0    0    0    0 -0.00000000000E+00 -0.00000000000E+00 -0.74505805969E-08  0.93827000000E+00  0.93827000000E+00 0.  1.
     999902    2    1    2    0    0  0.13006648718E-01 -0.14857525878E-02 -0.68445898924E-03  0.10308208865E+01  0.10307375278E+01 0.  0.
     999903    2    3    3    0    0  0.32253305027E-01  0.29453038033E-01 -0.12635824371E+00  0.14114592190E+00  0.45254926595E-01 0.  0.
         14    1    1    2    0    0 -0.13006648718E-01  0.14857525878E-02  0.68445898924E-03  0.13109113461E-01  0.00000000000E+00 0.  1.
     999901    1    3    3    0    0 -0.19246656309E-01 -0.30938790621E-01  0.12567378472E+00  0.88967496464E+00  0.88000000000E+00 0. -1.
        -11    1    4    4    0    0  0.38794521984E-01  0.69069063248E-02 -0.78266748850E-01  0.87627994314E-01  0.51100000000E-03 0. -1.
         11    1    4    4    0    0 -0.65412169569E-02  0.22546131708E-01 -0.48091494857E-01  0.53517927584E-01  0.51100000000E-03 0.  1.
</event>
<event>
 8    1  0.2077555E+004  0.1043930E+01  0.7957747E-01            NaN
         13   -1    0    0    0    0  0.00000000000E+00  0.00000000000E+00  0.74505805969E-08  0.10566000000E+00  0.10566000000E+00 0. -1.
     999900   -1    0    0    0    0 -0.00000000000E+00 -0.00000000000E+00 -0.74505805969E-08  0.93827000000E+00  0.93827000000E+00 0. -1.
     999902    2    1    2    0    0  0.10577197427E-01  0.55791275289E-04  0.64600868633E-02  0.10315359312E+01  0.10314614702E+01 0.  0.
     999903    2    3    3    0    0  0.11127817615E+00 -0.15580883194E-01  0.76265833331E-01  0.14290888071E+00  0.44507015658E-01 0.  0.
         14    1    1    2    0    0 -0.10577197427E-01 -0.55791275289E-04 -0.64600868633E-02  0.12394068757E-01  0.00000000000E+00 0.  1.
     999901    1    3    3    0    0 -0.10070097872E+00  0.15636674470E-01 -0.69805746468E-01  0.88862705054E+00  0.88000000000E+00 0. -1.
        -11    1    4    4    0    0  0.12126691722E-01  0.11042712630E-01  0.19884871368E-01  0.25781143975E-01  0.51100000000E-03 0.  1.
         11    1    4    4    0    0  0.99151484429E-01 -0.26623595825E-01  0.56380961963E-01  0.11712773673E+00  0.51100000000E-03 0. -1.
</event>
<event>
 8    1  0.2077555E+004  0.1043930E+01  0.7957747E-01            NaN
         13   -1    0    0    0    0  0.00000000000E+00  0.00000000000E+00  0.74505805969E-08  0.10566000000E+00  0.10566000000E+00 0.  1.
     999900   -1    0    0    0    0 -0.00000000000E+00 -0.00000000000E+00 -0.74505805969E-08  0.93827000000E+00  0.93827000000E+00 0.  1.
     999902    2    1    2    0    0  0.12909840316E-01  0.26645313811E-02  0.49621470246E-02  0.10298450219E+01  0.10297486987E+01 0.  0.
     999903    2    3    3    0    0  0.11251828487E+00  0.31681834131E-01 -0.63809884652E-01  0.14108552778E+00  0.46575977993E-01 0.  0.
         14    1    1    2    0    0 -0.12909840316E-01 -0.26645313811E-02 -0.49621470246E-02  0.14084978081E-01  0.00000000000E+00 0. -1.
     999901    1    3    3    0    0 -0.99608444550E-01 -0.29017302750E-01  0.68772031677E-01  0.88875949414E+00  0.88000000000E+00 0. -1.
        -11    1    4    4    0    0  0.27932239427E-01  0.67049456460E-02  0.50745725121E-02  0.29174967056E-01  0.51100000000E-03 0.  1.
         11    1    4    4    0    0  0.84586045439E-01  0.24976888485E-01 -0.68884457164E-01  0.11191056072E+00  0.51100000000E-03 0. -1.
</event>
<event>
 8    1  0.2077555E+004  0.1043930E+01  0.7957747E-01            NaN
         13   -1    0    0    0    0  0.00000000000E+00  0.00000000000E+00  0.74505805969E-08  0.10566000000E+00  0.10566000000E+00 0. -1.
     999900   -1    0    0    0    0 -0.00000000000E+00 -0.00000000000E+00 -0.74505805969E-08  0.93827000000E+00  0.93827000000E+00 0. -1.
     999902    2    1    2    0    0 -0.13781447583E-01  0.21501633560E-02  0.18749120073E-03  0.10299805680E+01  0.10298861024E+01 0.  0.
     999903    2    3    3    0    0  0.10626342899E+00  0.76068624902E-01 -0.11761296555E-01  0.13867956112E+00  0.44892544366E-01 0.  0.
         14    1    1    2    0    0  0.13781447583E-01 -0.21501633560E-02 -0.18749120073E-03  0.13949431992E-01  0.00000000000E+00 0. -1.
     999901    1    3    3    0    0 -0.12004487658E+00 -0.73918461546E-01  0.11948787756E-01  0.89130100689E+00  0.88000000000E+00 0. -1.
        -11    1    4    4    0    0  0.51375190097E-01  0.60642898438E-01  0.38173857015E-02  0.79572638784E-01  0.51100000000E-03 0.  1.
         11    1    4    4    0    0  0.54888238897E-01  0.15425726464E-01 -0.15578682257E-01  0.59106922336E-01  0.51100000000E-03 0. -1.
</event>
<event>
 8    1  0.2077555E+004  0.1043930E+01  0.7957747E-01            NaN
         13   -1    0    0    0    0  0.00000000000E+00  0.00000000000E+00  0.74505805969E-08  0.10566000000E+00  0.10566000000E+00 0.  1.
     999900   -1    0    0    0    0 -0.00000000000E+00 -0.00000000000E+00 -0.74505805969E-08  0.93827000000E+00  0.93827000000E+00 0. -1.
     999902    2    1    2    0    0  0.16047329936E-02 -0.11584912248E-01  0.63228225030E-02  0.10306347586E+01  0.10305490004E+01 0.  0.
     999903    2    3    3    0    0  0.52314182501E-01  0.73925980114E-01 -0.95753725275E-01  0.13917349606E+00  0.44706396354E-01 0.  0.
         14    1    1    2    0    0 -0.16047329936E-02  0.11584912248E-01 -0.63228225030E-02  0.13295241412E-01  0.00000000000E+00 0. -1.
     999901    1    3    3    0    0 -0.50709449507E-01 -0.85510892362E-01  0.10207654778E+00  0.89146126253E+00  0.88000000000E+00 0.  1.
        -11    1    4    4    0    0  0.38610336334E-01  0.66453387195E-01 -0.52209532805E-01  0.92913439169E-01  0.51100000000E-03 0.  1.
         11    1    4    4    0    0  0.13703846167E-01  0.74725929190E-02 -0.43544192470E-01  0.46260056891E-01  0.51100000000E-03 0. -1.
</event>
<event>
 8    1  0.2077555E+004  0.1043930E+01  0.7957747E-01            NaN
         13   -1    0    0    0    0  0.00000000000E+00  0.00000000000E+00  0.74505805969E-08  0.10566000000E+00  0.10566000000E+00 0.  1.
     999900   -1    0    0    0    0 -0.00000000000E+00 -0.00000000000E+00 -0.74505805969E-08  0.93827000000E+00  0.93827000000E+00 0. -1.
     999902    2    1    2    0    0  0.14258579048E-02  0.13291344585E-01  0.56369339483E-02  0.10294224869E+01  0.10293202556E+01 0.  0.
     999903    2    3    3    0    0 -0.87363468840E-01 -0.67065514307E-01 -0.71098224139E-01  0.13800280248E+00  0.43123741938E-01 0.  0.
         14    1    1    2    0    0 -0.14258579048E-02 -0.13291344585E-01 -0.56369339483E-02  0.14507513087E-01  0.00000000000E+00 0.  1.
     999901    1    3    3    0    0  0.88789326744E-01  0.80356858891E-01  0.76735158087E-01  0.89141968444E+00  0.88000000000E+00 0.  1.
        -11    1    4    4    0    0 -0.29524475556E-01 -0.64348740165E-02 -0.36390955094E-01  0.47303963831E-01  0.51100000000E-03 0. -1.
         11    1    4    4    0    0 -0.57838993284E-01 -0.60630640290E-01 -0.34707269044E-01  0.90698838645E-01  0.51100000000E-03 0.  1.
</event>
<event>
 8    1  0.2077555E+004  0.1043930E+01  0.7957747E-01            NaN
         13   -1    0    0    0    0  0.00000000000E+00  0.00000000000E+00  0.74505805969E-08  0.10566000000E+00  0.10566000000E+00 0. -1.
     999900   -1    0    0    0    0 -0.00000000000E+00 -0.00000000000E+00 -0.74505805969E-08  0.93827000000E+00  0.93827000000E+00 0. -1.
     999902    2    1    2    0    0  0.79081306513E-02 -0.50623696512E-02  0.94504833083E-02  0.10306079224E+01  0.10305218154E+01 0.  0.
     999903    2    3    3    0    0  0.83186941414E-01  0.30833407017E-01  0.10124122330E+00  0.14191171667E+00  0.44926426765E-01 0.  0.
         14    1    1    2    0    0 -0.79081306513E-02  0.50623696512E-02 -0.94504833083E-02  0.13322077602E-01  0.00000000000E+00 0.  1.
     999901    1    3    3    0    0 -0.75278810763E-01 -0.35895776668E-01 -0.91790739992E-01  0.88869620573E+00  0.88000000000E+00 0. -1.
        -11    1    4    4    0    0  0.39275054349E-01  0.46074830984E-02  0.74133671427E-01  0.84022741891E-01  0.51100000000E-03 0.  1.
         11    1    4    4    0    0  0.43911887066E-01  0.26225923918E-01  0.27107551873E-01  0.57888974776E-01  0.51100000000E-03 0. -1.
</event>
<event>
 8    1  0.2077555E+004  0.1043930E+01  0.7957747E-01            NaN
         13   -1    0    0    0    0  0.00000000000E+00  0.00000000000E+00  0.74505805969E-08  0.10566000000E+00  0.10566000000E+00 0.  1.
     999900   -1    0    0    0    0 -0.00000000000E+00 -0.00000000000E+00 -0.74505805969E-08  0.93827000000E+00  0.93827000000E+00 0. -1.
     999902    2    1    2    0    0 -0.69341703200E-02 -0.10045783273E-02  0.98328927184E-02  0.10318561574E+01  0.10317855164E+01 0.  0.
     999903    2    3    3    0    0 -0.10569044817E+00  0.37308624541E-01 -0.73870905398E-01  0.14156012252E+00  0.44943890835E-01 0.  0.
         14    1    1    2    0    0  0.69341703200E-02  0.10045783273E-02 -0.98328927184E-02  0.12073842589E-01  0.00000000000E+00 0. -1.
     999901    1    3    3    0    0  0.98756277850E-01 -0.38313202868E-01  0.83703798116E-01  0.89029603489E+00  0.88000000000E+00 0. -1.
        -11    1    4    4    0    0 -0.28372445325E-01 -0.33157371335E-02 -0.23416811341E-02  0.28665909335E-01  0.51100000000E-03 0.  1.
         11    1    4    4    0    0 -0.77318002845E-01  0.40624361674E-01 -0.71529224264E-01  0.11289421318E+00  0.51100000000E-03 0. -1.
</event>
<event>
 8    1  0.2077555E+004  0.1043930E+01  0.7957747E-01            NaN
         13   -1    0    0    0    0  0.00000000000E+00  0.00000000000E+00  0.74505805969E-08  0.10566000000E+00  0.10566000000E+00 0.  1.
     999900   -1    0    0    0    0 -0.00000000000E+00 -0.00000000000E+00 -0.74505805969E-08  0.93827000000E+00  0.93827000000E+00 0. -1.
     999902    2    1    2    0    0 -0.78931016619E-02  0.99977900687E-02 -0.26705715318E-03  0.10311891923E+01  0.10311104801E+01 0.  0.
     999903    2    3    3    0    0 -0.13128197163E+00 -0.28662754892E-01  0.42571830084E-02  0.14172872683E+00  0.44859768279E-01 0.  0.
         14    1    1    2    0    0  0.78931016619E-02 -0.99977900687E-02  0.26705715318E-03  0.12740807652E-01  0.00000000000E+00 0.  1.
     999901    1    3    3    0    0  0.12338886996E+00  0.38660544960E-01 -0.45242401616E-02  0.88946046552E+00  0.88000000000E+00 0. -1.
        -11    1    4    4    0    0 -0.33232638678E-01  0.70173336095E-02  0.14401399965E-01  0.36895971141E-01  0.51100000000E-03 0.  1.
         11    1    4    4    0    0 -0.98049332948E-01 -0.35680088501E-01 -0.10144216956E-01  0.10483275569E+00  0.51100000000E-03 0. -1.
</event>
<event>
 7    1  0.2077555E+004  0.1043930E+01  0.7957747E-01            NaN
         13   -1    0    0    0    0  0.00000000000E+00  0.00000000000E+00  0.74505805969E-08  0.10566000000E+00  0.10566000000E+00 0.  1.
     999900   -1    0    0    0    0 -0.00000000000E+00 -0.00000000000E+00 -0.74505805969E-08  0.93827000000E+00  0.93827000000E+00 0. -1.
     999903    2    1    2    0    0  0.65755337849E-01 -0.26364959638E-01 -0.95694530677E-01  0.12386016433E+00  0.34132412063E-01 0.  0.
         14    1    1    2    0    0 -0.31962691504E-01  0.64686326834E-02 -0.66155647888E-02  0.33274953861E-01  0.00000000000E+00 0.  1.
     999901    1    1    2    0    0 -0.33792646345E-01  0.19896326954E-01  0.10231009547E+00  0.88679488181E+00  0.88000000000E+00 0.  1.
        -11    1    3    3    0    0  0.66050382368E-01 -0.18062273590E-01 -0.75022390909E-01  0.10157518888E+00  0.51100000000E-03 0.  1.
         11    1    3    3    0    0 -0.29504451908E-03 -0.83026860475E-02 -0.20672139768E-01  0.22284975443E-01  0.51100000000E-03 0. -1.
</event>
<event>
 8    1  0.2077555E+004  0.1043930E+01  0.7957747E-01            NaN
         13   -1    0    0    0    0  0.00000000000E+00  0.00000000000E+00  0.74505805969E-08  0.10566000000E+00  0.10566000000E+00 0. -1.
     999900   -1    0    0    0    0 -0.00000000000E+00 -0.00000000000E+00 -0.74505805969E-08  0.93827000000E+00  0.93827000000E+00 0. -1.
     999902    2    1    2    0    0 -0.35981142372E-02 -0.11522217281E-03  0.14107845668E-01  0.10293700889E+01  0.10292671125E+01 0.  0.
     999903    2    3    3    0    0  0.70685328126E-01 -0.10180949080E+00 -0.42526107506E-01  0.13860235332E+00  0.45172497127E-01 0.  0.
         14    1    1    2    0    0  0.35981142372E-02  0.11522217281E-03 -0.14107845668E-01  0.14559911112E-01  0.00000000000E+00 0.  1.
     999901    1    3    3    0    0 -0.74283442363E-01  0.10169426863E+00  0.56633953174E-01  0.89076773557E+00  0.88000000000E+00 0. -1.
        -11    1    4    4    0    0  0.27159007869E-01 -0.73832844069E-01 -0.15347281977E-01  0.80154231060E-01  0.51100000000E-03 0. -1.
         11    1    4    4    0    0  0.43526320257E-01 -0.27976646730E-01 -0.27178825528E-01  0.58448122258E-01  0.51100000000E-03 0.  1.
</event>
<event>
 8    1  0.2077555E+004  0.1043930E+01  0.7957747E-01            NaN
         13   -1    0    0    0    0  0.00000000000E+00  0.00000000000E+00  0.74505805969E-08  0.10566000000E+00  0.10566000000E+00 0. -1.
     999900   -1    0    0    0    0 -0.00000000000E+00 -0.00000000000E+00 -0.74505805969E-08  0.93827000000E+00  0.93827000000E+00 0. -1.
     999902    2    1    2    0    0 -0.11158288290E-02 -0.13525021949E-01 -0.17149789725E-02  0.10302510949E+01  0.10301602817E+01 0.  0.
     999903    2    3    3    0    0  0.22053756493E-01  0.10307035734E+00  0.77903793102E-01  0.13869601467E+00  0.45362063093E-01 0.  0.
         14    1    1    2    0    0  0.11158288290E-02  0.13525021949E-01  0.17149789725E-02  0.13678905131E-01  0.00000000000E+00 0. -1.
     999901    1    3    3    0    0 -0.23169585322E-01 -0.11659537929E+00 -0.79618772074E-01  0.89155508020E+00  0.88000000000E+00 0. -1.
        -11    1    4    4    0    0 -0.22055182294E-03  0.37152652435E-01  0.53134627296E-01  0.64837627694E-01  0.51100000000E-03 0.  1.
         11    1    4    4    0    0  0.22274308316E-01  0.65917704909E-01  0.24769165806E-01  0.73858386979E-01  0.51100000000E-03 0. -1.
</event>
<event>
 8    1  0.2077555E+004  0.1043930E+01  0.7957747E-01            NaN
         13   -1    0    0    0    0  0.00000000000E+00  0.00000000000E+00  0.74505805969E-08  0.10566000000E+00  0.10566000000E+00 0.  1.
     999900   -1    0    0    0    0 -0.00000000000E+00 -0.00000000000E+00 -0.74505805969E-08  0.93827000000E+00  0.93827000000E+00 0. -1.
     999902    2    1    2    0    0  0.35782522606E-02  0.13248907530E-01  0.24772515372E-02  0.10299845988E+01  0.10298901881E+01 0.  0.
     999903    2    3    3    0    0 -0.35918759988E-01  0.41078426250E-01  0.12108197481E+00  0.14071434938E+00  0.46498269585E-01 0.  0.
         14    1    1    2    0    0 -0.35782522606E-02 -0.13248907530E-01 -0.24772515372E-02  0.13945401219E-01  0.00000000000E+00 0.  1.
     999901    1    3    3    0    0  0.39497012249E-01 -0.27829518720E-01 -0.11860472328E+00  0.88927024940E+00  0.88000000000E+00 0. -1.
        -11    1    4    4    0    0 -0.12955881771E-01 -0.82234567039E-02  0.42136005854E-01  0.44846228637E-01  0.51100000000E-03 0.  1.
         11    1    4    4    0    0 -0.22962878217E-01  0.49301882954E-01  0.78945968959E-01  0.95868120742E-01  0.51100000000E-03 0. -1.
</event>
<event>
 8    1  0.2077555E+004  0.1043930E+01  0.7957747E-01            NaN
         13   -1    0    0    0    0  0.00000000000E+00  0.00000000000E+00  0.74505805969E-08  0.10566000000E+00  0.10566000000E+00 0. -1.
     999900   -1    0    0    0    0 -0.00000000000E+00 -0.00000000000E+00 -0.74505805969E-08  0.93827000000E+00  0.93827000000E+00 0.  1.
     999902    2    1    2    0    0  0.88271687215E-02  0.68503024829E-02  0.70183872198E-02  0.10307351786E+01  0.10306507193E+01 0.  0.
     999903    2    3    3    0    0 -0.31537742991E-01 -0.82079154129E-01 -0.97972458095E-01  0.13912940703E+00  0.45019691033E-01 0.  0.
         14    1    1    2    0    0 -0.88271687215E-02 -0.68503024829E-02 -0.70183872198E-02  0.13194821367E-01  0.00000000000E+00 0.  1.
     999901    1    3    3    0    0  0.40364911712E-01  0.88929456611E-01  0.10499084531E+00  0.89160577160E+00  0.88000000000E+00 0. -1.
        -11    1    4    4    0    0 -0.42542839205E-01 -0.57260870935E-01 -0.66034740512E-01  0.97208788612E-01  0.51100000000E-03 0.  1.
         11    1    4    4    0    0  0.11005096215E-01 -0.24818283194E-01 -0.31937717583E-01  0.41920618421E-01  0.51100000000E-03 0. -1.
</event>
<event>
 8    1  0.2077555E+004  0.1043930E+01  0.7957747E-01            NaN
         13   -1    0    0    0    0  0.00000000000E+00  0.00000000000E+00  0.74505805969E-08  0.10566000000E+00  0.10566000000E+00 0. -1.
     999900   -1    0    0    0    0 -0.00000000000E+00 -0.00000000000E+00 -0.74505805969E-08  0.93827000000E+00  0.93827000000E+00 0.  1.
     999902    2    1    2    0    0 -0.10474958162E-01 -0.51033458135E-02  0.11752018501E-01  0.10273807152E+01  0.10272474168E+01 0.  0.
     999903    2    3    3    0    0  0.68936403601E-01  0.10289434847E+00 -0.32074990344E-01  0.13615096201E+00  0.46570427983E-01 0.  0.
         14    1    1    2    0    0  0.10474958162E-01  0.51033458135E-02 -0.11752018501E-01  0.16549284753E-01  0.00000000000E+00 0.  1.
     999901    1    3    3    0    0 -0.79411361763E-01 -0.10799769428E+00  0.43827008845E-01  0.89122975324E+00  0.88000000000E+00 0. -1.
        -11    1    4    4    0    0  0.47178328189E-01  0.38232505737E-01 -0.30383045319E-01  0.67903679646E-01  0.51100000000E-03 0. -1.
         11    1    4    4    0    0  0.21758075413E-01  0.64661842734E-01 -0.16919450249E-02  0.68247282366E-01  0.51100000000E-03 0.  1.
</event>
<event>
 8    1  0.2077555E+004  0.1043930E+01  0.7957747E-01            NaN
         13   -1    0    0    0    0  0.00000000000E+00  0.00000000000E+00  0.74505805969E-08  0.10566000000E+00  0.10566000000E+00 0. -1.
     999900   -1    0    0    0    0 -0.00000000000E+00 -0.00000000000E+00 -0.74505805969E-08  0.93827000000E+00  0.93827000000E+00 0.  1.
     999902    2    1    2    0    0 -0.10604354873E-01  0.54998341052E-02  0.49182629236E-02  0.10310114154E+01  0.10309304772E+01 0.  0.
     999903    2    3    3    0    0 -0.12154718198E+00 -0.44542083814E-01  0.36231728215E-01  0.14208338822E+00  0.46013437164E-01 0.  0.
         14    1    1    2    0    0  0.10604354873E-01 -0.54998341052E-02 -0.49182629236E-02  0.12918584583E-01  0.00000000000E+00 0.  1.
     999901    1    3    3    0    0  0.11094282711E+00  0.50041917919E-01 -0.31313465291E-01  0.88892802720E+00  0.88000000000E+00 0.  1.
        -11    1    4    4    0    0 -0.70031278241E-01 -0.13652108768E-01  0.40175464968E-01  0.81884608519E-01  0.51100000000E-03 0. -1.
         11    1    4    4    0    0 -0.51515903738E-01 -0.30889975046E-01 -0.39437367535E-02  0.60198779696E-01  0.51100000000E-03 0.  1.
</event>
<event>
 8    1  0.2077555E+004  0.1043930E+01  0.7957747E-01            NaN
         13   -1    0    0    0    0  0.00000000000E+00  0.00000000000E+00  0.74505805969E-08  0.10566000000E+00  0.10566000000E+00 0. -1.
     999900   -1    0    0    0    0 -0.00000000000E+00 -0.00000000000E+00 -0.74505805969E-08  0.93827000000E+00  0.93827000000E+00 0.  1.
     999902    2    1    2    0    0  0.12407080726E-01  0.24067460562E-04 -0.74210343755E-02  0.10294728916E+01  0.10293713745E+01 0.  0.
     999903    2    3    3    0    0  0.11823012576E+00 -0.25791006525E-01 -0.58562103375E-01  0.14128352902E+00  0.43450856913E-01 0.  0.
         14    1    1    2    0    0 -0.12407080726E-01 -0.24067460562E-04  0.74210343755E-02  0.14457108376E-01  0.00000000000E+00 0. -1.
     999901    1    3    3    0    0 -0.10582304503E+00  0.25815073986E-01  0.51141068999E-01  0.88818936260E+00  0.88000000000E+00 0. -1.
        -11    1    4    4    0    0  0.54677771499E-01 -0.25798604695E-01 -0.47242307335E-01  0.76728895624E-01  0.51100000000E-03 0. -1.
         11    1    4    4    0    0  0.63552354259E-01  0.75981703054E-05 -0.11319796040E-01  0.64554633397E-01  0.51100000000E-03 0.  1.
</event>
<event>
 8    1  0.2077555E+004  0.1043930E+01  0.7957747E-01            NaN
         13   -1    0    0    0    0  0.00000000000E+00  0.00000000000E+00  0.74505805969E-08  0.10566000000E+00  0.10566000000E+00 0. -1.
     999900   -1    0    0    0    0 -0.00000000000E+00 -0.00000000000E+00 -0.74505805969E-08  0.93827000000E+00  0.93827000000E+00 0. -1.
     999902    2    1    2    0    0 -0.78454095037E-03  0.11902059349E-01  0.62963179554E-02  0.10304422967E+01  0.10303540210E+01 0.  0.
     999903    2    3    3    0    0 -0.12244578484E+00  0.52324478313E-01  0.10472045672E-01  0.14114320923E+00  0.45617107718E-01 0.  0.
         14    1    1    2    0    0  0.78454095037E-03 -0.11902059349E-01 -0.62963179554E-02  0.13487703327E-01  0.00000000000E+00 0.  1.
     999901    1    3    3    0    0  0.12166124389E+00 -0.40422418964E-01 -0.41757277171E-02  0.88929908744E+00  0.88000000000E+00 0. -1.
        -11    1    4    4    0    0 -0.58756007365E-01  0.31591385249E-01  0.27296986890E-01  0.72081000532E-01  0.51100000000E-03 0.  1.
         11    1    4    4    0    0 -0.63689777474E-01  0.20733093064E-01 -0.16824941218E-01  0.69062208701E-01  0.51100000000E-03 0. -1.
</event>
<event>
 8    1  0.2077555E+004  0.1043930E+01  0.7957747E-01            NaN
         13   -1    0    0    0    0  0.00000000000E+00  0.00000000000E+00  0.74505805969E-08  0.10566000000E+00  0.10566000000E+00 0. -1.
     999900   -1    0    0    0    0 -0.00000000000E+00 -0.00000000000E+00 -0.74505805969E-08  0.93827000000E+00  0.93827000000E+00 0. -1.
     999902    2    1    2    0    0  0.96938259660E-02  0.11098017957E-02 -0.96917749233E-02  0.10301774576E+01  0.10300856574E+01 0.  0.
     999903    2    3    3    0    0  0.10543372366E+00 -0.73708588004E-01 -0.37600357221E-01  0.14139018920E+00  0.45035238539E-01 0.  0.
         14    1    1    2    0    0 -0.96938259660E-02 -0.11098017957E-02  0.96917749233E-02  0.13752542421E-01  0.00000000000E+00 0. -1.
     999901    1    3    3    0    0 -0.95739897689E-01  0.74818389800E-01  0.27908582297E-01  0.88878726838E+00  0.88000000000E+00 0.  1.
        -11    1    4    4    0    0  0.73170068893E-01 -0.36245410461E-01 -0.41863760211E-01  0.91762869949E-01  0.51100000000E-03 0.  1.
         11    1    4    4    0    0  0.32263654763E-01 -0.37463177543E-01  0.42634029905E-02  0.49627319254E-01  0.51100000000E-03 0. -1.
</event>
<event>
 8    1  0.2077555E+004  0.1043930E+01  0.7957747E-01            NaN
         13   -1    0    0    0    0  0.00000000000E+00  0.00000000000E+00  0.74505805969E-08  0.10566000000E+00  0.10566000000E+00 0.  1.
     999900   -1    0    0    0    0 -0.00000000000E+00 -0.00000000000E+00 -0.74505805969E-08  0.93827000000E+00  0.93827000000E+00 0. -1.
     999902    2    1    2    0    0 -0.11140715355E-01  0.62802189437E-02  0.83015831172E-03  0.10311141562E+01  0.10310345083E+01 0.  0.
     999903    2    3    3    0    0 -0.46489555178E-01 -0.11828561485E+00  0.39698598319E-01  0.14079008992E+00  0.45750467648E-01 0.  0.
         14    1    1    2    0    0  0.11140715355E-01 -0.62802189437E-02 -0.83015831172E-03  0.12815843765E-01  0.00000000000E+00 0. -1.
     999901    1    3    3    0    0  0.35348839823E-01  0.12456583380E+00 -0.38868440007E-01  0.89032406631E+00  0.88000000000E+00 0. -1.
        -11    1    4    4    0    0 -0.38880417196E-02 -0.35098648269E-01  0.30878517680E-01  0.46912428565E-01  0.51100000000E-03 0.  1.
         11    1    4    4    0    0 -0.42601513458E-01 -0.83186966585E-01  0.88200806382E-02  0.93877661358E-01  0.51100000000E-03 0. -1.
</event>
<event>
 8    1  0.2077555E+004  0.1043930E+01  0.7957747E-01            NaN
         13   -1    0    0    0    0  0.00000000000E+00  0.00000000000E+00  0.74505805969E-08  0.10566000000E+00  0.10566000000E+00 0.  1.
     999900   -1    0    0    0    0 -0.00000000000E+00 -0.00000000000E+00 -0.74505805969E-08  0.93827000000E+00  0.93827000000E+00 0. -1.
     999902    2    1    2    0    0  0.10807530690E-01  0.78100508984E-02 -0.48568167500E-02  0.10297388660E+01  0.10296410753E+01 0.  0.
     999903    2    3    3    0    0 -0.30216146608E-01  0.29064377344E-01  0.12199902728E+00  0.13944279524E+00  0.52941259342E-01 0.  0.
         14    1    1    2    0    0 -0.10807530690E-01 -0.78100508984E-02  0.48568167500E-02  0.14191133978E-01  0.00000000000E+00 0.  1.
     999901    1    3    3    0    0  0.41023677298E-01 -0.21254326446E-01 -0.12685584403E+00  0.89029607079E+00  0.88000000000E+00 0. -1.
        -11    1    4    4    0    0  0.28492713769E-02  0.43463312245E-02  0.81304505860E-01  0.81472036531E-01  0.51100000000E-03 0. -1.
         11    1    4    4    0    0 -0.33065417985E-01  0.24718046120E-01  0.40694521417E-01  0.57970758705E-01  0.51100000000E-03 0.  1.
</event>
<event>
 8    1  0.2077555E+004  0.1043930E+01  0.7957747E-01            NaN
         13   -1    0    0    0    0  0.00000000000E+00  0.00000000000E+00  0.74505805969E-08  0.10566000000E+00  0.10566000000E+00 0.  1.
     999900   -1    0    0    0    0 -0.00000000000E+00 -0.00000000000E+00 -0.74505805969E-08  0.93827000000E+00  0.93827000000E+00 0.  1.
     999902    2    1    2    0    0  0.77001589879E-02 -0.12633641740E-01  0.46646541756E-02  0.10284167685E+01  0.10282997566E+01 0.  0.
     999903    2    3    3    0    0  0.29862976873E-01  0.22126663979E-01 -0.12519613853E+00  0.13793190351E+00  0.44381868546E-01 0.  0.
         14    1    1    2    0    0 -0.77001589879E-02  0.12633641740E-01 -0.46646541756E-02  0.15513231469E-01  0.00000000000E+00 0.  1.
     999901    1    3    3    0    0 -0.22162817885E-01 -0.34760305719E-01  0.12986079271E+00  0.89048486502E+00  0.88000000000E+00 0. -1.
        -11    1    4    4    0    0 -0.56011116965E-02 -0.83259091759E-02 -0.33982690809E-01  0.35436952627E-01  0.51100000000E-03 0.  1.
         11    1    4    4    0    0  0.35464088569E-01  0.30452573155E-01 -0.91213447723E-01  0.10249495088E+00  0.51100000000E-03 0. -1.
</event>
<event>
 8    1  0.2077555E+004  0.1043930E+01  0.7957747E-01            NaN
         13   -1    0    0    0    0  0.00000000000E+00  0.00000000000E+00  0.74505805969E-08  0.10566000000E+00  0.10566000000E+00 0.  1.
     999900   -1    0    0    0    0 -0.00000000000E+00 -0.00000000000E+00 -0.74505805969E-08  0.93827000000E+00  0.93827000000E+00 0.  1.
     999902    2    1    2    0    0  0.69061388583E-02 -0.13553808131E-01  0.70418051804E-03  0.10287018570E+01  0.10285891377E+01 0.  0.
     999903    2    3    3    0    0  0.13040038470E+00  0.90869674424E-02  0.19650290816E-01  0.13958859731E+00  0.44855426218E-01 0.  0.
         14    1    1    2    0    0 -0.69061388583E-02  0.13553808131E-01 -0.70418051804E-03  0.15228142992E-01  0.00000000000E+00 0. -1.
     999901    1    3    3    0    0 -0.12349424585E+00 -0.22640775574E-01 -0.18946110298E-01  0.88911325970E+00  0.88000000000E+00 0. -1.
        -11    1    4    4    0    0  0.98103402496E-01 -0.89243379591E-02  0.18081915198E-02  0.98526402892E-01  0.51100000000E-03 0.  1.
         11    1    4    4    0    0  0.32296982209E-01  0.18011305402E-01  0.17842099296E-01  0.41062194417E-01  0.51100000000E-03 0. -1.
</event>
<event>
 8    1  0.2077555E+004  0.1043930E+01  0.7957747E-01            NaN
         13   -1    0    0    0    0  0.00000000000E+00  0.00000000000E+00  0.74505805969E-08  0.10566000000E+00  0.10566000000E+00 0.  1.
     999900   -1    0    0    0    0 -0.00000000000E+00 -0.00000000000E+00 -0.74505805969E-08  0.93827000000E+00  0.93827000000E+00 0.  1.
     999902    2    1    2    0    0  0.74431952611E-02  0.43543797659E-02 -0.10889458361E-01  0.10300396407E+01  0.10299459788E+01 0.  0.
     999903    2    3    3    0    0 -0.10131830038E+00  0.21474063180E-01  0.79844033194E-01  0.13854947641E+00  0.45764116898E-01 0.  0.
         14    1    1    2    0    0 -0.74431952611E-02 -0.43543797659E-02  0.10889458361E-01  0.13890359327E-01  0.00000000000E+00 0.  1.
     999901    1    3    3    0    0  0.10876149564E+00 -0.17119683414E-01 -0.90733491555E-01  0.89149016427E+00  0.88000000000E+00 0.  1.
        -11    1    4    4    0    0 -0.40148312189E-01 -0.53215284287E-02  0.52686115199E-01  0.66455199136E-01  0.51100000000E-03 0.  1.
         11    1    4    4    0    0 -0.61169988186E-01  0.26795591608E-01  0.27157917995E-01  0.72094277271E-01  0.51100000000E-03 0. -1.
</event>
<event>
 8    1  0.2077555E+004  0.1043930E+01  0.7957747E-01            NaN
         13   -1    0    0    0    0  0.00000000000E+00  0.00000000000E+00  0.74505805969E-08  0.10566000000E+00  0.10566000000E+00 0. -1.
     999900   -1    0    0    0    0 -0.00000000000E+00 -0.00000000000E+00 -0.74505805969E-08  0.93827000000E+00  0.93827000000E+00 0. -1.
     999902    2    1    2    0    0  0.10405387847E-01 -0.75547524177E-02  0.33547093310E-02  0.10306408896E+01  0.10305552110E+01 0.  0.
     999903    2    3    3    0    0  0.11206634732E-01 -0.16463570231E-02  0.13333945829E+00  0.14107268756E+00  0.44651907963E-01 0.  0.
         14    1    1    2    0    0 -0.10405387847E-01  0.75547524177E-02 -0.33547093310E-02  0.13289110393E-01  0.00000000000E+00 0.  1.
     999901    1    3    3    0    0 -0.80124688475E-03 -0.59083953947E-02 -0.12998474896E+00  0.88956820205E+00  0.88000000000E+00 0. -1.
        -11    1    4    4    0    0  0.28217829248E-01 -0.45692080228E-02  0.76488279461E-01  0.81656852532E-01  0.51100000000E-03 0. -1.
         11    1    4    4    0    0 -0.17011194517E-01  0.29228509998E-02  0.56851178829E-01  0.59415835028E-01  0.51100000000E-03 0.  1.
</event>
<event>
 8    1  0.2077555E+004  0.1043930E+01  0.7957747E-01            NaN
         13   -1    0    0    0    0  0.00000000000E+00  0.00000000000E+00  0.74505805969E-08  0.10566000000E+00  0.10566000000E+00 0.  1.
     999900   -1    0    0    0    0 -0.00000000000E+00 -0.00000000000E+00 -0.74505805969E-08  0.93827000000E+00  0.93827000000E+00 0.  1.
     999902    2    1    2    0    0 -0.11297130460E-01 -0.69417949003E-02  0.30227321001E-02  0.10303303462E+01  0.10302405893E+01 0.  0.
     999903    2    3    3    0    0  0.46925328882E-01  0.71635097214E-01 -0.99835882229E-01  0.13895832666E+00  0.44817848279E-01 0.  0.
         14    1    1    2    0    0  0.11297130460E-01  0.69417949003E-02 -0.30227321001E-02  0.13599653761E-01  0.00000000000E+00 0.  1.
     999901    1    3    3    0    0 -0.58222459341E-01 -0.78576892115E-01  0.10285861433E+00  0.89137201958E+00  0.88000000000E+00 0. -1.
        -11    1    4    4    0    0  0.39831355147E-01  0.29286452670E-01 -0.32746129748E-01  0.59302641571E-01  0.51100000000E-03 0. -1.
         11    1    4    4    0    0  0.70939737344E-02  0.42348644544E-01 -0.67089752482E-01  0.79655685090E-01  0.51100000000E-03 0.  1.
</event>
<event>
 8    1  0.2077555E+004  0.1043930E+01  0.7957747E-01            NaN
         13   -1    0    0    0    0  0.00000000000E+00  0.00000000000E+00  0.74505805969E-08  0.10566000000E+00  0.10566000000E+00 0.  1.
     999900   -1    0    0    0    0 -0.00000000000E+00 -0.00000000000E+00 -0.74505805969E-08  0.93827000000E+00  0.93827000000E+00 0. -1.
     999902    2    1    2    0    0 -0.63915926003E-02  0.72573947237E-02  0.10391293104E-01  0.10297348879E+01  0.10296370420E+01 0.  0.
     999903    2    3    3    0    0 -0.81079489172E-01 -0.17017579752E-01  0.10322048703E+00  0.14137414166E+00  0.49685987990E-01 0.  0.
         14    1    1    2    0    0  0.63915926003E-02 -0.72573947237E-02 -0.10391293104E-01  0.14195112065E-01  0.00000000000E+00 0. -1.
     999901    1    3    3    0    0  0.74687896572E-01  0.24274974476E-01 -0.92829193923E-01  0.88836074628E+00  0.88000000000E+00 0. -1.
        -11    1    4    4    0    0 -0.44993922518E-01 -0.26760086830E-01  0.84902894671E-01  0.99746267877E-01  0.51100000000E-03 0. -1.
         11    1    4    4    0    0 -0.36085566654E-01  0.97425070782E-02  0.18317592356E-01  0.41627873783E-01  0.51100000000E-03 0.  1.
</event>
<event>
 8    1  0.2077555E+004  0.1043930E+01  0.7957747E-01            NaN
         13   -1    0    0    0    0  0.00000000000E+00  0.00000000000E+00  0.74505805969E-08  0.10566000000E+00  0.10566000000E+00 0.  1.
     999900   -1    0    0    0    0 -0.00000000000E+00 -0.00000000000E+00 -0.74505805969E-08  0.93827000000E+00  0.93827000000E+00 0.  1.
     999902    2    1    2    0    0 -0.11991197209E-01  0.54340638296E-03 -0.72284236006E-02  0.10299180691E+01  0.10298227492E+01 0.  0.
     999903    2    3    3    0    0 -0.83097767435E-02 -0.12902639368E+00  0.28534082406E-01  0.13970413815E+00  0.44566688243E-01 0.  0.
         14    1    1    2    0    0  0.11991197209E-01 -0.54340638296E-03  0.72284236006E-02  0.14011930943E-01  0.00000000000E+00 0.  1.
     999901    1    3    3    0    0 -0.36814204660E-02  0.12956980007E+00 -0.35762506007E-01  0.89021393091E+00  0.88000000000E+00 0. -1.
        -11    1    4    4    0    0 -0.19010621505E-01 -0.23406425034E-01  0.11012192018E-01  0.32105980081E-01  0.51100000000E-03 0.  1.
         11    1    4    4    0    0  0.10700844762E-01 -0.10561996865E+00  0.17521890389E-01  0.10759815807E+00  0.51100000000E-03 0. -1.
</event>
<event>
 8    1  0.2077555E+004  0.1043930E+01  0.7957747E-01            NaN
         13   -1    0    0    0    0  0.00000000000E+00  0.00000000000E+00  0.74505805969E-08  0.10566000000E+00  0.10566000000E+00 0.  1.
     999900   -1    0    0    0    0 -0.00000000000E+00 -0.00000000000E+00 -0.74505805969E-08  0.93827000000E+00  0.93827000000E+00 0.  1.
     999902    2    1    2    0    0 -0.39471658752E-02 -0.46502737943E-02 -0.12515602555E-01  0.10300071601E+01  0.10299130567E+01 0.  0.
     999903    2    3    3    0    0  0.10324349052E+00 -0.30938008633E-01 -0.79198612395E-01  0.14060988908E+00  0.43385965335E-01 0.  0.
         14    1    1    2    0    0  0.39471658752E-02  0.46502737943E-02  0.12515602555E-01  0.13922839945E-01  0.00000000000E+00 0.  1.
     999901    1    3    3    0    0 -0.10719065640E+00  0.26287734839E-01  0.66683009840E-01  0.88939727098E+00  0.88000000000E+00 0. -1.
        -11    1    4    4    0    0  0.59886357170E-01  0.13731217311E-02 -0.27934521758E-01  0.66097351423E-01  0.51100000000E-03 0.  1.
         11    1    4    4    0    0  0.43357133351E-01 -0.32311130364E-01 -0.51264090637E-01  0.74512537654E-01  0.51100000000E-03 0. -1.
</event>
<event>
 8    1  0.2077555E+004  0.1043930E+01  0.7957747E-01            NaN
         13   -1    0    0    0    0  0.00000000000E+00  0.00000000000E+00  0.74505805969E-08  0.10566000000E+00  0.10566000000E+00 0.  1.
     999900   -1    0    0    0    0 -0.00000000000E+00 -0.00000000000E+00 -0.74505805969E-08  0.93827000000E+00  0.93827000000E+00 0. -1.
     999902    2    1    2    0    0  0.72935415557E-02 -0.96593961604E-02 -0.63020686633E-02  0.10302839107E+01  0.10301935357E+01 0.  0.
     999903    2    3    3    0    0  0.25277169400E-01  0.26184601455E-01  0.12682816839E+00  0.13936760544E+00  0.44870664165E-01 0.  0.
         14    1    1    2    0    0 -0.72935415557E-02  0.96593961604E-02  0.63020686633E-02  0.13646089258E-01  0.00000000000E+00 0.  1.
     999901    1    3    3    0    0 -0.17983627844E-01 -0.35843997615E-01 -0.13313023705E+00  0.89091630530E+00  0.88000000000E+00 0. -1.
        -11    1    4    4    0    0  0.14197120222E-01 -0.90741466779E-02  0.66614489228E-01  0.68714260941E-01  0.51100000000E-03 0.  1.
         11    1    4    4    0    0  0.11080049178E-01  0.35258748133E-01  0.60213679162E-01  0.70653344499E-01  0.51100000000E-03 0. -1.
</event>
<event>
 8    1  0.2077555E+004  0.1043930E+01  0.7957747E-01            NaN
         13   -1    0    0    0    0  0.00000000000E+00  0.00000000000E+00  0.74505805969E-08  0.10566000000E+00  0.10566000000E+00 0. -1.
     999900   -1    0    0    0    0 -0.00000000000E+00 -0.00000000000E+00 -0.74505805969E-08  0.93827000000E+00  0.93827000000E+00 0. -1.
     999902    2    1    2    0    0  0.82921404239E-02 -0.75932666055E-02  0.77111879865E-03  0.10326600437E+01  0.10325985444E+01 0.  0.
     999903    2    3    3    0    0  0.50091856383E-01  0.11402473774E+00 -0.48390055978E-01  0.14195527986E+00  0.47946523021E-01 0.  0.
         14    1    1    2    0    0 -0.82921404239E-02  0.75932666055E-02 -0.77111879865E-03  0.11269956289E-01  0.00000000000E+00 0.  1.
     999901    1    3    3    0    0 -0.41799715959E-01 -0.12161800435E+00  0.49161174777E-01  0.89070476385E+00  0.88000000000E+00 0.  1.
        -11    1    4    4    0    0  0.22798778702E-02  0.36609627852E-01 -0.33646543469E-01  0.49777642601E-01  0.51100000000E-03 0.  1.
         11    1    4    4    0    0  0.47811978512E-01  0.77415109893E-01 -0.14743512509E-01  0.92177637262E-01  0.51100000000E-03 0. -1.
</event>
<event>
 8    1  0.2077555E+004  0.1043930E+01  0.7957747E-01            NaN
         13   -1    0    0    0    0  0.00000000000E+00  0.00000000000E+00  0.74505805969E-08  0.10566000000E+00  0.10566000000E+00 0.  1.
     999900   -1    0    0    0    0 -0.00000000000E+00 -0.00000000000E+00 -0.74505805969E-08  0.93827000000E+00  0.93827000000E+00 0.  1.
     999902    2    1    2    0    0 -0.34212478540E-02  0.12484714630E-01  0.36174911756E-02  0.10304890447E+01  0.10304013839E+01 0.  0.
     999903    2    3    3    0    0 -0.65048301397E-01  0.55483641506E-01  0.10354844770E+00  0.14165104064E+00  0.45089026416E-01 0.  0.
         14    1    1    2    0    0  0.34212478540E-02 -0.12484714630E-01 -0.36174911756E-02  0.13440955274E-01  0.00000000000E+00 0.  1.
     999901    1    3    3    0    0  0.61627053543E-01 -0.42998926875E-01 -0.99930956524E-01  0.88883800409E+00  0.88000000000E+00 0.  1.
        -11    1    4    4    0    0 -0.15090264659E-01  0.19682095152E-01  0.63803664375E-01  0.68456334007E-01  0.51100000000E-03 0.  1.
         11    1    4    4    0    0 -0.49958036738E-01  0.35801546354E-01  0.39744783324E-01  0.73194706629E-01  0.51100000000E-03 0. -1.
</event>
<event>
 7    1  0.2077555E+004  0.1043930E+01  0.7957747E-01            NaN
         13   -1    0    0    0    0  0.00000000000E+00  0.00000000000E+00  0.74505805969E-08  0.10566000000E+00  0.10566000000E+00 0.  1.
     999900   -1    0    0    0    0 -0.00000000000E+00 -0.00000000000E+00 -0.74505805969E-08  0.93827000000E+00  0.93827000000E+00 0.  1.
     999903    2    1    2    0    0  0.19590998308E-01  0.93064807009E-01  0.52847087924E-01  0.11776981938E+00  0.45078266790E-01 0.  0.
         14    1    1    2    0    0 -0.33888555145E-01 -0.19173812900E-01  0.11520410579E-01  0.40605284519E-01  0.00000000000E+00 0.  1.
     999901    1    1    2    0    0  0.14297556837E-01 -0.73890994110E-01 -0.64367498504E-01  0.88555489610E+00  0.88000000000E+00 0.  1.
        -11    1    3    3    0    0  0.20730469932E-01  0.75839199915E-01  0.60175483646E-01  0.99008517717E-01  0.51100000000E-03 0. -1.
         11    1    3    3    0    0 -0.11394716238E-02  0.17225607094E-01 -0.73283957216E-02  0.18761301665E-01  0.51100000000E-03 0.  1.
</event>
<event>
 8    1  0.2077555E+004  0.1043930E+01  0.7957747E-01            NaN
         13   -1    0    0    0    0  0.00000000000E+00  0.00000000000E+00  0.74505805969E-08  0.10566000000E+00  0.10566000000E+00 0. -1.
     999900   -1    0    0    0    0 -0.00000000000E+00 -0.00000000000E+00 -0.74505805969E-08  0.93827000000E+00  0.93827000000E+00 0. -1.
     999902    2    1    2    0    0 -0.11745278011E-01  0.48160107804E-02 -0.68608748386E-02  0.10295002696E+01  0.10293991393E+01 0.  0.
     999903    2    3    3    0    0 -0.37411050556E-01 -0.11483902501E+00 -0.55375498314E-01  0.13970831182E+00  0.43178446113E-01 0.  0.
         14    1    1    2    0    0  0.11745278011E-01 -0.48160107804E-02  0.68608748386E-02  0.14429730384E-01  0.00000000000E+00 0. -1.
     999901    1    3    3    0    0  0.25665772545E-01  0.11965503579E+00  0.48514623476E-01  0.88979195780E+00  0.88000000000E+00 0.  1.
        -11    1    4    4    0    0 -0.11095331618E-01 -0.11380647430E-01 -0.23356028475E-01  0.28255808372E-01  0.51100000000E-03 0.  1.
         11    1    4    4    0    0 -0.26315718939E-01 -0.10345837758E+00 -0.32019469839E-01  0.11145250345E+00  0.51100000000E-03 0. -1.
</event>
<event>
 8    1  0.2077555E+004  0.1043930E+01  0.7957747E-01            NaN
         13   -1    0    0    0    0  0.00000000000E+00  0.00000000000E+00  0.74505805969E-08  0.10566000000E+00  0.10566000000E+00 0.  1.
     999900   -1    0    0    0    0 -0.00000000000E+00 -0.00000000000E+00 -0.74505805969E-08  0.93827000000E+00  0.93827000000E+00 0.  1.
     999902    2    1    2    0    0  0.14177314634E-01 -0.59520673020E-02 -0.43887147024E-02  0.10279398727E+01  0.10278154979E+01 0.  0.
     999903    2    3    3    0    0  0.79280529966E-01 -0.10597152787E+00 -0.12351929606E-01  0.13984881093E+00  0.43471284827E-01 0.  0.
         14    1    1    2    0    0 -0.14177314634E-01  0.59520673020E-02  0.43887147024E-02  0.15990127334E-01  0.00000000000E+00 0.  1.
     999901    1    3    3    0    0 -0.65103215332E-01  0.10001946056E+00  0.79632149036E-02  0.88809106173E+00  0.88000000000E+00 0.  1.
        -11    1    4    4    0    0  0.41635299748E-01 -0.65537670327E-01  0.13568111411E-01  0.78822834162E-01  0.51100000000E-03 0. -1.
         11    1    4    4    0    0  0.37645230218E-01 -0.40433857538E-01 -0.25920041017E-01  0.61025976771E-01  0.51100000000E-03 0.  1.
</event>
<event>
 8    1  0.2077555E+004  0.1043930E+01  0.7957747E-01            NaN
         13   -1    0    0    0    0  0.00000000000E+00  0.00000000000E+00  0.74505805969E-08  0.10566000000E+00  0.10566000000E+00 0.  1.
     999900   -1    0    0    0    0 -0.00000000000E+00 -0.00000000000E+00 -0.74505805969E-08  0.93827000000E+00  0.93827000000E+00 0. -1.
     999902    2    1    2    0    0  0.90517954174E-02 -0.37113295633E-02 -0.76631634028E-02  0.10315028909E+01  0.10314280299E+01 0.  0.
     999903    2    3    3    0    0  0.69338855654E-01  0.29316149298E-01 -0.11254619684E+00  0.14261268693E+00  0.44770733057E-01 0.  0.
         14    1    1    2    0    0 -0.90517954174E-02  0.37113295633E-02  0.76631634028E-02  0.12427109106E-01  0.00000000000E+00 0.  1.
     999901    1    3    3    0    0 -0.60287060237E-01 -0.33027478861E-01  0.10488303344E+00  0.88889020396E+00  0.88000000000E+00 0.  1.
        -11    1    4    4    0    0  0.49339993957E-01  0.30908411301E-01 -0.10696107738E+00  0.12178135362E+00  0.51100000000E-03 0. -1.
         11    1    4    4    0    0  0.19998861697E-01 -0.15922620025E-02 -0.55851194579E-02  0.20831333319E-01  0.51100000000E-03 0.  1.
</event>
<event>
 8    1  0.2077555E+004  0.1043930E+01  0.7957747E-01            NaN
         13   -1    0    0    0    0  0.00000000000E+00  0.00000000000E+00  0.74505805969E-08  0.10566000000E+00  0.10566000000E+00 0. -1.
     999900   -1    0    0    0    0 -0.00000000000E+00 -0.00000000000E+00 -0.74505805969E-08  0.93827000000E+00  0.93827000000E+00 0.  1.
     999902    2    1    2    0    0 -0.15641979644E-02  0.10515647329E-01 -0.90359606874E-02  0.10299774325E+01  0.10298829241E+01 0.  0.
     999903    2    3    3    0    0 -0.10551965838E+00  0.57125549330E-01  0.60278976020E-01  0.13993036568E+00  0.39360203242E-01 0.  0.
         14    1    1    2    0    0  0.15641979644E-02 -0.10515647329E-01  0.90359606874E-02  0.13952567490E-01  0.00000000000E+00 0. -1.
     999901    1    3    3    0    0  0.10395546042E+00 -0.46609902001E-01 -0.69314936707E-01  0.89004706683E+00  0.88000000000E+00 0.  1.
        -11    1    4    4    0    0 -0.40328097011E-01  0.37775887364E-01  0.42295064643E-01  0.69588121751E-01  0.51100000000E-03 0.  1.
         11    1    4    4    0    0 -0.65191561370E-01  0.19349661966E-01  0.17983911377E-01  0.70342243932E-01  0.51100000000E-03 0. -1.
</event>
<event>
 8    1  0.2077555E+004  0.1043930E+01  0.7957747E-01            NaN
         13   -1    0    0    0    0  0.00000000000E+00  0.00000000000E+00  0.74505805969E-08  0.10566000000E+00  0.10566000000E+00 0.  1.
     999900   -1    0    0    0    0 -0.00000000000E+00 -0.00000000000E+00 -0.74505805969E-08  0.93827000000E+00  0.93827000000E+00 0. -1.
     999902    2    1    2    0    0  0.84086979223E-03  0.64760434540E-02  0.12203400342E-01  0.10300891481E+01  0.10299961572E+01 0.  0.
     999903    2    3    3    0    0 -0.29268375766E-01 -0.11264455629E+00 -0.60745078484E-01  0.13856362156E+00  0.44322441000E-01 0.  0.
         14    1    1    2    0    0 -0.84086979223E-03 -0.64760434540E-02 -0.12203400342E-01  0.13840851879E-01  0.00000000000E+00 0. -1.
     999901    1    3    3    0    0  0.30109245558E-01  0.11912059975E+00  0.72948478826E-01  0.89152552656E+00  0.88000000000E+00 0. -1.
        -11    1    4    4    0    0 -0.27528942667E-01 -0.65580626270E-01 -0.14564613554E-01  0.72601999390E-01  0.51100000000E-03 0. -1.
         11    1    4    4    0    0 -0.17394330987E-02 -0.47063930024E-01 -0.46180464930E-01  0.65961622168E-01  0.51100000000E-03 0.  1.
</event>
<event>
 8    1  0.2077555E+004  0.1043930E+01  0.7957747E-01            NaN
         13   -1    0    0    0    0  0.00000000000E+00  0.00000000000E+00  0.74505805969E-08  0.10566000000E+00  0.10566000000E+00 0. -1.
     999900   -1    0    0    0    0 -0.00000000000E+00 -0.00000000000E+00 -0.74505805969E-08  0.93827000000E+00  0.93827000000E+00 0. -1.
     999902    2    1    2    0    0 -0.37778126524E-02  0.14285397464E-01  0.48059693129E-03  0.10291457035E+01  0.10290395054E+01 0.  0.
     999903    2    3    3    0    0  0.52804769653E-01 -0.10962577753E+00 -0.45590504372E-01  0.13747417527E+00  0.44883181484E-01 0.  0.
         14    1    1    2    0    0  0.37778126524E-02 -0.14285397464E-01 -0.48059693129E-03  0.14784296485E-01  0.00000000000E+00 0. -1.
     999901    1    3    3    0    0 -0.56582582305E-01  0.12391117499E+00  0.46071101304E-01  0.89167152825E+00  0.88000000000E+00 0.  1.
        -11    1    4    4    0    0  0.17748905020E-01 -0.60470049196E-02  0.60026002386E-03  0.18767294184E-01  0.51100000000E-03 0. -1.
         11    1    4    4    0    0  0.35055864633E-01 -0.10357877261E+00 -0.46190764396E-01  0.11870688108E+00  0.51100000000E-03 0.  1.
</event>
<event>
 8    1  0.2077555E+004  0.1043930E+01  0.7957747E-01            NaN
         13   -1    0    0    0    0  0.00000000000E+00  0.00000000000E+00  0.74505805969E-08  0.10566000000E+00  0.10566000000E+00 0. -1.
     999900   -1    0    0    0    0 -0.00000000000E+00 -0.00000000000E+00 -0.74505805969E-08  0.93827000000E+00  0.93827000000E+00 0. -1.
     999902    2    1    2    0    0  0.89580692512E-02 -0.91422209227E-03 -0.11112744106E-01  0.10296269972E+01  0.10295276478E+01 0.  0.
     999903    2    3    3    0    0 -0.14185803251E-01 -0.95621755564E-01  0.88531610041E-01  0.13865328659E+00  0.45189940863E-01 0.  0.
         14    1    1    2    0    0 -0.89580692512E-02  0.91422209227E-03  0.11112744106E-01  0.14303002772E-01  0.00000000000E+00 0.  1.
     999901    1    3    3    0    0  0.23143872502E-01  0.94707533472E-01 -0.99644354147E-01  0.89097371064E+00  0.88000000000E+00 0.  1.
        -11    1    4    4    0    0 -0.67528539287E-02 -0.23168026221E-01  0.51650418877E-01  0.57012151041E-01  0.51100000000E-03 0.  1.
         11    1    4    4    0    0 -0.74329493218E-02 -0.72453729343E-01  0.36881191164E-01  0.81641135551E-01  0.51100000000E-03 0. -1.
</event>
<event>
 8    1  0.2077555E+004  0.1043930E+01  0.7957747E-01            NaN
         13   -1    0    0    0    0  0.00000000000E+00  0.00000000000E+00  0.74505805969E-08  0.10566000000E+00  0.10566000000E+00 0. -1.
     999900   -1    0    0    0    0 -0.00000000000E+00 -0.00000000000E+00 -0.74505805969E-08  0.93827000000E+00  0.93827000000E+00 0. -1.
     999902    2    1    2    0    0 -0.13280303401E-01  0.75615026351E-03 -0.27956851626E-02  0.10303375728E+01  0.10302479118E+01 0.  0.
     999903    2    3    3    0    0  0.51935508464E-01  0.81530638601E-01  0.90241799710E-01  0.13936417607E+00  0.43980098769E-01 0.  0.
         14    1    1    2    0    0  0.13280303401E-01 -0.75615026351E-03  0.27956851626E-02  0.13592427200E-01  0.00000000000E+00 0.  1.
     999901    1    3    3    0    0 -0.65215811865E-01 -0.80774488337E-01 -0.93037484873E-01  0.89097339673E+00  0.88000000000E+00 0. -1.
        -11    1    4    4    0    0  0.21309747654E-01  0.66971961175E-01  0.72943258547E-01  0.10129328219E+00  0.51100000000E-03 0. -1.
         11    1    4    4    0    0  0.30625760810E-01  0.14558677425E-01  0.17298541163E-01  0.38070893882E-01  0.51100000000E-03 0.  1.
</event>
<event>
 8    1  0.2077555E+004  0.1043930E+01  0.7957747E-01            NaN
         13   -1    0    0    0    0  0.00000000000E+00  0.00000000000E+00  0.74505805969E-08  0.10566000000E+00  0.10566000000E+00 0.  1.
     999900   -1    0    0    0    0 -0.00000000000E+00 -0.00000000000E+00 -0.74505805969E-08  0.93827000000E+00  0.93827000000E+00 0.  1.
     999902    2    1    2    0    0  0.25154872365E-01  0.10166489643E-02  0.32004605395E-02  0.10185519755E+01  0.10182357697E+01 0.  0.
     999903    2    3    3    0    0 -0.12269627755E-01 -0.97796545964E-01  0.71710212205E-01  0.12958728175E+00  0.43997737309E-01 0.  0.
         14    1    1    2    0    0 -0.25154872365E-01 -0.10166489643E-02 -0.32004605395E-02  0.25378024480E-01  0.00000000000E+00 0. -1.
     999901    1    3    3    0    0  0.37424500121E-01  0.98813194929E-01 -0.68509751666E-01  0.88896469377E+00  0.88000000000E+00 0.  1.
        -11    1    4    4    0    0 -0.23336294145E-01 -0.56542696668E-01  0.24430649582E-01  0.65869392975E-01  0.51100000000E-03 0. -1.
         11    1    4    4    0    0  0.11066666389E-01 -0.41253849296E-01  0.47279562623E-01  0.63717888772E-01  0.51100000000E-03 0.  1.
</event>
<event>
 8    1  0.2077555E+004  0.1043930E+01  0.7957747E-01            NaN
         13   -1    0    0    0    0  0.00000000000E+00  0.00000000000E+00  0.74505805969E-08  0.10566000000E+00  0.10566000000E+00 0. -1.
     999900   -1    0    0    0    0 -0.00000000000E+00 -0.00000000000E+00 -0.74505805969E-08  0.93827000000E+00  0.93827000000E+00 0. -1.
     999902    2    1    2    0    0  0.10438913295E-01 -0.14251876043E-01  0.11493222256E-01  0.10228543971E+01  0.10226372458E+01 0.  0.
     999903    2    3    3    0    0 -0.18503729522E-01  0.72379955473E-01  0.10118658845E+00  0.13359197755E+00  0.45020493374E-01 0.  0.
         14    1    1    2    0    0 -0.10438913295E-01  0.14251876043E-01 -0.11493222256E-01  0.21075602942E-01  0.00000000000E+00 0. -1.
     999901    1    3    3    0    0  0.28942642817E-01 -0.86631831516E-01 -0.89693366195E-01  0.88926241951E+00  0.88000000000E+00 0. -1.
        -11    1    4    4    0    0 -0.14002403821E-02  0.21516314222E-01  0.65964399999E-01  0.69400833129E-01  0.51100000000E-03 0.  1.
         11    1    4    4    0    0 -0.17103489140E-01  0.50863641251E-01  0.35222188453E-01  0.64191144424E-01  0.51100000000E-03 0. -1.
</event>
<event>
 8    1  0.2077555E+004  0.1043930E+01  0.7957747E-01            NaN
         13   -1    0    0    0    0  0.00000000000E+00  0.00000000000E+00  0.74505805969E-08  0.10566000000E+00  0.10566000000E+00 0.  1.
     999900   -1    0    0    0    0 -0.00000000000E+00 -0.00000000000E+00 -0.74505805969E-08  0.93827000000E+00  0.93827000000E+00 0. -1.
     999902    2    1    2    0    0 -0.20070492999E-02 -0.10660091863E-01 -0.62715766324E-02  0.10314000966E+01  0.10313239844E+01 0.  0.
     999903    2    3    3    0    0  0.87551909854E-01 -0.84046086913E-01  0.58312134216E-01  0.14146899414E+00  0.43406101680E-01 0.  0.
         14    1    1    2    0    0  0.20070492999E-02  0.10660091863E-01  0.62715766324E-02  0.12529903386E-01  0.00000000000E+00 0.  1.
     999901    1    3    3    0    0 -0.89558959154E-01  0.73385995050E-01 -0.64583710849E-01  0.88993110247E+00  0.88000000000E+00 0.  1.
        -11    1    4    4    0    0  0.30834883030E-01 -0.13792582750E-01  0.34069174452E-01  0.47979111280E-01  0.51100000000E-03 0. -1.
         11    1    4    4    0    0  0.56717026824E-01 -0.70253504164E-01  0.24242959764E-01  0.93489882865E-01  0.51100000000E-03 0.  1.
</event>
<event>
 8    1  0.2077555E+004  0.1043930E+01  0.7957747E-01            NaN
         13   -1    0    0    0    0  0.00000000000E+00  0.00000000000E+00  0.74505805969E-08  0.10566000000E+00  0.10566000000E+00 0. -1.
     999900   -1    0    0    0    0 -0.00000000000E+00 -0.00000000000E+00 -0.74505805969E-08  0.93827000000E+00  0.93827000000E+00 0.  1.
     999902    2    1    2    0    0  0.61054638852E-02 -0.40505435372E-02 -0.11540750213E-01  0.10302598680E+01  0.10301691721E+01 0.  0.
     999903    2    3    3    0    0  0.65657263158E-02  0.30737980042E-01 -0.13052201277E+00  0.14157151207E+00  0.44928443469E-01 0.  0.
         14    1    1    2    0    0 -0.61054638852E-02  0.40505435372E-02  0.11540750213E-01  0.13670131956E-01  0.00000000000E+00 0. -1.
     999901    1    3    3    0    0 -0.46026243061E-03 -0.34788523579E-01  0.11898126255E+00  0.88868835598E+00  0.88000000000E+00 0. -1.
        -11    1    4    4    0    0  0.86487385723E-02 -0.24538313914E-02 -0.83448263471E-01  0.83932685914E-01  0.51100000000E-03 0. -1.
         11    1    4    4    0    0 -0.20830122565E-02  0.33191811433E-01 -0.47073749296E-01  0.57638826151E-01  0.51100000000E-03 0.  1.
</event>
<event>
 8    1  0.2077555E+004  0.1043930E+01  0.7957747E-01            NaN
         13   -1    0    0    0    0  0.00000000000E+00  0.00000000000E+00  0.74505805969E-08  0.10566000000E+00  0.10566000000E+00 0.  1.
     999900   -1    0    0    0    0 -0.00000000000E+00 -0.00000000000E+00 -0.74505805969E-08  0.93827000000E+00  0.93827000000E+00 0.  1.
     999902    2    1    2    0    0 -0.97933385318E-02  0.42522240814E-02  0.70841288308E-02  0.10311168907E+01  0.10310372770E+01 0.  0.
     999903    2    3    3    0    0 -0.13158662194E+00  0.29933135990E-01  0.70304854088E-02  0.14235757793E+00  0.44779689195E-01 0.  0.
         14    1    1    2    0    0  0.97933385318E-02 -0.42522240814E-02 -0.70841288308E-02  0.12813109323E-01  0.00000000000E+00 0. -1.
     999901    1    3    3    0    0  0.12179328341E+00 -0.25680911908E-01  0.53643422023E-04  0.88875931275E+00  0.88000000000E+00 0. -1.
        -11    1    4    4    0    0 -0.95364056187E-01  0.38840923186E-01 -0.51878784903E-02  0.10310235560E+00  0.51100000000E-03 0. -1.
         11    1    4    4    0    0 -0.36222565754E-01 -0.89077871958E-02  0.12218363899E-01  0.39255222327E-01  0.51100000000E-03 0.  1.
</event>
<event>
 7    1  0.2077555E+004  0.1043930E+01  0.7957747E-01            NaN
         13   -1    0    0    0    0  0.00000000000E+00  0.00000000000E+00  0.74505805969E-08  0.10566000000E+00  0.10566000000E+00 0. -1.
     999900   -1    0    0    0    0 -0.00000000000E+00 -0.00000000000E+00 -0.74505805969E-08  0.93827000000E+00  0.93827000000E+00 0. -1.
     999903    2    1    2    0    0 -0.73997533567E-01 -0.59986093746E-01 -0.31438426799E-01  0.10909991042E+00  0.42900458711E-01 0.  0.
         14    1    1    2    0    0 -0.20509593973E-01 -0.20886538569E-01  0.35578542223E-01  0.46073024701E-01  0.00000000000E+00 0. -1.
     999901    1    1    2    0    0  0.94507127540E-01  0.80872632315E-01 -0.41401154239E-02  0.88875706488E+00  0.88000000000E+00 0. -1.
        -11    1    3    3    0    0 -0.80293835868E-02 -0.27711477780E-01 -0.19162875847E-01  0.34639196487E-01  0.51100000000E-03 0.  1.
         11    1    3    3    0    0 -0.65968149980E-01 -0.32274615966E-01 -0.12275550952E-01  0.74460713935E-01  0.51100000000E-03 0. -1.
</event>
<event>
 8    1  0.2077555E+004  0.1043930E+01  0.7957747E-01            NaN
         13   -1    0    0    0    0  0.00000000000E+00  0.00000000000E+00  0.74505805969E-08  0.10566000000E+00  0.10566000000E+00 0. -1.
     999900   -1    0    0    0    0 -0.00000000000E+00 -0.00000000000E+00 -0.74505805969E-08  0.93827000000E+00  0.93827000000E+00 0. -1.
     999902    2    1    2    0    0 -0.51340187120E-02  0.17708712063E-02 -0.11372996119E-01  0.10313268586E+01  0.10312498485E+01 0.  0.
     999903    2    3    3    0    0 -0.39910197720E-01  0.82742780835E-01  0.94926058271E-01  0.14056015414E+00  0.48031330713E-01 0.  0.
         14    1    1    2    0    0  0.51340187120E-02 -0.17708712063E-02  0.11372996119E-01  0.12603141422E-01  0.00000000000E+00 0. -1.
     999901    1    3    3    0    0  0.34776179008E-01 -0.80971909629E-01 -0.10629905439E+00  0.89076670444E+00  0.88000000000E+00 0.  1.
        -11    1    4    4    0    0 -0.42713392625E-02  0.40145927634E-01  0.67408537866E-01  0.78575517452E-01  0.51100000000E-03 0.  1.
         11    1    4    4    0    0 -0.35638858458E-01  0.42596853202E-01  0.27517520405E-01  0.61984636686E-01  0.51100000000E-03 0. -1.
</event>
<event>
 8    1  0.2077555E+004  0.1043930E+01  0.7957747E-01            NaN
         13   -1    0    0    0    0  0.00000000000E+00  0.00000000000E+00  0.74505805969E-08  0.10566000000E+00  0.10566000000E+00 0.  1.
     999900   -1    0    0    0    0 -0.00000000000E+00 -0.00000000000E+00 -0.74505805969E-08  0.93827000000E+00  0.93827000000E+00 0.  1.
     999902    2    1    2    0    0 -0.21637628211E-03  0.33058918316E-02 -0.14067901569E-01  0.10294772634E+01  0.10293758081E+01 0.  0.
     999903    2    3    3    0    0  0.66691865799E-01 -0.31445907119E-01 -0.11155949354E+00  0.14088905122E+00  0.44357120243E-01 0.  0.
         14    1    1    2    0    0  0.21637628211E-03 -0.33058918316E-02  0.14067901569E-01  0.14452736559E-01  0.00000000000E+00 0.  1.
     999901    1    3    3    0    0 -0.66908242081E-01  0.34751798950E-01  0.97491591974E-01  0.88858821222E+00  0.88000000000E+00 0. -1.
        -11    1    4    4    0    0  0.19915513210E-01 -0.30243157789E-01 -0.30751594333E-01  0.47509977210E-01  0.51100000000E-03 0.  1.
         11    1    4    4    0    0  0.46776352590E-01 -0.12027493296E-02 -0.80807899210E-01  0.93379074012E-01  0.51100000000E-03 0. -1.
</event>
<event>
 8    1  0.2077555E+004  0.1043930E+01  0.7957747E-01            NaN
         13   -1    0    0    0    0  0.00000000000E+00  0.00000000000E+00  0.74505805969E-08  0.10566000000E+00  0.10566000000E+00 0. -1.
     999900   -1    0    0    0    0 -0.00000000000E+00 -0.00000000000E+00 -0.74505805969E-08  0.93827000000E+00  0.93827000000E+00 0.  1.
     999902    2    1    2    0    0  0.10213279590E-02  0.14067357189E-01 -0.23537913117E-02  0.10296305601E+01  0.10295312604E+01 0.  0.
     999903    2    3    3    0    0 -0.11415837796E+00  0.54079809541E-01  0.42239143897E-01  0.14010490508E+00  0.43456623094E-01 0.  0.
         14    1    1    2    0    0 -0.10213279590E-02 -0.14067357189E-01  0.23537913117E-02  0.14299439940E-01  0.00000000000E+00 0. -1.
     999901    1    3    3    0    0  0.11517970592E+00 -0.40012452352E-01 -0.44592935209E-01  0.88952565498E+00  0.88000000000E+00 0. -1.
        -11    1    4    4    0    0 -0.44327403892E-01  0.28601998104E-01 -0.34190136318E-02  0.52867228097E-01  0.51100000000E-03 0.  1.
         11    1    4    4    0    0 -0.69830974070E-01  0.25477811436E-01  0.45658157529E-01  0.87237676982E-01  0.51100000000E-03 0. -1.
</event>
<event>
 8    1  0.2077555E+004  0.1043930E+01  0.7957747E-01            NaN
         13   -1    0    0    0    0  0.00000000000E+00  0.00000000000E+00  0.74505805969E-08  0.10566000000E+00  0.10566000000E+00 0.  1.
     999900   -1    0    0    0    0 -0.00000000000E+00 -0.00000000000E+00 -0.74505805969E-08  0.93827000000E+00  0.93827000000E+00 0.  1.
     999902    2    1    2    0    0 -0.13095157986E-01  0.27955930670E-02 -0.22532707942E-02  0.10303514974E+01  0.10302620213E+01 0.  0.
     999903    2    3    3    0    0 -0.53908412459E-01 -0.66575713414E-01  0.98032866322E-01  0.14100600257E+00  0.54164631726E-01 0.  0.
         14    1    1    2    0    0  0.13095157986E-01 -0.27955930670E-02  0.22532707942E-02  0.13578502588E-01  0.00000000000E+00 0. -1.
     999901    1    3    3    0    0  0.40813254473E-01  0.69371306481E-01 -0.10028613712E+00  0.88934549485E+00  0.88000000000E+00 0.  1.
        -11    1    4    4    0    0 -0.55430804620E-01 -0.26868708718E-01  0.58574201690E-01  0.85004116569E-01  0.51100000000E-03 0.  1.
         11    1    4    4    0    0  0.15223921607E-02 -0.39707004695E-01  0.39458664632E-01  0.56001885998E-01  0.51100000000E-03 0. -1.
</event>
<event>
 8    1  0.2077555E+004  0.1043930E+01  0.7957747E-01            NaN
         13   -1    0    0    0    0  0.00000000000E+00  0.00000000000E+00  0.74505805969E-08  0.10566000000E+00  0.10566000000E+00 0. -1.
     999900   -1    0    0    0    0 -0.00000000000E+00 -0.00000000000E+00 -0.74505805969E-08  0.93827000000E+00  0.93827000000E+00 0. -1.
     999902    2    1    2    0    0  0.13573046373E-01 -0.20597745070E-02  0.11929163136E-02  0.10301498219E+01  0.10300576500E+01 0.  0.
     999903    2    3    3    0    0  0.35532680909E-01 -0.72036596286E-01 -0.10692231144E+00  0.14050501436E+00  0.43097978576E-01 0.  0.
         14    1    1    2    0    0 -0.13573046373E-01  0.20597745070E-02 -0.11929163136E-02  0.13780178090E-01  0.00000000000E+00 0. -1.
     999901    1    3    3    0    0 -0.21959634536E-01  0.69976821779E-01  0.10811522776E+00  0.88964480755E+00  0.88000000000E+00 0.  1.
        -11    1    4    4    0    0  0.32221877182E-01 -0.76971547335E-01 -0.90825002147E-01  0.12333819605E+00  0.51100000000E-03 0.  1.
         11    1    4    4    0    0  0.33108037274E-02  0.49349510498E-02 -0.16097309298E-01  0.17166818308E-01  0.51100000000E-03 0. -1.
</event>
<event>
 8    1  0.2077555E+004  0.1043930E+01  0.7957747E-01            NaN
         13   -1    0    0    0    0  0.00000000000E+00  0.00000000000E+00  0.74505805969E-08  0.10566000000E+00  0.10566000000E+00 0.  1.
     999900   -1    0    0    0    0 -0.00000000000E+00 -0.00000000000E+00 -0.74505805969E-08  0.93827000000E+00  0.93827000000E+00 0. -1.
     999902    2    1    2    0    0  0.63954583537E-02  0.76284517167E-02 -0.10204034434E-01  0.10296745631E+01  0.10295758779E+01 0.  0.
     999903    2    3    3    0    0  0.47637217403E-02  0.54469578693E-01 -0.12503320296E+00  0.14097748776E+00  0.35379685759E-01 0.  0.
         14    1    1    2    0    0 -0.63954583537E-02 -0.76284517167E-02  0.10204034434E-01  0.14255436923E-01  0.00000000000E+00 0.  1.
     999901    1    3    3    0    0  0.16317366134E-02 -0.46841126976E-01  0.11482916852E+00  0.88869707532E+00  0.88000000000E+00 0.  1.
        -11    1    4    4    0    0  0.13776042014E-01  0.17486250698E-01 -0.74203054993E-01  0.77471948397E-01  0.51100000000E-03 0. -1.
         11    1    4    4    0    0 -0.90123202735E-02  0.36983327994E-01 -0.50830147963E-01  0.63505539359E-01  0.51100000000E-03 0.  1.
</event>
<event>
 8    1  0.2077555E+004  0.1043930E+01  0.7957747E-01            NaN
         13   -1    0    0    0    0  0.00000000000E+00  0.00000000000E+00  0.74505805969E-08  0.10566000000E+00  0.10566000000E+00 0.  1.
     999900   -1    0    0    0    0 -0.00000000000E+00 -0.00000000000E+00 -0.74505805969E-08  0.93827000000E+00  0.93827000000E+00 0. -1.
     999902    2    1    2    0    0  0.73919861821E-02 -0.30174134213E-02 -0.11362125120E-01  0.10300431670E+01  0.10299495530E+01 0.  0.
     999903    2    3    3    0    0 -0.10845550923E+00  0.30258398775E-01 -0.69994067696E-01  0.13989395111E+00  0.44642803048E-01 0.  0.
         14    1    1    2    0    0 -0.73919861821E-02  0.30174134213E-02  0.11362125120E-01  0.13886832998E-01  0.00000000000E+00 0.  1.
     999901    1    3    3    0    0  0.11584749541E+00 -0.33275812196E-01  0.58631942576E-01  0.89014921590E+00  0.88000000000E+00 0.  1.
        -11    1    4    4    0    0 -0.63713949086E-01  0.14957630138E-01 -0.65168443608E-01  0.92360084294E-01  0.51100000000E-03 0.  1.
         11    1    4    4    0    0 -0.44741560146E-01  0.15300768637E-01 -0.48256240878E-02  0.47533866811E-01  0.51100000000E-03 0. -1.
</event>
<event>
 8    1  0.2077555E+004  0.1043930E+01  0.7957747E-01            NaN
         13   -1    0    0    0    0  0.00000000000E+00  0.00000000000E+00  0.74505805969E-08  0.10566000000E+00  0.10566000000E+00 0.  1.
     999900   -1    0    0    0    0 -0.00000000000E+00 -0.00000000000E+00 -0.74505805969E-08  0.93827000000E+00  0.93827000000E+00 0. -1.
     999902    2    1    2    0    0  0.78417719753E-02 -0.11715069859E-01 -0.57934938398E-02  0.10286885821E+01  0.10285756647E+01 0.  0.
     999903    2    3    3    0    0  0.53480556981E-01  0.90676471621E-01 -0.78441567304E-01  0.13860731104E+00  0.44458010671E-01 0.  0.
         14    1    1    2    0    0 -0.78417719753E-02  0.11715069859E-01  0.57934938398E-02  0.15241417925E-01  0.00000000000E+00 0.  1.
     999901    1    3    3    0    0 -0.45638785006E-01 -0.10239154148E+00  0.72648073464E-01  0.89008127103E+00  0.88000000000E+00 0.  1.
        -11    1    4    4    0    0  0.31457650527E-02  0.47511297841E-01 -0.27500828797E-01  0.54988871291E-01  0.51100000000E-03 0.  1.
         11    1    4    4    0    0  0.50334791928E-01  0.43165173780E-01 -0.50940738507E-01  0.83618439752E-01  0.51100000000E-03 0. -1.
</event>
<event>
 8    1  0.2077555E+004  0.1043930E+01  0.7957747E-01            NaN
         13   -1    0    0    0    0  0.00000000000E+00  0.00000000000E+00  0.74505805969E-08  0.10566000000E+00  0.10566000000E+00 0.  1.
     999900   -1    0    0    0    0 -0.00000000000E+00 -0.00000000000E+00 -0.74505805969E-08  0.93827000000E+00  0.93827000000E+00 0. -1.
     999902    2    1    2    0    0 -0.27817238142E-02 -0.13870675780E-01  0.43835964000E-02  0.10291195459E+01  0.10290129689E+01 0.  0.
     999903    2    3    3    0    0  0.95819298959E-01 -0.31244530377E-01  0.85659673239E-01  0.13972097764E+00  0.45020142618E-01 0.  0.
         14    1    1    2    0    0  0.27817238142E-02  0.13870675780E-01 -0.43835964000E-02  0.14810454125E-01  0.00000000000E+00 0. -1.
     999901    1    3    3    0    0 -0.98601022773E-01  0.17373854597E-01 -0.81276076839E-01  0.88939856824E+00  0.88000000000E+00 0. -1.
        -11    1    4    4    0    0  0.34657516695E-01  0.64543701963E-02  0.13112499967E-01  0.37616500827E-01  0.51100000000E-03 0.  1.
         11    1    4    4    0    0  0.61161782264E-01 -0.37698900574E-01  0.72547173272E-01  0.10210447681E+00  0.51100000000E-03 0. -1.
</event>
<event>
 8    1  0.2077555E+004  0.1043930E+01  0.7957747E-01            NaN
         13   -1    0    0    0    0  0.00000000000E+00  0.00000000000E+00  0.74505805969E-08  0.10566000000E+00  0.10566000000E+00 0.  1.
     999900   -1    0    0    0    0 -0.00000000000E+00 -0.00000000000E+00 -0.74505805969E-08  0.93827000000E+00  0.93827000000E+00 0. -1.
     999902    2    1    2    0    0  0.35809812673E-02  0.12943823076E-01  0.83558262941E-02  0.10281127368E+01  0.10279910572E+01 0.  0.
     999903    2    3    3    0    0  0.12813681581E-01 -0.12777220248E+00 -0.12856553256E-01  0.13663295145E+00  0.44870327604E-01 0.  0.
         14    1    1    2    0    0 -0.35809812673E-02 -0.12943823076E-01 -0.83558262941E-02  0.15817263218E-01  0.00000000000E+00 0. -1.
     999901    1    3    3    0    0 -0.92327003133E-02  0.14071602555E+00  0.21212379550E-01  0.89147978533E+00  0.88000000000E+00 0. -1.
        -11    1    4    4    0    0  0.27287100189E-01 -0.65127514638E-01  0.19955863907E-02  0.70642922404E-01  0.51100000000E-03 0. -1.
         11    1    4    4    0    0 -0.14473418609E-01 -0.62644687840E-01 -0.14852139647E-01  0.65990029049E-01  0.51100000000E-03 0.  1.
</event>
<event>
 8    1  0.2077555E+004  0.1043930E+01  0.7957747E-01            NaN
         13   -1    0    0    0    0  0.00000000000E+00  0.00000000000E+00  0.74505805969E-08  0.10566000000E+00  0.10566000000E+00 0.  1.
     999900   -1    0    0    0    0 -0.00000000000E+00 -0.00000000000E+00 -0.74505805969E-08  0.93827000000E+00  0.93827000000E+00 0. -1.
     999902    2    1    2    0    0  0.95797193977E-02  0.35659727822E-02  0.10390130572E-01  0.10293546098E+01  0.10292514128E+01 0.  0.
     999903    2    3    3    0    0  0.82735202685E-02 -0.10872477425E+00 -0.72328613170E-01  0.13837014947E+00  0.45003803248E-01 0.  0.
         14    1    1    2    0    0 -0.95797193977E-02 -0.35659727822E-02 -0.10390130572E-01  0.14575390181E-01  0.00000000000E+00 0. -1.
     999901    1    3    3    0    0  0.13061991291E-02  0.11229074703E+00  0.82718743742E-01  0.89098446035E+00  0.88000000000E+00 0.  1.
        -11    1    4    4    0    0  0.12588781306E-01 -0.55977960741E-01 -0.12937425442E-01  0.58818769126E-01  0.51100000000E-03 0.  1.
         11    1    4    4    0    0 -0.43152610378E-02 -0.52746813509E-01 -0.59391187728E-01  0.79551380339E-01  0.51100000000E-03 0. -1.
</event>
<event>
 8    1  0.2077555E+004  0.1043930E+01  0.7957747E-01            NaN
         13   -1    0    0    0    0  0.00000000000E+00  0.00000000000E+00  0.74505805969E-08  0.10566000000E+00  0.10566000000E+00 0. -1.
     999900   -1    0    0    0    0 -0.00000000000E+00 -0.00000000000E+00 -0.74505805969E-08  0.93827000000E+00  0.93827000000E+00 0. -1.
     999902    2    1    2    0    0 -0.78466876335E-02 -0.51196755921E-02 -0.99572706134E-02  0.10302578084E+01  0.10301670850E+01 0.  0.
     999903    2    3    3    0    0  0.71837136072E-01  0.72168220280E-01  0.82393403717E-01  0.13848901681E+00  0.44963414727E-01 0.  0.
         14    1    1    2    0    0  0.78466876335E-02  0.51196755921E-02  0.99572706134E-02  0.13672191597E-01  0.00000000000E+00 0. -1.
     999901    1    3    3    0    0 -0.79683823705E-01 -0.77287895872E-01 -0.92350674330E-01  0.89176879159E+00  0.88000000000E+00 0. -1.
        -11    1    4    4    0    0  0.47148244988E-01  0.51112759268E-01  0.27619953885E-01  0.74823753843E-01  0.51100000000E-03 0.  1.
         11    1    4    4    0    0  0.24688891084E-01  0.21055461012E-01  0.54773449832E-01  0.63665262969E-01  0.51100000000E-03 0. -1.
</event>
<event>
 8    1  0.2077555E+004  0.1043930E+01  0.7957747E-01            NaN
         13   -1    0    0    0    0  0.00000000000E+00  0.00000000000E+00  0.74505805969E-08  0.10566000000E+00  0.10566000000E+00 0. -1.
     999900   -1    0    0    0    0 -0.00000000000E+00 -0.00000000000E+00 -0.74505805969E-08  0.93827000000E+00  0.93827000000E+00 0.  1.
     999902    2    1    2    0    0 -0.13430984942E-01 -0.19244488217E-02  0.83010531663E-04  0.10303615900E+01  0.10302722477E+01 0.  0.
     999903    2    3    3    0    0 -0.38865378579E-01  0.84764826545E-01 -0.95341454419E-01  0.14060445044E+00  0.44542396457E-01 0.  0.
         14    1    1    2    0    0  0.13430984942E-01  0.19244488217E-02 -0.83010531663E-04  0.13568410022E-01  0.00000000000E+00 0. -1.
     999901    1    3    3    0    0  0.25434393638E-01 -0.86689275367E-01  0.95424464951E-01  0.88975713954E+00  0.88000000000E+00 0.  1.
        -11    1    4    4    0    0 -0.31734047794E-01  0.44623163715E-01 -0.80198374761E-01  0.97109819095E-01  0.51100000000E-03 0. -1.
         11    1    4    4    0    0 -0.71313307856E-02  0.40141662830E-01 -0.15143079658E-01  0.43494631348E-01  0.51100000000E-03 0.  1.
</event>
<event>
 8    1  0.2077555E+004  0.1043930E+01  0.7957747E-01            NaN
         13   -1    0    0    0    0  0.00000000000E+00  0.00000000000E+00  0.74505805969E-08  0.10566000000E+00  0.10566000000E+00 0.  1.
     999900   -1    0    0    0    0 -0.00000000000E+00 -0.00000000000E+00 -0.74505805969E-08  0.93827000000E+00  0.93827000000E+00 0.  1.
     999902    2    1    2    0    0 -0.14948920535E-02 -0.13596627414E-01  0.26508667825E-03  0.10302488725E+01  0.10301580296E+01 0.  0.
     999903    2    3    3    0    0  0.88014739949E-01  0.90158611697E-01  0.37198996356E-01  0.13887844581E+00  0.45036514831E-01 0.  0.
         14    1    1    2    0    0  0.14948920535E-02  0.13596627414E-01 -0.26508667825E-03  0.13681127521E-01  0.00000000000E+00 0. -1.
     999901    1    3    3    0    0 -0.89509632003E-01 -0.10375523911E+00 -0.36933909677E-01  0.89137042667E+00  0.88000000000E+00 0. -1.
        -11    1    4    4    0    0  0.60317528647E-01  0.30383201361E-01  0.13588271520E-01  0.68892999869E-01  0.51100000000E-03 0. -1.
         11    1    4    4    0    0  0.27697211302E-01  0.59775410336E-01  0.23610724835E-01  0.69985445937E-01  0.51100000000E-03 0.  1.
</event>
<event>
 8    1  0.2077555E+004  0.1043930E+01  0.7957747E-01            NaN
         13   -1    0    0    0    0  0.00000000000E+00  0.00000000000E+00  0.74505805969E-08  0.10566000000E+00  0.10566000000E+00 0.  1.
     999900   -1    0    0    0    0 -0.00000000000E+00 -0.00000000000E+00 -0.74505805969E-08  0.93827000000E+00  0.93827000000E+00 0.  1.
     999902    2    1    2    0    0  0.67261695652E-02  0.58149561426E-02  0.10312856834E-01  0.10303134627E+01  0.10302234813E+01 0.  0.
     999903    2    3    3    0    0 -0.21845151610E-01 -0.12834417401E+00 -0.19963208811E-01  0.13917282692E+00  0.44956739155E-01 0.  0.
         14    1    1    2    0    0 -0.67261695652E-02 -0.58149561426E-02 -0.10312856834E-01  0.13616537300E-01  0.00000000000E+00 0. -1.
     999901    1    3    3    0    0  0.28571321175E-01  0.13415913015E+00  0.30276065645E-01  0.89114063578E+00  0.88000000000E+00 0.  1.
        -11    1    4    4    0    0 -0.32199390926E-01 -0.11746869684E+00 -0.12636356635E-01  0.12245666231E+00  0.51100000000E-03 0. -1.
         11    1    4    4    0    0  0.10354239316E-01 -0.10875477164E-01 -0.73268521764E-02  0.16716164607E-01  0.51100000000E-03 0.  1.
</event>
<event>
 8    1  0.2077555E+004  0.1043930E+01  0.7957747E-01            NaN
         13   -1    0    0    0    0  0.00000000000E+00  0.00000000000E+00  0.74505805969E-08  0.10566000000E+00  0.10566000000E+00 0. -1.
     999900   -1    0    0    0    0 -0.00000000000E+00 -0.00000000000E+00 -0.74505805969E-08  0.93827000000E+00  0.93827000000E+00 0. -1.
     999902    2    1    2    0    0  0.69577695343E-02 -0.29119353168E-02 -0.11818680705E-01  0.10299096171E+01  0.10298141814E+01 0.  0.
     999903    2    3    3    0    0 -0.94897651549E-01  0.77416629087E-01  0.46556932361E-01  0.13848664379E+00  0.44856480356E-01 0.  0.
         14    1    1    2    0    0 -0.69577695343E-02  0.29119353168E-02  0.11818680705E-01  0.14020382941E-01  0.00000000000E+00 0. -1.
     999901    1    3    3    0    0  0.10185542108E+00 -0.80328564404E-01 -0.58375613067E-01  0.89142297326E+00  0.88000000000E+00 0.  1.
        -11    1    4    4    0    0 -0.10359757728E-01  0.24488747378E-01  0.24877529155E-01  0.36416698178E-01  0.51100000000E-03 0.  1.
         11    1    4    4    0    0 -0.84537893820E-01  0.52927881709E-01  0.21679403207E-01  0.10206994562E+00  0.51100000000E-03 0. -1.
</event>
<event>
 8    1  0.2077555E+004  0.1043930E+01  0.7957747E-01            NaN
         13   -1    0    0    0    0  0.00000000000E+00  0.00000000000E+00  0.74505805969E-08  0.10566000000E+00  0.10566000000E+00 0. -1.
     999900   -1    0    0    0    0 -0.00000000000E+00 -0.00000000000E+00 -0.74505805969E-08  0.93827000000E+00  0.93827000000E+00 0.  1.
     999902    2    1    2    0    0 -0.13453558429E-01 -0.34548569077E-02 -0.10793596980E-02  0.10299980479E+01  0.10299038205E+01 0.  0.
     999903    2    3    3    0    0 -0.47043628643E-02 -0.87548353203E-01 -0.10037033423E+00  0.14038748025E+00  0.44131569625E-01 0.  0.
         14    1    1    2    0    0  0.13453558429E-01  0.34548569077E-02  0.10793596980E-02  0.13931952053E-01  0.00000000000E+00 0.  1.
     999901    1    3    3    0    0 -0.87491955643E-02  0.84093496295E-01  0.99290974533E-01  0.88961056770E+00  0.88000000000E+00 0. -1.
        -11    1    4    4    0    0  0.18872159911E-01 -0.27956374977E-01 -0.40211119433E-01  0.52487261012E-01  0.51100000000E-03 0. -1.
         11    1    4    4    0    0 -0.23576522776E-01 -0.59591978226E-01 -0.60159214798E-01  0.87900219233E-01  0.51100000000E-03 0.  1.
</event>
<event>
 8    1  0.2077555E+004  0.1043930E+01  0.7957747E-01            NaN
         13   -1    0    0    0    0  0.00000000000E+00  0.00000000000E+00  0.74505805969E-08  0.10566000000E+00  0.10566000000E+00 0. -1.
     999900   -1    0    0    0    0 -0.00000000000E+00 -0.00000000000E+00 -0.74505805969E-08  0.93827000000E+00  0.93827000000E+00 0.  1.
     999902    2    1    2    0    0  0.11148532253E-01  0.63574425872E-02  0.60385408930E-02  0.10297465299E+01  0.10296488455E+01 0.  0.
     999903    2    3    3    0    0  0.81459666346E-01 -0.64115706663E-02 -0.10427822129E+00  0.13998448796E+00  0.45220835412E-01 0.  0.
         14    1    1    2    0    0 -0.11148532253E-01 -0.63574425872E-02 -0.60385408930E-02  0.14183470089E-01  0.00000000000E+00 0.  1.
     999901    1    3    3    0    0 -0.70311134094E-01  0.12769013254E-01  0.11031676218E+00  0.88976204195E+00  0.88000000000E+00 0. -1.
        -11    1    4    4    0    0  0.29778248416E-01 -0.24451080965E-02 -0.74346712889E-01  0.80127507578E-01  0.51100000000E-03 0. -1.
         11    1    4    4    0    0  0.51681417930E-01 -0.39664625698E-02 -0.29931508398E-01  0.59856980383E-01  0.51100000000E-03 0.  1.
</event>
<event>
 8    1  0.2077555E+004  0.1043930E+01  0.7957747E-01            NaN
         13   -1    0    0    0    0  0.00000000000E+00  0.00000000000E+00  0.74505805969E-08  0.10566000000E+00  0.10566000000E+00 0. -1.
     999900   -1    0    0    0    0 -0.00000000000E+00 -0.00000000000E+00 -0.74505805969E-08  0.93827000000E+00  0.93827000000E+00 0.  1.
     999902    2    1    2    0    0  0.56451079614E-02 -0.89112436458E-02 -0.92290760800E-02  0.10299138182E+01  0.10298184401E+01 0.  0.
     999903    2    3    3    0    0  0.44189208851E-01  0.11149422272E+00 -0.56095113963E-01  0.13964444910E+00  0.44387638763E-01 0.  0.
         14    1    1    2    0    0 -0.56451079614E-02  0.89112436458E-02  0.92290760800E-02  0.14016181809E-01  0.00000000000E+00 0. -1.
     999901    1    3    3    0    0 -0.38544100890E-01 -0.12040546636E+00  0.46866037883E-01  0.89026936910E+00  0.88000000000E+00 0.  1.
        -11    1    4    4    0    0  0.37115977848E-01  0.43445484174E-01 -0.12427038225E-01  0.58479041602E-01  0.51100000000E-03 0.  1.
         11    1    4    4    0    0  0.70732310036E-02  0.68048738541E-01 -0.43668075738E-01  0.81165407493E-01  0.51100000000E-03 0. -1.
</event>
<event>
 8    1  0.2077555E+004  0.1043930E+01  0.7957747E-01            NaN
         13   -1    0    0    0    0  0.00000000000E+00  0.00000000000E+00  0.74505805969E-08  0.10566000000E+00  0.10566000000E+00 0.  1.
     999900   -1    0    0    0    0 -0.00000000000E+00 -0.00000000000E+00 -0.74505805969E-08  0.93827000000E+00  0.93827000000E+00 0.  1.
     999902    2    1    2    0    0  0.88376000477E-02 -0.90284326020E-02  0.59731732240E-02  0.10299552167E+01  0.10298604050E+01 0.  0.
     999903    2    3    3    0    0  0.12683978641E+00  0.39885997010E-01 -0.21586226397E-02  0.14069526398E+00  0.45948596074E-01 0.  0.
         14    1    1    2    0    0 -0.88376000477E-02  0.90284326020E-02 -0.59731732240E-02  0.13974783298E-01  0.00000000000E+00 0. -1.
     999901    1    3    3    0    0 -0.11800218636E+00 -0.48914429612E-01  0.81317958638E-02  0.88925995272E+00  0.88000000000E+00 0. -1.
        -11    1    4    4    0    0  0.80839914063E-01  0.20171018341E-01 -0.23067214655E-01  0.86454145069E-01  0.51100000000E-03 0.  1.
         11    1    4    4    0    0  0.45999872346E-01  0.19714978669E-01  0.20908592015E-01  0.54241118912E-01  0.51100000000E-03 0. -1.
</event>
<event>
 8    1  0.2077555E+004  0.1043930E+01  0.7957747E-01            NaN
         13   -1    0    0    0    0  0.00000000000E+00  0.00000000000E+00  0.74505805969E-08  0.10566000000E+00  0.10566000000E+00 0.  1.
     999900   -1    0    0    0    0 -0.00000000000E+00 -0.00000000000E+00 -0.74505805969E-08  0.93827000000E+00  0.93827000000E+00 0. -1.
     999902    2    1    2    0    0 -0.12955146696E-01  0.16668273719E-03  0.10603862357E-02  0.10309304605E+01  0.10308484982E+01 0.  0.
     999903    2    3    3    0    0 -0.83541779195E-01 -0.57381449429E-01  0.88625571072E-01  0.14190744513E+00  0.44848316873E-01 0.  0.
         14    1    1    2    0    0  0.12955146696E-01 -0.16668273719E-03 -0.10603862357E-02  0.12999539531E-01  0.00000000000E+00 0.  1.
     999901    1    3    3    0    0  0.70586632499E-01  0.57548132166E-01 -0.87565184836E-01  0.88902301534E+00  0.88000000000E+00 0. -1.
        -11    1    4    4    0    0 -0.44384926372E-01 -0.35152020706E-01  0.20445284701E-01  0.60199310928E-01  0.51100000000E-03 0. -1.
         11    1    4    4    0    0 -0.39156852823E-01 -0.22229428723E-01  0.68180286371E-01  0.81708134204E-01  0.51100000000E-03 0.  1.
</event>
<event>
 8    1  0.2077555E+004  0.1043930E+01  0.7957747E-01            NaN
         13   -1    0    0    0    0  0.00000000000E+00  0.00000000000E+00  0.74505805969E-08  0.10566000000E+00  0.10566000000E+00 0.  1.
     999900   -1    0    0    0    0 -0.00000000000E+00 -0.00000000000E+00 -0.74505805969E-08  0.93827000000E+00  0.93827000000E+00 0. -1.
     999902    2    1    2    0    0 -0.18681179843E-02  0.13868703482E-01  0.22382389649E-02  0.10297581788E+01  0.10296606559E+01 0.  0.
     999903    2    3    3    0    0  0.86704189124E-01  0.80902472537E-01  0.61539463328E-01  0.14079517906E+00  0.44422409053E-01 0.  0.
         14    1    1    2    0    0  0.18681179843E-02 -0.13868703482E-01 -0.22382389649E-02  0.14171821151E-01  0.00000000000E+00 0.  1.
     999901    1    3    3    0    0 -0.88572307108E-01 -0.67033769056E-01 -0.59301224363E-01  0.88896299979E+00  0.88000000000E+00 0.  1.
        -11    1    4    4    0    0  0.23042975574E-01  0.50131915301E-01  0.34600158021E-01  0.65127718455E-01  0.51100000000E-03 0. -1.
         11    1    4    4    0    0  0.63661213549E-01  0.30770557236E-01  0.26939305307E-01  0.75667460606E-01  0.51100000000E-03 0.  1.
</event>
<event>
 8    1  0.2077555E+004  0.1043930E+01  0.7957747E-01            NaN
         13   -1    0    0    0    0  0.00000000000E+00  0.00000000000E+00  0.74505805969E-08  0.10566000000E+00  0.10566000000E+00 0. -1.
     999900   -1    0    0    0    0 -0.00000000000E+00 -0.00000000000E+00 -0.74505805969E-08  0.93827000000E+00  0.93827000000E+00 0.  1.
     999902    2    1    2    0    0 -0.12361446622E-01  0.12901296490E-02  0.48428740755E-02  0.10305912135E+01  0.10305048889E+01 0.  0.
     999903    2    3    3    0    0  0.10647464947E+00 -0.75512870953E-01  0.17688721470E-01  0.13919582732E+00  0.44983806160E-01 0.  0.
         14    1    1    2    0    0  0.12361446622E-01 -0.12901296490E-02 -0.48428740755E-02  0.13338786542E-01  0.00000000000E+00 0.  1.
     999901    1    3    3    0    0 -0.11883609609E+00  0.76803000602E-01 -0.12845847395E-01  0.89139538614E+00  0.88000000000E+00 0. -1.
        -11    1    4    4    0    0  0.26395779356E-01 -0.45340590501E-01  0.79966363148E-02  0.53072720187E-01  0.51100000000E-03 0.  1.
         11    1    4    4    0    0  0.80078870113E-01 -0.30172280452E-01  0.96920851553E-02  0.86123107131E-01  0.51100000000E-03 0. -1.
</event>
<event>
 8    1  0.2077555E+004  0.1043930E+01  0.7957747E-01            NaN
         13   -1    0    0    0    0  0.00000000000E+00  0.00000000000E+00  0.74505805969E-08  0.10566000000E+00  0.10566000000E+00 0.  1.
     999900   -1    0    0    0    0 -0.00000000000E+00 -0.00000000000E+00 -0.74505805969E-08  0.93827000000E+00  0.93827000000E+00 0. -1.
     999902    2    1    2    0    0  0.21457171564E-02  0.14652441653E-01  0.29365030134E-02  0.10288329407E+01  0.10287221679E+01 0.  0.
     999903    2    3    3    0    0  0.74048531486E-01  0.55359326298E-01  0.95638225447E-01  0.14011438320E+00  0.44017385083E-01 0.  0.
         14    1    1    2    0    0 -0.21457171564E-02 -0.14652441653E-01 -0.29365030134E-02  0.15097059265E-01  0.00000000000E+00 0.  1.
     999901    1    3    3    0    0 -0.71902814329E-01 -0.40706884645E-01 -0.92701722433E-01  0.88871855754E+00  0.88000000000E+00 0. -1.
        -11    1    4    4    0    0  0.13735405364E-01  0.35604921391E-01  0.27812434965E-01  0.47224616964E-01  0.51100000000E-03 0. -1.
         11    1    4    4    0    0  0.60313126122E-01  0.19754404907E-01  0.67825790481E-01  0.92889766235E-01  0.51100000000E-03 0.  1.
</event>
<event>
 8    1  0.2077555E+004  0.1043930E+01  0.7957747E-01            NaN
         13   -1    0    0    0    0  0.00000000000E+00  0.00000000000E+00  0.74505805969E-08  0.10566000000E+00  0.10566000000E+00 0.  1.
     999900   -1    0    0    0    0 -0.00000000000E+00 -0.00000000000E+00 -0.74505805969E-08  0.93827000000E+00  0.93827000000E+00 0. -1.
     999902    2    1    2    0    0  0.15507587816E-01  0.67324392746E-02  0.10799312877E-01  0.10238691880E+01  0.10236726420E+01 0.  0.
     999903    2    3    3    0    0  0.10027959045E+00 -0.45477577221E-01 -0.63818672064E-01  0.13511724179E+00  0.45383255000E-01 0.  0.
         14    1    1    2    0    0 -0.15507587816E-01 -0.67324392746E-02 -0.10799312877E-01  0.20060811974E-01  0.00000000000E+00 0. -1.
     999901    1    3    3    0    0 -0.84772002639E-01  0.52210016496E-01  0.74617984941E-01  0.88875194623E+00  0.88000000000E+00 0.  1.
        -11    1    4    4    0    0  0.80485454132E-01 -0.54502447633E-01 -0.54553296328E-01  0.11146635540E+00  0.51100000000E-03 0.  1.
         11    1    4    4    0    0  0.19794136323E-01  0.90248704122E-02 -0.92653757359E-02  0.23650886394E-01  0.51100000000E-03 0. -1.
</event>
<event>
 8    1  0.2077555E+004  0.1043930E+01  0.7957747E-01            NaN
         13   -1    0    0    0    0  0.00000000000E+00  0.00000000000E+00  0.74505805969E-08  0.10566000000E+00  0.10566000000E+00 0.  1.
     999900   -1    0    0    0    0 -0.00000000000E+00 -0.00000000000E+00 -0.74505805969E-08  0.93827000000E+00  0.93827000000E+00 0.  1.
     999902    2    1    2    0    0 -0.11548404708E-01 -0.54072503870E-02 -0.44457920750E-02  0.10304255905E+01  0.10303370946E+01 0.  0.
     999903    2    3    3    0    0 -0.12524287561E+00 -0.51348198377E-01 -0.93796158310E-02  0.14190921700E+00  0.41567214321E-01 0.  0.
         14    1    1    2    0    0  0.11548404708E-01  0.54072503870E-02  0.44457920750E-02  0.13504409473E-01  0.00000000000E+00 0.  1.
     999901    1    3    3    0    0  0.11369447091E+00  0.45940947990E-01  0.49338237560E-02  0.88851637353E+00  0.88000000000E+00 0. -1.
        -11    1    4    4    0    0 -0.51988043274E-01 -0.14628975023E-01  0.15643953270E-01  0.56229511367E-01  0.51100000000E-03 0. -1.
         11    1    4    4    0    0 -0.73254832340E-01 -0.36719223354E-01 -0.25023569101E-01  0.85679705628E-01  0.51100000000E-03 0.  1.
</event>
<event>
 8    1  0.2077555E+004  0.1043930E+01  0.7957747E-01            NaN
         13   -1    0    0    0    0  0.00000000000E+00  0.00000000000E+00  0.74505805969E-08  0.10566000000E+00  0.10566000000E+00 0. -1.
     999900   -1    0    0    0    0 -0.00000000000E+00 -0.00000000000E+00 -0.74505805969E-08  0.93827000000E+00  0.93827000000E+00 0.  1.
     999902    2    1    2    0    0 -0.23415845505E-02 -0.77711612769E-02 -0.10923649299E-01  0.10303211764E+01  0.10302312976E+01 0.  0.
     999903    2    3    3    0    0 -0.11544187803E+00  0.66511043462E-01  0.37218166227E-02  0.13985836864E+00  0.42378830266E-01 0.  0.
         14    1    1    2    0    0  0.23415845505E-02  0.77711612769E-02  0.10923649299E-01  0.13608823601E-01  0.00000000000E+00 0. -1.
     999901    1    3    3    0    0  0.11310029348E+00 -0.74282204739E-01 -0.14645465922E-01  0.89046280776E+00  0.88000000000E+00 0.  1.
        -11    1    4    4    0    0 -0.37975457029E-01  0.15997185837E-01 -0.17823413059E-01  0.44899671105E-01  0.51100000000E-03 0.  1.
         11    1    4    4    0    0 -0.77466421001E-01  0.50513857625E-01  0.21545229682E-01  0.94958697537E-01  0.51100000000E-03 0. -1.
</event>
<event>
 8    1  0.2077555E+004  0.1043930E+01  0.7957747E-01            NaN
         13   -1    0    0    0    0  0.00000000000E+00  0.00000000000E+00  0.74505805969E-08  0.10566000000E+00  0.10566000000E+00 0. -1.
     999900   -1    0    0    0    0 -0.00000000000E+00 -0.00000000000E+00 -0.74505805969E-08  0.93827000000E+00  0.93827000000E+00 0. -1.
     999902    2    1    2    0    0 -0.81664738189E-02 -0.11252978408E-01 -0.33135696696E-02  0.10296366253E+01  0.10295374104E+01 0.  0.
     999903    2    3    3    0    0  0.82477011681E-01 -0.69201036194E-01 -0.81754463708E-01  0.13962134857E+00  0.34915437496E-01 0.  0.
         14    1    1    2    0    0  0.81664738189E-02  0.11252978408E-01  0.33135696696E-02  0.14293374746E-01  0.00000000000E+00 0.  1.
     999901    1    3    3    0    0 -0.90643485500E-01  0.57948057786E-01  0.78440894038E-01  0.89001527668E+00  0.88000000000E+00 0.  1.
        -11    1    4    4    0    0  0.56107402049E-01 -0.54288648778E-01 -0.75652424468E-01  0.10871452709E+00  0.51100000000E-03 0.  1.
         11    1    4    4    0    0  0.26369609632E-01 -0.14912387416E-01 -0.61020392397E-02  0.30906821488E-01  0.51100000000E-03 0. -1.
</event>
<event>
 8    1  0.2077555E+004  0.1043930E+01  0.7957747E-01            NaN
         13   -1    0    0    0    0  0.00000000000E+00  0.00000000000E+00  0.74505805969E-08  0.10566000000E+00  0.10566000000E+00 0. -1.
     999900   -1    0    0    0    0 -0.00000000000E+00 -0.00000000000E+00 -0.74505805969E-08  0.93827000000E+00  0.93827000000E+00 0.  1.
     999902    2    1    2    0    0  0.14068760804E-01  0.33593933715E-02  0.41333064706E-02  0.10288867365E+01  0.10287767575E+01 0.  0.
     999903    2    3    3    0    0  0.41359895403E-01  0.25907714047E-01  0.12338259526E+00  0.14013838873E+00  0.45096037375E-01 0.  0.
         14    1    1    2    0    0 -0.14068760804E-01 -0.33593933715E-02 -0.41333064706E-02  0.15043263501E-01  0.00000000000E+00 0.  1.
     999901    1    3    3    0    0 -0.27291134598E-01 -0.22548320676E-01 -0.11924928879E+00  0.88874834777E+00  0.88000000000E+00 0.  1.
        -11    1    4    4    0    0 -0.16400128654E-02  0.20425137310E-01  0.59532325493E-01  0.62962169403E-01  0.51100000000E-03 0.  1.
         11    1    4    4    0    0  0.42999908268E-01  0.54825767370E-02  0.63850269766E-01  0.77176219323E-01  0.51100000000E-03 0. -1.
</event>
<event>
 8    1  0.2077555E+004  0.1043930E+01  0.7957747E-01            NaN
         13   -1    0    0    0    0  0.00000000000E+00  0.00000000000E+00  0.74505805969E-08  0.10566000000E+00  0.10566000000E+00 0. -1.
     999900   -1    0    0    0    0 -0.00000000000E+00 -0.00000000000E+00 -0.74505805969E-08  0.93827000000E+00  0.93827000000E+00 0. -1.
     999902    2    1    2    0    0  0.47898641826E-02  0.37465390646E-02  0.12924366873E-01  0.10296464916E+01  0.10295474146E+01 0.  0.
     999903    2    3    3    0    0 -0.22399282360E-01  0.11148399441E+00 -0.67316180201E-01  0.13903706294E+00  0.43236881196E-01 0.  0.
         14    1    1    2    0    0 -0.47898641826E-02 -0.37465390646E-02 -0.12924366873E-01  0.14283508425E-01  0.00000000000E+00 0.  1.
     999901    1    3    3    0    0  0.27189146543E-01 -0.10773745534E+00  0.80240547074E-01  0.89060942863E+00  0.88000000000E+00 0.  1.
        -11    1    4    4    0    0  0.23382829636E-02  0.13437752504E-01 -0.26850926772E-01  0.30120991834E-01  0.51100000000E-03 0.  1.
         11    1    4    4    0    0 -0.24737565324E-01  0.98046241905E-01 -0.40465253429E-01  0.10891607111E+00  0.51100000000E-03 0. -1.
</event>
<event>
 8    1  0.2077555E+004  0.1043930E+01  0.7957747E-01            NaN
         13   -1    0    0    0    0  0.00000000000E+00  0.00000000000E+00  0.74505805969E-08  0.10566000000E+00  0.10566000000E+00 0.  1.
     999900   -1    0    0    0    0 -0.00000000000E+00 -0.00000000000E+00 -0.74505805969E-08  0.93827000000E+00  0.93827000000E+00 0.  1.
     999902    2    1    2    0    0  0.48590718933E-02 -0.41390570013E-02 -0.58244604162E-02  0.10352890098E+01  0.10352529484E+01 0.  0.
     999903    2    3    3    0    0  0.68591022255E-01  0.10547698152E+00 -0.55347531432E-01  0.14482285549E+00  0.45609081037E-01 0.  0.
         14    1    1    2    0    0 -0.48590718933E-02  0.41390570013E-02  0.58244604162E-02  0.86409902016E-02  0.00000000000E+00 0.  1.
     999901    1    3    3    0    0 -0.63731950362E-01 -0.10961603852E+00  0.49523071016E-01  0.89046615430E+00  0.88000000000E+00 0. -1.
        -11    1    4    4    0    0  0.65692513247E-01  0.62274774706E-01 -0.38120943270E-01  0.98219760223E-01  0.51100000000E-03 0. -1.
         11    1    4    4    0    0  0.28985090080E-02  0.43202206815E-01 -0.17226588163E-01  0.46603095271E-01  0.51100000000E-03 0.  1.
</event>
<event>
 8    1  0.2077555E+004  0.1043930E+01  0.7957747E-01            NaN
         13   -1    0    0    0    0  0.00000000000E+00  0.00000000000E+00  0.74505805969E-08  0.10566000000E+00  0.10566000000E+00 0.  1.
     999900   -1    0    0    0    0 -0.00000000000E+00 -0.00000000000E+00 -0.74505805969E-08  0.93827000000E+00  0.93827000000E+00 0.  1.
     999902    2    1    2    0    0  0.20463503256E-02 -0.13591972168E-01 -0.10136217312E-02  0.10301475225E+01  0.10300553196E+01 0.  0.
     999903    2    3    3    0    0 -0.73050226777E-01  0.94974586199E-01 -0.47472169394E-01  0.13908939300E+00  0.52304347076E-01 0.  0.
         14    1    1    2    0    0 -0.20463503256E-02  0.13591972168E-01  0.10136217312E-02  0.13782477502E-01  0.00000000000E+00 0.  1.
     999901    1    3    3    0    0  0.75096577102E-01 -0.10856655837E+00  0.46458547663E-01  0.89105812950E+00  0.88000000000E+00 0. -1.
        -11    1    4    4    0    0 -0.17503378573E-02  0.16344997079E-01 -0.26046913616E-01  0.30804633451E-01  0.51100000000E-03 0. -1.
         11    1    4    4    0    0 -0.71299888919E-01  0.78629589120E-01 -0.21425255779E-01  0.10828475955E+00  0.51100000000E-03 0.  1.
</event>
<event>
 8    1  0.2077555E+004  0.1043930E+01  0.7957747E-01            NaN
         13   -1    0    0    0    0  0.00000000000E+00  0.00000000000E+00  0.74505805969E-08  0.10566000000E+00  0.10566000000E+00 0. -1.
     999900   -1    0    0    0    0 -0.00000000000E+00 -0.00000000000E+00 -0.74505805969E-08  0.93827000000E+00  0.93827000000E+00 0. -1.
     999902    2    1    2    0    0  0.12624934110E-01  0.11908280667E-02  0.54985726550E-02  0.10301082297E+01  0.10300154968E+01 0.  0.
     999903    2    3    3    0    0  0.99319112171E-01  0.17483868416E-01  0.88821822175E-01  0.14178165261E+00  0.45196783341E-01 0.  0.
         14    1    1    2    0    0 -0.12624934110E-01 -0.11908280667E-02 -0.54985726550E-02  0.13821770292E-01  0.00000000000E+00 0. -1.
     999901    1    3    3    0    0 -0.86694178061E-01 -0.16293040349E-01 -0.83323249520E-01  0.88832657710E+00  0.88000000000E+00 0. -1.
        -11    1    4    4    0    0  0.43706592561E-01  0.21420498211E-01  0.64867135237E-01  0.81099385520E-01  0.51100000000E-03 0. -1.
         11    1    4    4    0    0  0.55612519610E-01 -0.39366297949E-02  0.23954686938E-01  0.60682267087E-01  0.51100000000E-03 0.  1.
</event>
<event>
 7    1  0.2077555E+004  0.1043930E+01  0.7957747E-01            NaN
         13   -1    0    0    0    0  0.00000000000E+00  0.00000000000E+00  0.74505805969E-08  0.10566000000E+00  0.10566000000E+00 0.  1.
     999900   -1    0    0    0    0 -0.00000000000E+00 -0.00000000000E+00 -0.74505805969E-08  0.93827000000E+00  0.93827000000E+00 0.  1.
     999903    2    1    2    0    0 -0.55089272580E-01  0.15136576943E-01 -0.29262831582E-01  0.78359355514E-01  0.44943646596E-01 0.  0.
         14    1    1    2    0    0  0.54443083087E-01 -0.29844810753E-01  0.58021211298E-01  0.84977779362E-01  0.00000000000E+00 0. -1.
     999901    1    1    2    0    0  0.64618949335E-03  0.14708233810E-01 -0.28758379715E-01  0.88059286512E+00  0.88000000000E+00 0.  1.
        -11    1    3    3    0    0 -0.36148513699E-01  0.27992144143E-01 -0.31241932674E-01  0.55376842223E-01  0.51100000000E-03 0. -1.
         11    1    3    3    0    0 -0.18940758882E-01 -0.12855567200E-01  0.19791010918E-02  0.22982513291E-01  0.51100000000E-03 0.  1.
</event>
<event>
 8    1  0.2077555E+004  0.1043930E+01  0.7957747E-01            NaN
         13   -1    0    0    0    0  0.00000000000E+00  0.00000000000E+00  0.74505805969E-08  0.10566000000E+00  0.10566000000E+00 0. -1.
     999900   -1    0    0    0    0 -0.00000000000E+00 -0.00000000000E+00 -0.74505805969E-08  0.93827000000E+00  0.93827000000E+00 0. -1.
     999902    2    1    2    0    0 -0.56193556485E-02 -0.13608778848E-01  0.57334240600E-02  0.10281297414E+01  0.10280083254E+01 0.  0.
     999903    2    3    3    0    0  0.11274650066E+00 -0.64022437660E-01  0.20170488753E-01  0.13865773974E+00  0.44816004270E-01 0.  0.
         14    1    1    2    0    0  0.56193556485E-02  0.13608778848E-01 -0.57334240600E-02  0.15800258577E-01  0.00000000000E+00 0.  1.
     999901    1    3    3    0    0 -0.11836585631E+00  0.50413658811E-01 -0.14437064693E-01  0.88947200168E+00  0.88000000000E+00 0. -1.
        -11    1    4    4    0    0  0.28098936774E-01 -0.40533535259E-01  0.63733447535E-02  0.49733272291E-01  0.51100000000E-03 0.  1.
         11    1    4    4    0    0  0.84647563888E-01 -0.23488902401E-01  0.13797143999E-01  0.88924467453E-01  0.51100000000E-03 0. -1.
</event>
<event>
 8    1  0.2077555E+004  0.1043930E+01  0.7957747E-01            NaN
         13   -1    0    0    0    0  0.00000000000E+00  0.00000000000E+00  0.74505805969E-08  0.10566000000E+00  0.10566000000E+00 0.  1.
     999900   -1    0    0    0    0 -0.00000000000E+00 -0.00000000000E+00 -0.74505805969E-08  0.93827000000E+00  0.93827000000E+00 0.  1.
     999902    2    1    2    0    0  0.14024814248E-01  0.34660549259E-02 -0.16786319084E-01  0.10217830034E+01  0.10215429587E+01 0.  0.
     999903    2    3    3    0    0  0.97207793146E-01  0.69849888008E-02  0.79290279039E-01  0.13264718496E+00  0.42546236147E-01 0.  0.
         14    1    1    2    0    0 -0.14024814248E-01 -0.34660549259E-02  0.16786319084E-01  0.22146996632E-01  0.00000000000E+00 0.  1.
     999901    1    3    3    0    0 -0.83182978898E-01 -0.35189338748E-02 -0.96076598122E-01  0.88913581841E+00  0.88000000000E+00 0.  1.
        -11    1    4    4    0    0  0.28448015998E-01  0.16016512339E-01  0.44117452044E-01  0.54885599000E-01  0.51100000000E-03 0.  1.
         11    1    4    4    0    0  0.68759777148E-01 -0.90315235378E-02  0.35172826994E-01  0.77761585958E-01  0.51100000000E-03 0. -1.
</event>
<event>
 7    1  0.2077555E+004  0.1043930E+01  0.7957747E-01            NaN
         13   -1    0    0    0    0  0.00000000000E+00  0.00000000000E+00  0.74505805969E-08  0.10566000000E+00  0.10566000000E+00 0. -1.
     999900   -1    0    0    0    0 -0.00000000000E+00 -0.00000000000E+00 -0.74505805969E-08  0.93827000000E+00  0.93827000000E+00 0. -1.
     999903    2    1    2    0    0 -0.22669950498E-01  0.96911446913E-01 -0.57253787101E-01  0.12248114858E+00  0.42636608938E-01 0.  0.
         14    1    1    2    0    0 -0.62770941213E-02  0.10359769075E-01 -0.27868540772E-01  0.30387206036E-01  0.00000000000E+00 0.  1.
     999901    1    1    2    0    0  0.28947044620E-01 -0.10727121599E+00  0.85122327873E-01  0.89106164538E+00  0.88000000000E+00 0.  1.
        -11    1    3    3    0    0  0.85849747449E-02  0.35704678533E-01 -0.33658826040E-01  0.49816699528E-01  0.51100000000E-03 0. -1.
         11    1    3    3    0    0 -0.31254925243E-01  0.61206768380E-01 -0.23594961061E-01  0.72664449052E-01  0.51100000000E-03 0.  1.
</event>
<event>
 8    1  0.2077555E+004  0.1043930E+01  0.7957747E-01            NaN
         13   -1    0    0    0    0  0.00000000000E+00  0.00000000000E+00  0.74505805969E-08  0.10566000000E+00  0.10566000000E+00 0.  1.
     999900   -1    0    0    0    0 -0.00000000000E+00 -0.00000000000E+00 -0.74505805969E-08  0.93827000000E+00  0.93827000000E+00 0. -1.
     999902    2    1    2    0    0  0.85417775386E-02 -0.10857406213E-01  0.73578251380E-04  0.10301151295E+01  0.10300224897E+01 0.  0.
     999903    2    3    3    0    0 -0.10739847376E+00  0.29785847323E-01  0.73933324285E-01  0.13851584842E+00  0.36039907869E-01 0.  0.
         14    1    1    2    0    0 -0.85417775386E-02  0.10857406213E-01 -0.73578251379E-04  0.13814870501E-01  0.00000000000E+00 0.  1.
     999901    1    3    3    0    0  0.11594025129E+00 -0.40643253535E-01 -0.73859746034E-01  0.89159928107E+00  0.88000000000E+00 0. -1.
        -11    1    4    4    0    0 -0.53831666209E-01  0.21435307555E-01  0.18136031595E-01  0.60716533661E-01  0.51100000000E-03 0. -1.
         11    1    4    4    0    0 -0.53566807547E-01  0.83505397679E-02  0.55797292690E-01  0.77799314764E-01  0.51100000000E-03 0.  1.
</event>
<event>
 8    1  0.2077555E+004  0.1043930E+01  0.7957747E-01            NaN
         13   -1    0    0    0    0  0.00000000000E+00  0.00000000000E+00  0.74505805969E-08  0.10566000000E+00  0.10566000000E+00 0.  1.
     999900   -1    0    0    0    0 -0.00000000000E+00 -0.00000000000E+00 -0.74505805969E-08  0.93827000000E+00  0.93827000000E+00 0.  1.
     999902    2    1    2    0    0  0.14203765853E-01 -0.59913329260E-02 -0.48606949983E-02  0.10277661703E+01  0.10276390570E+01 0.  0.
     999903    2    3    3    0    0  0.11764879528E+00 -0.28392273333E-01  0.52679061700E-01  0.13955814295E+00  0.45321424376E-01 0.  0.
         14    1    1    2    0    0 -0.14203765853E-01  0.59913329260E-02  0.48606949983E-02  0.16163829698E-01  0.00000000000E+00 0. -1.
     999901    1    3    3    0    0 -0.10344502943E+00  0.22400940407E-01 -0.57539756698E-01  0.88820802735E+00  0.88000000000E+00 0.  1.
        -11    1    4    4    0    0  0.37563419746E-01 -0.14867552352E-01 -0.38751010242E-02  0.40587339712E-01  0.51100000000E-03 0. -1.
         11    1    4    4    0    0  0.80085375534E-01 -0.13524720981E-01  0.56554162724E-01  0.98970803242E-01  0.51100000000E-03 0.  1.
</event>
<event>
 8    1  0.2077555E+004  0.1043930E+01  0.7957747E-01            NaN
         13   -1    0    0    0    0  0.00000000000E+00  0.00000000000E+00  0.74505805969E-08  0.10566000000E+00  0.10566000000E+00 0. -1.
     999900   -1    0    0    0    0 -0.00000000000E+00 -0.00000000000E+00 -0.74505805969E-08  0.93827000000E+00  0.93827000000E+00 0. -1.
     999902    2    1    2    0    0 -0.33429570293E-02  0.23372253977E-02 -0.12800210829E-01  0.10304955896E+01  0.10304080148E+01 0.  0.
     999903    2    3    3    0    0  0.15707035312E-01 -0.21744619600E-01 -0.13314032765E+00  0.14177483419E+00  0.40672070559E-01 0.  0.
         14    1    1    2    0    0  0.33429570293E-02 -0.23372253977E-02  0.12800210829E-01  0.13434410353E-01  0.00000000000E+00 0. -1.
     999901    1    3    3    0    0 -0.19049992341E-01  0.24081844997E-01  0.12034011682E+00  0.88872075546E+00  0.88000000000E+00 0.  1.
        -11    1    4    4    0    0  0.48081088238E-02 -0.25512477501E-01 -0.38531470637E-01  0.46464392486E-01  0.51100000000E-03 0.  1.
         11    1    4    4    0    0  0.10898926488E-01  0.37678579012E-02 -0.94608857010E-01  0.95310441702E-01  0.51100000000E-03 0. -1.
</event>
<event>
 8    1  0.2077555E+004  0.1043930E+01  0.7957747E-01            NaN
         13   -1    0    0    0    0  0.00000000000E+00  0.00000000000E+00  0.74505805969E-08  0.10566000000E+00  0.10566000000E+00 0.  1.
     999900   -1    0    0    0    0 -0.00000000000E+00 -0.00000000000E+00 -0.74505805969E-08  0.93827000000E+00  0.93827000000E+00 0.  1.
     999902    2    1    2    0    0  0.77101765131E-02  0.96707905829E-02 -0.21092707078E-02  0.10313832859E+01  0.10313069681E+01 0.  0.
     999903    2    3    3    0    0 -0.81671421572E-01 -0.20393950318E-01 -0.10325862731E+00  0.14058356031E+00  0.44891636258E-01 0.  0.
         14    1    1    2    0    0 -0.77101765131E-02 -0.96707905829E-02  0.21092707078E-02  0.12546714123E-01  0.00000000000E+00 0.  1.
     999901    1    3    3    0    0  0.89381598085E-01  0.30064740901E-01  0.10114935660E+00  0.89079972556E+00  0.88000000000E+00 0. -1.
        -11    1    4    4    0    0 -0.20597672998E-02 -0.13954856473E-01 -0.25300708531E-01  0.28971842083E-01  0.51100000000E-03 0. -1.
         11    1    4    4    0    0 -0.79611654272E-01 -0.64390938456E-02 -0.77957918777E-01  0.11161171823E+00  0.51100000000E-03 0.  1.
</event>
<event>
 8    1  0.2077555E+004  0.1043930E+01  0.7957747E-01            NaN
         13   -1    0    0    0    0  0.00000000000E+00  0.00000000000E+00  0.74505805969E-08  0.10566000000E+00  0.10566000000E+00 0.  1.
     999900   -1    0    0    0    0 -0.00000000000E+00 -0.00000000000E+00 -0.74505805969E-08  0.93827000000E+00  0.93827000000E+00 0.  1.
     999902    2    1    2    0    0 -0.35976335209E-02  0.14344106666E-01 -0.29174975445E-02  0.10288565745E+01  0.10287461508E+01 0.  0.
     999903    2    3    3    0    0 -0.11177853043E-01 -0.11610140424E+00  0.57169452102E-01  0.13718178374E+00  0.44113660830E-01 0.  0.
         14    1    1    2    0    0  0.35976335209E-02 -0.14344106666E-01  0.29174975445E-02  0.15073425454E-01  0.00000000000E+00 0.  1.
     999901    1    3    3    0    0  0.75802195218E-02  0.13044551090E+00 -0.60086949647E-01  0.89167479081E+00  0.88000000000E+00 0.  1.
        -11    1    4    4    0    0  0.50356537107E-02 -0.68469200598E-01  0.12270761774E-01  0.69743974323E-01  0.51100000000E-03 0.  1.
         11    1    4    4    0    0 -0.16213506753E-01 -0.47632203638E-01  0.44898690328E-01  0.67437809416E-01  0.51100000000E-03 0. -1.
</event>
<event>
 8    1  0.2077555E+004  0.1043930E+01  0.7957747E-01            NaN
         13   -1    0    0    0    0  0.00000000000E+00  0.00000000000E+00  0.74505805969E-08  0.10566000000E+00  0.10566000000E+00 0.  1.
     999900   -1    0    0    0    0 -0.00000000000E+00 -0.00000000000E+00 -0.74505805969E-08  0.93827000000E+00  0.93827000000E+00 0. -1.
     999902    2    1    2    0    0 -0.79296629344E-02 -0.11230736335E-01  0.24473224262E-02  0.10299658180E+01  0.10298711511E+01 0.  0.
     999903    2    3    3    0    0  0.32959541368E-01  0.12249302637E+00  0.33072606200E-01  0.13839872585E+00  0.44379467773E-01 0.  0.
         14    1    1    2    0    0  0.79296629344E-02  0.11230736335E-01 -0.24473224262E-02  0.13964182036E-01  0.00000000000E+00 0.  1.
     999901    1    3    3    0    0 -0.40889204303E-01 -0.13372376270E+00 -0.30625283774E-01  0.89156709212E+00  0.88000000000E+00 0. -1.
        -11    1    4    4    0    0  0.55347135246E-02  0.80062285561E-01  0.35631397027E-01  0.87809226156E-01  0.51100000000E-03 0. -1.
         11    1    4    4    0    0  0.27424827844E-01  0.42430740805E-01 -0.25587908268E-02  0.50589499691E-01  0.51100000000E-03 0.  1.
</event>
<event>
 7    1  0.3774947E+004  0.1043930E+01  0.7957747E-01            NaN
         13   -1    0    0    0    0  0.00000000000E+00  0.00000000000E+00  0.74505805969E-08  0.10566000000E+00  0.10566000000E+00 0. -1.
     999900   -1    0    0    0    0 -0.00000000000E+00 -0.00000000000E+00 -0.74505805969E-08  0.93827000000E+00  0.93827000000E+00 0. -1.
     999903    2    1    2    0    0  0.52831826152E-01  0.25742076985E-01 -0.78007471836E-01  0.10662685029E+00  0.42781574987E-01 0.  0.
         14    1    1    2    0    0  0.36356860556E-01  0.22148039679E-01  0.26195319723E-01  0.49985515367E-01  0.00000000000E+00 0. -1.
     999901    1    1    2    0    0 -0.89188686708E-01 -0.47890116663E-01  0.51812152113E-01  0.88731763434E+00  0.88000000000E+00 0. -1.
        -11    1    3    3    0    0  0.31813479158E-01  0.36347516719E-01 -0.44547340876E-01  0.65711232891E-01  0.51100000000E-03 0. -1.
         11    1    3    3    0    0  0.21018346994E-01 -0.10605439735E-01 -0.33460130959E-01  0.40915617399E-01  0.51100000000E-03 0.  1.
</event>
<event>
 8    1  0.2077555E+004  0.1043930E+01  0.7957747E-01            NaN
         13   -1    0    0    0    0  0.00000000000E+00  0.00000000000E+00  0.74505805969E-08  0.10566000000E+00  0.10566000000E+00 0. -1.
     999900   -1    0    0    0    0 -0.00000000000E+00 -0.00000000000E+00 -0.74505805969E-08  0.93827000000E+00  0.93827000000E+00 0. -1.
     999902    2    1    2    0    0 -0.29577287978E-02  0.13812815653E-01 -0.15694360597E-02  0.10297171479E+01  0.10296190555E+01 0.  0.
     999903    2    3    3    0    0  0.14275693545E-01 -0.12798979015E+00  0.18150123251E-01  0.13798073454E+00  0.46087680782E-01 0.  0.
         14    1    1    2    0    0  0.29577287978E-02 -0.13812815653E-01  0.15694360597E-02  0.14212852122E-01  0.00000000000E+00 0.  1.
     999901    1    3    3    0    0 -0.17233422342E-01  0.14180260581E+00 -0.19719559310E-01  0.89173641334E+00  0.88000000000E+00 0.  1.
        -11    1    4    4    0    0 -0.10766230954E-01 -0.73475787064E-01  0.23131987772E-01  0.77781443757E-01  0.51100000000E-03 0. -1.
         11    1    4    4    0    0  0.25041924498E-01 -0.54514003088E-01 -0.49818645213E-02  0.60199290780E-01  0.51100000000E-03 0.  1.
</event>
<event>
 8    1  0.2077555E+004  0.1043930E+01  0.7957747E-01            NaN
         13   -1    0    0    0    0  0.00000000000E+00  0.00000000000E+00  0.74505805969E-08  0.10566000000E+00  0.10566000000E+00 0.  1.
     999900   -1    0    0    0    0 -0.00000000000E+00 -0.00000000000E+00 -0.74505805969E-08  0.93827000000E+00  0.93827000000E+00 0. -1.
     999902    2    1    2    0    0  0.55187209053E-02 -0.10915774683E-01 -0.11200750785E-01  0.10273448489E+01  0.10272109673E+01 0.  0.
     999903    2    3    3    0    0  0.11010178972E+00  0.29068335912E-01 -0.64715301967E-01  0.13863783616E+00  0.45442348701E-01 0.  0.
         14    1    1    2    0    0 -0.55187209053E-02  0.10915774683E-01  0.11200750785E-01  0.16585151055E-01  0.00000000000E+00 0. -1.
     999901    1    3    3    0    0 -0.10458306881E+00 -0.39984110595E-01  0.53514551183E-01  0.88870701278E+00  0.88000000000E+00 0.  1.
        -11    1    4    4    0    0  0.33811652275E-01  0.26614529101E-01 -0.85608382656E-02  0.43876076188E-01  0.51100000000E-03 0.  1.
         11    1    4    4    0    0  0.76290137441E-01  0.24538068105E-02 -0.56154463702E-01  0.94761759974E-01  0.51100000000E-03 0. -1.
</event>
<event>
 8    1  0.2077555E+004  0.1043930E+01  0.7957747E-01            NaN
         13   -1    0    0    0    0  0.00000000000E+00  0.00000000000E+00  0.74505805969E-08  0.10566000000E+00  0.10566000000E+00 0. -1.
     999900   -1    0    0    0    0 -0.00000000000E+00 -0.00000000000E+00 -0.74505805969E-08  0.93827000000E+00  0.93827000000E+00 0.  1.
     999902    2    1    2    0    0  0.10474534658E-01  0.10930841629E-01  0.26398040343E-02  0.10285622500E+01  0.10284474388E+01 0.  0.
     999903    2    3    3    0    0 -0.11621132142E+00 -0.95532354398E-02 -0.56564879503E-01  0.13728558245E+00  0.45292494117E-01 0.  0.
         14    1    1    2    0    0 -0.10474534658E-01 -0.10930841629E-01 -0.26398040343E-02  0.15367750009E-01  0.00000000000E+00 0.  1.
     999901    1    3    3    0    0  0.12668585608E+00  0.20484077069E-01  0.59204683538E-01  0.89127666754E+00  0.88000000000E+00 0. -1.
        -11    1    4    4    0    0 -0.97083766161E-01 -0.81902315141E-02 -0.25393949713E-01  0.10068491122E+00  0.51100000000E-03 0. -1.
         11    1    4    4    0    0 -0.19127555257E-01 -0.13630039258E-02 -0.31170929790E-01  0.36600671234E-01  0.51100000000E-03 0.  1.
</event>
<event>
 8    1  0.2077555E+004  0.1043930E+01  0.7957747E-01            NaN
         13   -1    0    0    0    0  0.00000000000E+00  0.00000000000E+00  0.74505805969E-08  0.10566000000E+00  0.10566000000E+00 0.  1.
     999900   -1    0    0    0    0 -0.00000000000E+00 -0.00000000000E+00 -0.74505805969E-08  0.93827000000E+00  0.93827000000E+00 0.  1.
     999902    2    1    2    0    0  0.63146808080E-02  0.16896968171E-02  0.11823729178E-01  0.10304196025E+01  0.10303310276E+01 0.  0.
     999903    2    3    3    0    0  0.52102065139E-01 -0.69568674873E-01  0.10186293853E+00  0.14177946199E+00  0.46593260030E-01 0.  0.
         14    1    1    2    0    0 -0.63146808080E-02 -0.16896968171E-02 -0.11823729178E-01  0.13510397504E-01  0.00000000000E+00 0. -1.
     999901    1    3    3    0    0 -0.45787384331E-01  0.71258371690E-01 -0.90039209354E-01  0.88864014051E+00  0.88000000000E+00 0.  1.
        -11    1    4    4    0    0  0.34527706161E-01 -0.71939241306E-01  0.74504321932E-01  0.10917221277E+00  0.51100000000E-03 0.  1.
         11    1    4    4    0    0  0.17574358978E-01  0.23705664331E-02  0.27358616600E-01  0.32607249224E-01  0.51100000000E-03 0. -1.
</event>
<event>
 7    1  0.2077555E+004  0.1043930E+01  0.7957747E-01            NaN
         13   -1    0    0    0    0  0.00000000000E+00  0.00000000000E+00  0.74505805969E-08  0.10566000000E+00  0.10566000000E+00 0. -1.
     999900   -1    0    0    0    0 -0.00000000000E+00 -0.00000000000E+00 -0.74505805969E-08  0.93827000000E+00  0.93827000000E+00 0. -1.
     999903    2    1    2    0    0  0.42874872602E-02 -0.30035895072E-01  0.35165767217E-01  0.62425082387E-01  0.41709977072E-01 0.  0.
         14    1    1    2    0    0  0.38962188725E-01 -0.35316307487E-01 -0.81293427859E-01  0.96818981289E-01  0.00000000000E+00 0.  1.
     999901    1    1    2    0    0 -0.43249675985E-01  0.65352202559E-01  0.46127660642E-01  0.88468593632E+00  0.88000000000E+00 0.  1.
        -11    1    3    3    0    0  0.14666379362E-01 -0.92399262829E-02  0.35130133986E-01  0.39177370460E-01  0.51100000000E-03 0. -1.
         11    1    3    3    0    0 -0.10378892102E-01 -0.20795968789E-01  0.35633231423E-04  0.23247711927E-01  0.51100000000E-03 0.  1.
</event>
<event>
 8    1  0.2077555E+004  0.1043930E+01  0.7957747E-01            NaN
         13   -1    0    0    0    0  0.00000000000E+00  0.00000000000E+00  0.74505805969E-08  0.10566000000E+00  0.10566000000E+00 0.  1.
     999900   -1    0    0    0    0 -0.00000000000E+00 -0.00000000000E+00 -0.74505805969E-08  0.93827000000E+00  0.93827000000E+00 0. -1.
     999902    2    1    2    0    0  0.82935698525E-02  0.71741654910E-02  0.83493853896E-02  0.10301472504E+01  0.10300550438E+01 0.  0.
     999903    2    3    3    0    0 -0.99006318571E-01 -0.79720842227E-01  0.32742382904E-01  0.13904735318E+00  0.45874164678E-01 0.  0.
         14    1    1    2    0    0 -0.82935698525E-02 -0.71741654910E-02 -0.83493853896E-02  0.13782749645E-01  0.00000000000E+00 0. -1.
     999901    1    3    3    0    0  0.10729988842E+00  0.86895007718E-01 -0.24392997515E-01  0.89109989718E+00  0.88000000000E+00 0.  1.
        -11    1    4    4    0    0 -0.12140928040E-01 -0.32726676063E-01  0.17712801551E-01  0.39146416433E-01  0.51100000000E-03 0.  1.
         11    1    4    4    0    0 -0.86865390532E-01 -0.46994166164E-01  0.15029581353E-01  0.99900936744E-01  0.51100000000E-03 0. -1.
</event>
<event>
 8    1  0.2077555E+004  0.1043930E+01  0.7957747E-01            NaN
         13   -1    0    0    0    0  0.00000000000E+00  0.00000000000E+00  0.74505805969E-08  0.10566000000E+00  0.10566000000E+00 0.  1.
     999900   -1    0    0    0    0 -0.00000000000E+00 -0.00000000000E+00 -0.74505805969E-08  0.93827000000E+00  0.93827000000E+00 0. -1.
     999902    2    1    2    0    0  0.93375800701E-02  0.76455044686E-02 -0.61794653666E-02  0.10303716103E+01  0.10302824008E+01 0.  0.
     999903    2    3    3    0    0 -0.10291417283E+00 -0.80809743147E-01 -0.10496838315E-01  0.13883169160E+00  0.45194174619E-01 0.  0.
         14    1    1    2    0    0 -0.93375800701E-02 -0.76455044686E-02  0.61794653666E-02  0.13558389741E-01  0.00000000000E+00 0.  1.
     999901    1    3    3    0    0  0.11225175290E+00  0.88455247616E-01  0.43173729487E-02  0.89153991866E+00  0.88000000000E+00 0.  1.
        -11    1    4    4    0    0 -0.35167579879E-01 -0.80450144107E-02  0.97413461991E-02  0.37371591860E-01  0.51100000000E-03 0. -1.
         11    1    4    4    0    0 -0.67746592954E-01 -0.72764728737E-01 -0.20238184514E-01  0.10146009974E+00  0.51100000000E-03 0.  1.
</event>
<event>
 8    1  0.2077555E+004  0.1043930E+01  0.7957747E-01            NaN
         13   -1    0    0    0    0  0.00000000000E+00  0.00000000000E+00  0.74505805969E-08  0.10566000000E+00  0.10566000000E+00 0. -1.
     999900   -1    0    0    0    0 -0.00000000000E+00 -0.00000000000E+00 -0.74505805969E-08  0.93827000000E+00  0.93827000000E+00 0. -1.
     999902    2    1    2    0    0 -0.43032206755E-02 -0.22373535764E-02  0.12761917963E-01  0.10302775274E+01  0.10301870672E+01 0.  0.
     999903    2    3    3    0    0  0.10711821432E+00  0.48923990406E-01 -0.58437742801E-01  0.13892932885E+00  0.44927941780E-01 0.  0.
         14    1    1    2    0    0  0.43032206755E-02  0.22373535764E-02 -0.12761917963E-01  0.13652472644E-01  0.00000000000E+00 0.  1.
     999901    1    3    3    0    0 -0.11142143500E+00 -0.51161343983E-01  0.71199660764E-01  0.89134819851E+00  0.88000000000E+00 0. -1.
        -11    1    4    4    0    0  0.81779859511E-01  0.56706504562E-01 -0.45370625324E-01  0.10937242726E+00  0.51100000000E-03 0.  1.
         11    1    4    4    0    0  0.25338354813E-01 -0.77825141560E-02 -0.13067117478E-01  0.29556901587E-01  0.51100000000E-03 0. -1.
</event>
<event>
 8    1  0.2077555E+004  0.1043930E+01  0.7957747E-01            NaN
         13   -1    0    0    0    0  0.00000000000E+00  0.00000000000E+00  0.74505805969E-08  0.10566000000E+00  0.10566000000E+00 0. -1.
     999900   -1    0    0    0    0 -0.00000000000E+00 -0.00000000000E+00 -0.74505805969E-08  0.93827000000E+00  0.93827000000E+00 0. -1.
     999902    2    1    2    0    0 -0.51270245870E-02  0.54583083107E-02  0.12203133101E-01  0.10296123197E+01  0.10295127648E+01 0.  0.
     999903    2    3    3    0    0  0.93260479509E-01 -0.94982295022E-02 -0.91779396472E-01  0.13791945476E+00  0.42550969237E-01 0.  0.
         14    1    1    2    0    0  0.51270245870E-02 -0.54583083107E-02 -0.12203133101E-01  0.14317680267E-01  0.00000000000E+00 0.  1.
     999901    1    3    3    0    0 -0.98387504096E-01  0.14956537813E-01  0.10398252957E+00  0.89169286497E+00  0.88000000000E+00 0.  1.
        -11    1    4    4    0    0  0.32647719432E-01 -0.20803926396E-01 -0.50849933259E-01  0.63911296115E-01  0.51100000000E-03 0. -1.
         11    1    4    4    0    0  0.60612760076E-01  0.11305696894E-01 -0.40929463213E-01  0.74008158646E-01  0.51100000000E-03 0.  1.
</event>
<event>
 8    1  0.2077555E+004  0.1043930E+01  0.7957747E-01            NaN
         13   -1    0    0    0    0  0.00000000000E+00  0.00000000000E+00  0.74505805969E-08  0.10566000000E+00  0.10566000000E+00 0.  1.
     999900   -1    0    0    0    0 -0.00000000000E+00 -0.00000000000E+00 -0.74505805969E-08  0.93827000000E+00  0.93827000000E+00 0.  1.
     999902    2    1    2    0    0  0.55627485537E-02 -0.88704378373E-02  0.79681574124E-02  0.10307724785E+01  0.10306884991E+01 0.  0.
     999903    2    3    3    0    0  0.49406021139E-02  0.76718013464E-01  0.10904398035E+00  0.14086119528E+00  0.45179902016E-01 0.  0.
         14    1    1    2    0    0 -0.55627485537E-02  0.88704378373E-02 -0.79681574124E-02  0.13157521478E-01  0.00000000000E+00 0. -1.
     999901    1    3    3    0    0  0.62214643980E-03 -0.85588451302E-01 -0.10107582293E+00  0.88991128324E+00  0.88000000000E+00 0. -1.
        -11    1    4    4    0    0  0.19865881073E-01  0.59344432693E-01  0.95705124156E-01  0.11435098090E+00  0.51100000000E-03 0. -1.
         11    1    4    4    0    0 -0.14925278959E-01  0.17373580771E-01  0.13338856190E-01  0.26510214376E-01  0.51100000000E-03 0.  1.
</event>
<event>
 8    1  0.2077555E+004  0.1043930E+01  0.7957747E-01            NaN
         13   -1    0    0    0    0  0.00000000000E+00  0.00000000000E+00  0.74505805969E-08  0.10566000000E+00  0.10566000000E+00 0. -1.
     999900   -1    0    0    0    0 -0.00000000000E+00 -0.00000000000E+00 -0.74505805969E-08  0.93827000000E+00  0.93827000000E+00 0. -1.
     999902    2    1    2    0    0 -0.12489657500E-01 -0.26766944741E-02 -0.46884351204E-02  0.10303234699E+01  0.10302336215E+01 0.  0.
     999903    2    3    3    0    0 -0.91226821228E-01  0.96173206546E-01  0.18321686083E-01  0.14099770867E+00  0.44419039855E-01 0.  0.
         14    1    1    2    0    0  0.12489657500E-01  0.26766944741E-02  0.46884351204E-02  0.13606530111E-01  0.00000000000E+00 0. -1.
     999901    1    3    3    0    0  0.78737163728E-01 -0.98849901020E-01 -0.23010121203E-01  0.88932576122E+00  0.88000000000E+00 0.  1.
        -11    1    4    4    0    0 -0.33860498961E-01  0.67818752942E-01  0.93119682750E-02  0.76373362598E-01  0.51100000000E-03 0. -1.
         11    1    4    4    0    0 -0.57366322267E-01  0.28354453604E-01  0.90097178080E-02  0.64624346075E-01  0.51100000000E-03 0.  1.
</event>
<event>
 8    1  0.2077555E+004  0.1043930E+01  0.7957747E-01            NaN
         13   -1    0    0    0    0  0.00000000000E+00  0.00000000000E+00  0.74505805969E-08  0.10566000000E+00  0.10566000000E+00 0. -1.
     999900   -1    0    0    0    0 -0.00000000000E+00 -0.00000000000E+00 -0.74505805969E-08  0.93827000000E+00  0.93827000000E+00 0.  1.
     999902    2    1    2    0    0  0.12081842365E-01 -0.37553002098E-02  0.48383029986E-02  0.10303844335E+01  0.10302953938E+01 0.  0.
     999903    2    3    3    0    0 -0.80385062266E-01 -0.10427126566E+00  0.13424681298E-01  0.13980747805E+00  0.45073870184E-01 0.  0.
         14    1    1    2    0    0 -0.12081842365E-01  0.37553002098E-02 -0.48383029986E-02  0.13545566452E-01  0.00000000000E+00 0.  1.
     999901    1    3    3    0    0  0.92466904631E-01  0.10051596545E+00 -0.85863782994E-02  0.89057695549E+00  0.88000000000E+00 0. -1.
        -11    1    4    4    0    0 -0.47644158830E-01 -0.79760754178E-01  0.26930849887E-01  0.96733011812E-01  0.51100000000E-03 0.  1.
         11    1    4    4    0    0 -0.32740903436E-01 -0.24510511486E-01 -0.13506168589E-01  0.43074466242E-01  0.51100000000E-03 0. -1.
</event>
<event>
 8    1  0.2077555E+004  0.1043930E+01  0.7957747E-01            NaN
         13   -1    0    0    0    0  0.00000000000E+00  0.00000000000E+00  0.74505805969E-08  0.10566000000E+00  0.10566000000E+00 0.  1.
     999900   -1    0    0    0    0 -0.00000000000E+00 -0.00000000000E+00 -0.74505805969E-08  0.93827000000E+00  0.93827000000E+00 0. -1.
     999902    2    1    2    0    0  0.58015511445E-02 -0.15640896761E-01 -0.99931032166E-02  0.10244837212E+01  0.10242991444E+01 0.  0.
     999903    2    3    3    0    0 -0.36234778681E-01 -0.86598491134E-01  0.86844665425E-01  0.13533829628E+00  0.44296734356E-01 0.  0.
         14    1    1    2    0    0 -0.58015511445E-02  0.15640896761E-01  0.99931032166E-02  0.19446278798E-01  0.00000000000E+00 0.  1.
     999901    1    3    3    0    0  0.42036329826E-01  0.70957594373E-01 -0.96837768641E-01  0.88914542492E+00  0.88000000000E+00 0. -1.
        -11    1    4    4    0    0 -0.34656865084E-01 -0.58902349390E-01  0.35588795621E-01  0.77054581667E-01  0.51100000000E-03 0.  1.
         11    1    4    4    0    0 -0.15779135971E-02 -0.27696141744E-01  0.51255869803E-01  0.58283714613E-01  0.51100000000E-03 0. -1.
</event>
<event>
 8    1  0.2077555E+004  0.1043930E+01  0.7957747E-01            NaN
         13   -1    0    0    0    0  0.00000000000E+00  0.00000000000E+00  0.74505805969E-08  0.10566000000E+00  0.10566000000E+00 0. -1.
     999900   -1    0    0    0    0 -0.00000000000E+00 -0.00000000000E+00 -0.74505805969E-08  0.93827000000E+00  0.93827000000E+00 0. -1.
     999902    2    1    2    0    0  0.60221085920E-03 -0.11699439614E-01 -0.44716237093E-02  0.10313906633E+01  0.10313144358E+01 0.  0.
     999903    2    3    3    0    0 -0.30905779743E-01 -0.11045867671E+00  0.70552425516E-01  0.14213549842E+00  0.45481520228E-01 0.  0.
         14    1    1    2    0    0 -0.60221085920E-03  0.11699439614E-01  0.44716237093E-02  0.12539336657E-01  0.00000000000E+00 0. -1.
     999901    1    3    3    0    0  0.31507990602E-01  0.98759237097E-01 -0.75024049225E-01  0.88925516493E+00  0.88000000000E+00 0. -1.
        -11    1    4    4    0    0 -0.34714678541E-02 -0.72340139853E-01  0.24763721177E-01  0.76541818182E-01  0.51100000000E-03 0. -1.
         11    1    4    4    0    0 -0.27434311889E-01 -0.38118536857E-01  0.45788704338E-01  0.65593680236E-01  0.51100000000E-03 0.  1.
</event>
<event>
 8    1  0.2077555E+004  0.1043930E+01  0.7957747E-01            NaN
         13   -1    0    0    0    0  0.00000000000E+00  0.00000000000E+00  0.74505805969E-08  0.10566000000E+00  0.10566000000E+00 0.  1.
     999900   -1    0    0    0    0 -0.00000000000E+00 -0.00000000000E+00 -0.74505805969E-08  0.93827000000E+00  0.93827000000E+00 0. -1.
     999902    2    1    2    0    0  0.14149171549E-01  0.18034123379E-02  0.59388818188E-03  0.10296540042E+01  0.10295550322E+01 0.  0.
     999903    2    3    3    0    0 -0.10230188055E+00  0.78036466494E-01 -0.24066244214E-01  0.13837377435E+00  0.44863709726E-01 0.  0.
         14    1    1    2    0    0 -0.14149171549E-01 -0.18034123379E-02 -0.59388818188E-03  0.14275995754E-01  0.00000000000E+00 0.  1.
     999901    1    3    3    0    0  0.11645105209E+00 -0.76233054156E-01  0.24660132396E-01  0.89128022990E+00  0.88000000000E+00 0.  1.
        -11    1    4    4    0    0 -0.88745619903E-01  0.47574804112E-01 -0.70602643522E-02  0.10094184213E+00  0.51100000000E-03 0.  1.
         11    1    4    4    0    0 -0.13556260643E-01  0.30461662381E-01 -0.17005979862E-01  0.37431932220E-01  0.51100000000E-03 0. -1.
</event>
<event>
 8    1  0.2077555E+004  0.1043930E+01  0.7957747E-01            NaN
         13   -1    0    0    0    0  0.00000000000E+00  0.00000000000E+00  0.74505805969E-08  0.10566000000E+00  0.10566000000E+00 0. -1.
     999900   -1    0    0    0    0 -0.00000000000E+00 -0.00000000000E+00 -0.74505805969E-08  0.93827000000E+00  0.93827000000E+00 0.  1.
     999902    2    1    2    0    0  0.10363453544E-01 -0.53291874339E-03  0.98215298991E-02  0.10296419763E+01  0.10295428363E+01 0.  0.
     999903    2    3    3    0    0  0.53344722754E-01  0.11830100734E+00  0.33290769778E-01  0.14030531523E+00  0.41671553212E-01 0.  0.
         14    1    1    2    0    0 -0.10363453544E-01  0.53291874339E-03 -0.98215298991E-02  0.14288023702E-01  0.00000000000E+00 0.  1.
     999901    1    3    3    0    0 -0.42981269211E-01 -0.11883392608E+00 -0.23469239879E-01  0.88933666106E+00  0.88000000000E+00 0.  1.
        -11    1    4    4    0    0  0.39633684932E-01  0.53804906925E-01  0.32614722590E-01  0.74362478718E-01  0.51100000000E-03 0. -1.
         11    1    4    4    0    0  0.13711037822E-01  0.64496100416E-01  0.67604718850E-03  0.65942836517E-01  0.51100000000E-03 0.  1.
</event>
<event>
 8    1  0.2077555E+004  0.1043930E+01  0.7957747E-01            NaN
         13   -1    0    0    0    0  0.00000000000E+00  0.00000000000E+00  0.74505805969E-08  0.10566000000E+00  0.10566000000E+00 0. -1.
     999900   -1    0    0    0    0 -0.00000000000E+00 -0.00000000000E+00 -0.74505805969E-08  0.93827000000E+00  0.93827000000E+00 0.  1.
     999902    2    1    2    0    0  0.70992678054E-02  0.51608832200E-02 -0.11033107820E-01  0.10298316388E+01  0.10297351313E+01 0.  0.
     999903    2    3    3    0    0  0.26675473537E-01 -0.12381985722E+00 -0.37908215190E-01  0.13980830734E+00  0.45457585631E-01 0.  0.
         14    1    1    2    0    0 -0.70992678054E-02 -0.51608832200E-02  0.11033107820E-01  0.14098361151E-01  0.00000000000E+00 0.  1.
     999901    1    3    3    0    0 -0.19576205731E-01  0.12898074044E+00  0.26875107371E-01  0.89002333151E+00  0.88000000000E+00 0.  1.
        -11    1    4    4    0    0 -0.36185464228E-02 -0.58821187707E-01 -0.52694109349E-03  0.58936956059E-01  0.51100000000E-03 0. -1.
         11    1    4    4    0    0  0.30294019959E-01 -0.64998669514E-01 -0.37381274097E-01  0.80871351281E-01  0.51100000000E-03 0.  1.
</event>
<event>
 8    1  0.2077555E+004  0.1043930E+01  0.7957747E-01            NaN
         13   -1    0    0    0    0  0.00000000000E+00  0.00000000000E+00  0.74505805969E-08  0.10566000000E+00  0.10566000000E+00 0. -1.
     999900   -1    0    0    0    0 -0.00000000000E+00 -0.00000000000E+00 -0.74505805969E-08  0.93827000000E+00  0.93827000000E+00 0.  1.
     999902    2    1    2    0    0  0.10786705345E-03 -0.10094213522E-01  0.93896437825E-02  0.10301434053E+01  0.10300511470E+01 0.  0.
     999903    2    3    3    0    0  0.99525586630E-01  0.67836591742E-01 -0.52156883657E-01  0.13899523112E+00  0.45740443683E-01 0.  0.
         14    1    1    2    0    0 -0.10786705345E-03  0.10094213522E-01 -0.93896437825E-02  0.13786594659E-01  0.00000000000E+00 0.  1.
     999901    1    3    3    0    0 -0.99417719577E-01 -0.77930805265E-01  0.61546527439E-01  0.89114817422E+00  0.88000000000E+00 0. -1.
        -11    1    4    4    0    0  0.59267096775E-01  0.27743141311E-01 -0.58616080485E-02  0.65703045742E-01  0.51100000000E-03 0. -1.
         11    1    4    4    0    0  0.40258489856E-01  0.40093450432E-01 -0.46295275608E-01  0.73292185379E-01  0.51100000000E-03 0.  1.
</event>
<event>
 8    1  0.2077555E+004  0.1043930E+01  0.7957747E-01            NaN
         13   -1    0    0    0    0  0.00000000000E+00  0.00000000000E+00  0.74505805969E-08  0.10566000000E+00  0.10566000000E+00 0. -1.
     999900   -1    0    0    0    0 -0.00000000000E+00 -0.00000000000E+00 -0.74505805969E-08  0.93827000000E+00  0.93827000000E+00 0.  1.
     999902    2    1    2    0    0  0.11071394625E-01  0.23605353968E-02  0.11031727380E-01  0.10281234534E+01  0.10280019399E+01 0.  0.
     999903    2    3    3    0    0 -0.42627210200E-01 -0.26443183849E-02  0.12449176479E+00  0.13920176461E+00  0.45330566964E-01 0.  0.
         14    1    1    2    0    0 -0.11071394625E-01 -0.23605353968E-02 -0.11031727380E-01  0.15806546596E-01  0.00000000000E+00 0.  1.
     999901    1    3    3    0    0  0.53698604825E-01  0.50048537817E-02 -0.11346003741E+00  0.88892168879E+00  0.88000000000E+00 0.  1.
        -11    1    4    4    0    0  0.26120868075E-02  0.49091147235E-02  0.58894140537E-01  0.59158290336E-01  0.51100000000E-03 0.  1.
         11    1    4    4    0    0 -0.45239297008E-01 -0.75534331084E-02  0.65597624251E-01  0.80043474274E-01  0.51100000000E-03 0. -1.
</event>
<event>
 8    1  0.2077555E+004  0.1043930E+01  0.7957747E-01            NaN
         13   -1    0    0    0    0  0.00000000000E+00  0.00000000000E+00  0.74505805969E-08  0.10566000000E+00  0.10566000000E+00 0.  1.
     999900   -1    0    0    0    0 -0.00000000000E+00 -0.00000000000E+00 -0.74505805969E-08  0.93827000000E+00  0.93827000000E+00 0.  1.
     999902    2    1    2    0    0 -0.89005625805E-02  0.61138906426E-02  0.69678371357E-02  0.10310789134E+01  0.10309988240E+01 0.  0.
     999903    2    3    3    0    0  0.13018319674E+00  0.24038365999E-01 -0.63914798702E-03  0.13994287149E+00  0.45366188057E-01 0.  0.
         14    1    1    2    0    0  0.89005625805E-02 -0.61138906426E-02 -0.69678371357E-02  0.12851086623E-01  0.00000000000E+00 0. -1.
     999901    1    3    3    0    0 -0.13908375932E+00 -0.17924475356E-01  0.76069851227E-02  0.89113604188E+00  0.88000000000E+00 0. -1.
        -11    1    4    4    0    0  0.39593309668E-01 -0.11092961121E-01 -0.10025973235E-01  0.42325703978E-01  0.51100000000E-03 0. -1.
         11    1    4    4    0    0  0.90589887069E-01  0.35131327120E-01  0.93868252475E-02  0.97617167515E-01  0.51100000000E-03 0.  1.
</event>
<event>
 8    1  0.2077555E+004  0.1043930E+01  0.7957747E-01            NaN
         13   -1    0    0    0    0  0.00000000000E+00  0.00000000000E+00  0.74505805969E-08  0.10566000000E+00  0.10566000000E+00 0. -1.
     999900   -1    0    0    0    0 -0.00000000000E+00 -0.00000000000E+00 -0.74505805969E-08  0.93827000000E+00  0.93827000000E+00 0.  1.
     999902    2    1    2    0    0 -0.70032135801E-02 -0.92479074554E-02 -0.11436590269E-01  0.10276399911E+01  0.10275108695E+01 0.  0.
     999903    2    3    3    0    0 -0.70439955477E-01  0.97472833210E-01 -0.50828908077E-01  0.13805284450E+00  0.44858326272E-01 0.  0.
         14    1    1    2    0    0  0.70032135801E-02  0.92479074554E-02  0.11436590269E-01  0.16290008893E-01  0.00000000000E+00 0. -1.
     999901    1    3    3    0    0  0.63436741897E-01 -0.10672074067E+00  0.39392317808E-01  0.88958714661E+00  0.88000000000E+00 0. -1.
        -11    1    4    4    0    0 -0.55174014589E-01  0.39576019491E-01 -0.33510426997E-01  0.75720823048E-01  0.51100000000E-03 0. -1.
         11    1    4    4    0    0 -0.15265940888E-01  0.57896813719E-01 -0.17318481080E-01  0.62332021449E-01  0.51100000000E-03 0.  1.
</event>
<event>
 8    1  0.2077555E+004  0.1043930E+01  0.7957747E-01            NaN
         13   -1    0    0    0    0  0.00000000000E+00  0.00000000000E+00  0.74505805969E-08  0.10566000000E+00  0.10566000000E+00 0.  1.
     999900   -1    0    0    0    0 -0.00000000000E+00 -0.00000000000E+00 -0.74505805969E-08  0.93827000000E+00  0.93827000000E+00 0.  1.
     999902    2    1    2    0    0 -0.37136760231E-02  0.91292636612E-02  0.10036071537E-01  0.10298638144E+01  0.10297677499E+01 0.  0.
     999903    2    3    3    0    0  0.11695959283E+00  0.46040609403E-01 -0.40069446032E-01  0.13945096179E+00  0.45185464147E-01 0.  0.
         14    1    1    2    0    0  0.37136760231E-02 -0.91292636612E-02 -0.10036071537E-01  0.14066185570E-01  0.00000000000E+00 0. -1.
     999901    1    3    3    0    0 -0.12067326885E+00 -0.36911345742E-01  0.50105517569E-01  0.89041285264E+00  0.88000000000E+00 0.  1.
        -11    1    4    4    0    0  0.32140444677E-01  0.14958189627E-01  0.90951194272E-02  0.36602430785E-01  0.51100000000E-03 0. -1.
         11    1    4    4    0    0  0.84819148148E-01  0.31082419776E-01 -0.49164565459E-01  0.10284853100E+00  0.51100000000E-03 0.  1.
</event>
<event>
 8    1  0.2077555E+004  0.1043930E+01  0.7957747E-01            NaN
         13   -1    0    0    0    0  0.00000000000E+00  0.00000000000E+00  0.74505805969E-08  0.10566000000E+00  0.10566000000E+00 0. -1.
     999900   -1    0    0    0    0 -0.00000000000E+00 -0.00000000000E+00 -0.74505805969E-08  0.93827000000E+00  0.93827000000E+00 0. -1.
     999902    2    1    2    0    0 -0.35068121970E-02 -0.53802049148E-02 -0.11953973591E-01  0.10303601134E+01  0.10302707516E+01 0.  0.
     999903    2    3    3    0    0  0.12325087967E+00  0.42725470542E-01 -0.23558091140E-01  0.13990162255E+00  0.44735166938E-01 0.  0.
         14    1    1    2    0    0  0.35068121970E-02  0.53802049148E-02  0.11953973591E-01  0.13569886563E-01  0.00000000000E+00 0. -1.
     999901    1    3    3    0    0 -0.12675769186E+00 -0.48105675457E-01  0.11604117549E-01  0.89045849089E+00  0.88000000000E+00 0. -1.
        -11    1    4    4    0    0  0.75181753066E-01  0.23647540816E-01  0.81521890589E-02  0.79235228832E-01  0.51100000000E-03 0. -1.
         11    1    4    4    0    0  0.48069126601E-01  0.19077929726E-01 -0.31710280199E-01  0.60666393713E-01  0.51100000000E-03 0.  1.
</event>
<event>
 8    1  0.2077555E+004  0.1043930E+01  0.7957747E-01            NaN
         13   -1    0    0    0    0  0.00000000000E+00  0.00000000000E+00  0.74505805969E-08  0.10566000000E+00  0.10566000000E+00 0. -1.
     999900   -1    0    0    0    0 -0.00000000000E+00 -0.00000000000E+00 -0.74505805969E-08  0.93827000000E+00  0.93827000000E+00 0. -1.
     999902    2    1    2    0    0 -0.96732591958E-02 -0.97452835237E-02  0.12331840385E-02  0.10301436576E+01  0.10300514026E+01 0.  0.
     999903    2    3    3    0    0 -0.57102269824E-01 -0.28592182947E-01  0.11812353882E+00  0.14094847557E+00  0.42838302927E-01 0.  0.
         14    1    1    2    0    0  0.96732591958E-02  0.97452835237E-02 -0.12331840385E-02  0.13786342419E-01  0.00000000000E+00 0.  1.
     999901    1    3    3    0    0  0.47429010628E-01  0.18846899423E-01 -0.11689035478E+00  0.88919518201E+00  0.88000000000E+00 0.  1.
        -11    1    4    4    0    0 -0.10468571648E-01  0.47939594175E-02  0.52691550906E-01  0.53937312661E-01  0.51100000000E-03 0. -1.
         11    1    4    4    0    0 -0.46633698175E-01 -0.33386142364E-01  0.65431987915E-01  0.87011162910E-01  0.51100000000E-03 0.  1.
</event>
<event>
 8    1  0.2077555E+004  0.1043930E+01  0.7957747E-01            NaN
         13   -1    0    0    0    0  0.00000000000E+00  0.00000000000E+00  0.74505805969E-08  0.10566000000E+00  0.10566000000E+00 0. -1.
     999900   -1    0    0    0    0 -0.00000000000E+00 -0.00000000000E+00 -0.74505805969E-08  0.93827000000E+00  0.93827000000E+00 0.  1.
     999902    2    1    2    0    0 -0.80836634093E-02  0.94034682271E-02 -0.16448169190E-03  0.10315284726E+01  0.10314539213E+01 0.  0.
     999903    2    3    3    0    0 -0.12412745651E+00 -0.47290588722E-01  0.24852727177E-01  0.14174971424E+00  0.42793670048E-01 0.  0.
         14    1    1    2    0    0  0.80836634093E-02 -0.94034682271E-02  0.16448169190E-03  0.12401527448E-01  0.00000000000E+00 0.  1.
     999901    1    3    3    0    0  0.11604379310E+00  0.56694056949E-01 -0.25017208869E-01  0.88977875832E+00  0.88000000000E+00 0. -1.
        -11    1    4    4    0    0 -0.24933981104E-01 -0.19775648222E-01  0.22144443126E-01  0.38773923694E-01  0.51100000000E-03 0. -1.
         11    1    4    4    0    0 -0.99193475408E-01 -0.27514940500E-01  0.27082840509E-02  0.10297579054E+00  0.51100000000E-03 0.  1.
</event>
<event>
 8    1  0.2077555E+004  0.1043930E+01  0.7957747E-01            NaN
         13   -1    0    0    0    0  0.00000000000E+00  0.00000000000E+00  0.74505805969E-08  0.10566000000E+00  0.10566000000E+00 0. -1.
     999900   -1    0    0    0    0 -0.00000000000E+00 -0.00000000000E+00 -0.74505805969E-08  0.93827000000E+00  0.93827000000E+00 0.  1.
     999902    2    1    2    0    0  0.68981164630E-02  0.12544976960E-01  0.17896387679E-02  0.10295021358E+01  0.10294010319E+01 0.  0.
     999903    2    3    3    0    0 -0.54373255529E-01  0.11850437178E+00  0.27518871422E-01  0.14065818564E+00  0.45029988386E-01 0.  0.
         14    1    1    2    0    0 -0.68981164630E-02 -0.12544976960E-01 -0.17896387679E-02  0.14427864173E-01  0.00000000000E+00 0.  1.
     999901    1    3    3    0    0  0.61271371992E-01 -0.10595939482E+00 -0.25729232654E-01  0.88884395019E+00  0.88000000000E+00 0.  1.
        -11    1    4    4    0    0 -0.38093652428E-01  0.31973757060E-01  0.67564520037E-02  0.50193209306E-01  0.51100000000E-03 0. -1.
         11    1    4    4    0    0 -0.16279603101E-01  0.86530614722E-01  0.20762419419E-01  0.90464976330E-01  0.51100000000E-03 0.  1.
</event>
<event>
 8    1  0.2077555E+004  0.1043930E+01  0.7957747E-01            NaN
         13   -1    0    0    0    0  0.00000000000E+00  0.00000000000E+00  0.74505805969E-08  0.10566000000E+00  0.10566000000E+00 0. -1.
     999900   -1    0    0    0    0 -0.00000000000E+00 -0.00000000000E+00 -0.74505805969E-08  0.93827000000E+00  0.93827000000E+00 0. -1.
     999902    2    1    2    0    0 -0.11785125074E-01 -0.28993542187E-02 -0.78034784697E-02  0.10295012196E+01  0.10294001027E+01 0.  0.
     999903    2    3    3    0    0 -0.10421814052E+00  0.83715721335E-01 -0.79163158250E-03  0.14040324993E+00  0.42926717776E-01 0.  0.
         14    1    1    2    0    0  0.11785125074E-01  0.28993542187E-02  0.78034784697E-02  0.14428780410E-01  0.00000000000E+00 0.  1.
     999901    1    3    3    0    0  0.92433015441E-01 -0.86615075554E-01 -0.70118468872E-02  0.88909796966E+00  0.88000000000E+00 0. -1.
        -11    1    4    4    0    0 -0.39197696564E-01  0.56531305000E-01 -0.92849528211E-02  0.69416995980E-01  0.51100000000E-03 0. -1.
         11    1    4    4    0    0 -0.65020443952E-01  0.27184416335E-01  0.84933212386E-02  0.70986253950E-01  0.51100000000E-03 0.  1.
</event>
<event>
 8    1  0.2077555E+004  0.1043930E+01  0.7957747E-01            NaN
         13   -1    0    0    0    0  0.00000000000E+00  0.00000000000E+00  0.74505805969E-08  0.10566000000E+00  0.10566000000E+00 0.  1.
     999900   -1    0    0    0    0 -0.00000000000E+00 -0.00000000000E+00 -0.74505805969E-08  0.93827000000E+00  0.93827000000E+00 0. -1.
     999902    2    1    2    0    0  0.37971261660E-02 -0.66448941422E-02 -0.11814060931E-01  0.10298536077E+01  0.10297574027E+01 0.  0.
     999903    2    3    3    0    0 -0.11004787655E+00  0.36305615982E-01 -0.64198788912E-01  0.13993811130E+00  0.45083895243E-01 0.  0.
         14    1    1    2    0    0 -0.37971261660E-02  0.66448941422E-02  0.11814060931E-01  0.14076392328E-01  0.00000000000E+00 0. -1.
     999901    1    3    3    0    0  0.11384500272E+00 -0.42950510124E-01  0.52384727981E-01  0.88991549638E+00  0.88000000000E+00 0. -1.
        -11    1    4    4    0    0 -0.33921301750E-01 -0.94162733027E-02 -0.13688984645E-01  0.37775260912E-01  0.51100000000E-03 0.  1.
         11    1    4    4    0    0 -0.76126574801E-01  0.45721889285E-01 -0.50509804267E-01  0.10216285039E+00  0.51100000000E-03 0. -1.
</event>
<event>
 8    1  0.2077555E+004  0.1043930E+01  0.7957747E-01            NaN
         13   -1    0    0    0    0  0.00000000000E+00  0.00000000000E+00  0.74505805969E-08  0.10566000000E+00  0.10566000000E+00 0. -1.
     999900   -1    0    0    0    0 -0.00000000000E+00 -0.00000000000E+00 -0.74505805969E-08  0.93827000000E+00  0.93827000000E+00 0.  1.
     999902    2    1    2    0    0  0.14091447609E-01  0.18238425900E-02 -0.16314116302E-02  0.10296276645E+01  0.10295283244E+01 0.  0.
     999903    2    3    3    0    0  0.34768360744E-01  0.87272344153E-01 -0.94091611274E-01  0.14042697303E+00  0.45179668867E-01 0.  0.
         14    1    1    2    0    0 -0.14091447609E-01 -0.18238425900E-02  0.16314116302E-02  0.14302335523E-01  0.00000000000E+00 0.  1.
     999901    1    3    3    0    0 -0.20676913135E-01 -0.85448501563E-01  0.92460199643E-01  0.88920069145E+00  0.88000000000E+00 0. -1.
        -11    1    4    4    0    0  0.39747479056E-01  0.39145770867E-01 -0.47884683889E-01  0.73521816764E-01  0.51100000000E-03 0. -1.
         11    1    4    4    0    0 -0.49791183120E-02  0.48126573286E-01 -0.46206927384E-01  0.66905156264E-01  0.51100000000E-03 0.  1.
</event>
<event>
 8    1  0.2077555E+004  0.1043930E+01  0.7957747E-01            NaN
         13   -1    0    0    0    0  0.00000000000E+00  0.00000000000E+00  0.74505805969E-08  0.10566000000E+00  0.10566000000E+00 0.  1.
     999900   -1    0    0    0    0 -0.00000000000E+00 -0.00000000000E+00 -0.74505805969E-08  0.93827000000E+00  0.93827000000E+00 0. -1.
     999902    2    1    2    0    0  0.80651843127E-02 -0.10065902510E-01 -0.77990846193E-02  0.10288570006E+01  0.10287465831E+01 0.  0.
     999903    2    3    3    0    0 -0.35611345396E-01  0.94891642373E-01 -0.82882631186E-01  0.13837327558E+00  0.44777685629E-01 0.  0.
         14    1    1    2    0    0 -0.80651843127E-02  0.10065902510E-01  0.77990846193E-02  0.15072999444E-01  0.00000000000E+00 0.  1.
     999901    1    3    3    0    0  0.43676529708E-01 -0.10495754488E+00  0.75083546567E-01  0.89048372497E+00  0.88000000000E+00 0.  1.
        -11    1    4    4    0    0  0.86677322534E-02  0.21635949437E-01 -0.29071776162E-01  0.37264905483E-01  0.51100000000E-03 0. -1.
         11    1    4    4    0    0 -0.44279077649E-01  0.73255692936E-01 -0.53810855024E-01  0.10110837010E+00  0.51100000000E-03 0.  1.
</event>
<event>
 8    1  0.2077555E+004  0.1043930E+01  0.7957747E-01            NaN
         13   -1    0    0    0    0  0.00000000000E+00  0.00000000000E+00  0.74505805969E-08  0.10566000000E+00  0.10566000000E+00 0.  1.
     999900   -1    0    0    0    0 -0.00000000000E+00 -0.00000000000E+00 -0.74505805969E-08  0.93827000000E+00  0.93827000000E+00 0. -1.
     999902    2    1    2    0    0  0.63186316030E-02 -0.11873757872E-01 -0.14774679654E-02  0.10303987716E+01  0.10303099215E+01 0.  0.
     999903    2    3    3    0    0 -0.67422005107E-01 -0.86212731679E-01  0.76664925536E-01  0.14075266317E+00  0.44220351701E-01 0.  0.
         14    1    1    2    0    0 -0.63186316030E-02  0.11873757872E-01  0.14774679654E-02  0.13531228434E-01  0.00000000000E+00 0. -1.
     999901    1    3    3    0    0  0.73740636710E-01  0.74338973807E-01 -0.78142393502E-01  0.88964610840E+00  0.88000000000E+00 0. -1.
        -11    1    4    4    0    0 -0.13290444120E-01 -0.17742571869E-01  0.40700164102E-01  0.46348670319E-01  0.51100000000E-03 0.  1.
         11    1    4    4    0    0 -0.54131560987E-01 -0.68470159811E-01  0.35964761434E-01  0.94403992847E-01  0.51100000000E-03 0. -1.
</event>
<event>
 8    1  0.2077555E+004  0.1043930E+01  0.7957747E-01            NaN
         13   -1    0    0    0    0  0.00000000000E+00  0.00000000000E+00  0.74505805969E-08  0.10566000000E+00  0.10566000000E+00 0. -1.
     999900   -1    0    0    0    0 -0.00000000000E+00 -0.00000000000E+00 -0.74505805969E-08  0.93827000000E+00  0.93827000000E+00 0.  1.
     999902    2    1    2    0    0 -0.37470232034E-02  0.53613654754E-02  0.11966227579E-01  0.10302927340E+01  0.10302024765E+01 0.  0.
     999903    2    3    3    0    0 -0.96293797665E-01  0.81344450732E-01 -0.42725930932E-01  0.14050086677E+00  0.45006369059E-01 0.  0.
         14    1    1    2    0    0  0.37470232034E-02 -0.53613654754E-02 -0.11966227579E-01  0.13637266043E-01  0.00000000000E+00 0.  1.
     999901    1    3    3    0    0  0.92546774461E-01 -0.75983085257E-01  0.54692158511E-01  0.88979186719E+00  0.88000000000E+00 0. -1.
        -11    1    4    4    0    0 -0.48587485877E-01  0.68478429833E-01 -0.32525393537E-01  0.90045552261E-01  0.51100000000E-03 0.  1.
         11    1    4    4    0    0 -0.47706311788E-01  0.12866020899E-01 -0.10200537395E-01  0.50455314510E-01  0.51100000000E-03 0. -1.
</event>
<event>
 8    1  0.2077555E+004  0.1043930E+01  0.7957747E-01            NaN
         13   -1    0    0    0    0  0.00000000000E+00  0.00000000000E+00  0.74505805969E-08  0.10566000000E+00  0.10566000000E+00 0. -1.
     999900   -1    0    0    0    0 -0.00000000000E+00 -0.00000000000E+00 -0.74505805969E-08  0.93827000000E+00  0.93827000000E+00 0. -1.
     999902    2    1    2    0    0  0.38570300488E-02  0.97733066233E-02  0.68885178039E-02  0.10313663269E+01  0.10312898014E+01 0.  0.
     999903    2    3    3    0    0 -0.87990610808E-01 -0.95948055007E-01  0.25795969865E-01  0.14009168511E+00  0.44853888628E-01 0.  0.
         14    1    1    2    0    0 -0.38570300488E-02 -0.97733066233E-02 -0.68885178039E-02  0.12563673057E-01  0.00000000000E+00 0.  1.
     999901    1    3    3    0    0  0.91847640857E-01  0.10572136163E+00 -0.18907452061E-01  0.89127464184E+00  0.88000000000E+00 0. -1.
        -11    1    4    4    0    0 -0.73048910651E-02 -0.16391129944E-01  0.19644819072E-01  0.26612226733E-01  0.51100000000E-03 0. -1.
         11    1    4    4    0    0 -0.80685719743E-01 -0.79556925062E-01  0.61511507927E-02  0.11347945837E+00  0.51100000000E-03 0.  1.
</event>
<event>
 8    1  0.2077555E+004  0.1043930E+01  0.7957747E-01            NaN
         13   -1    0    0    0    0  0.00000000000E+00  0.00000000000E+00  0.74505805969E-08  0.10566000000E+00  0.10566000000E+00 0. -1.
     999900   -1    0    0    0    0 -0.00000000000E+00 -0.00000000000E+00 -0.74505805969E-08  0.93827000000E+00  0.93827000000E+00 0. -1.
     999902    2    1    2    0    0  0.11831707053E-01  0.61844619370E-03 -0.86911017271E-02  0.10292362252E+01  0.10291313329E+01 0.  0.
     999903    2    3    3    0    0 -0.65196253631E-01  0.62980825210E-01  0.92599465991E-01  0.13789894219E+00  0.47162711161E-01 0.  0.
         14    1    1    2    0    0 -0.11831707053E-01 -0.61844619370E-03  0.86911017271E-02  0.14693774761E-01  0.00000000000E+00 0. -1.
     999901    1    3    3    0    0  0.77027960684E-01 -0.62362379016E-01 -0.10129056772E+00  0.89133728305E+00  0.88000000000E+00 0.  1.
        -11    1    4    4    0    0 -0.51550698848E-01  0.32047932896E-01  0.82851232853E-01  0.10270896972E+00  0.51100000000E-03 0.  1.
         11    1    4    4    0    0 -0.13645554783E-01  0.30932892313E-01  0.97482331371E-02  0.35189972471E-01  0.51100000000E-03 0. -1.
</event>
<event>
 8    1  0.2077555E+004  0.1043930E+01  0.7957747E-01            NaN
         13   -1    0    0    0    0  0.00000000000E+00  0.00000000000E+00  0.74505805969E-08  0.10566000000E+00  0.10566000000E+00 0. -1.
     999900   -1    0    0    0    0 -0.00000000000E+00 -0.00000000000E+00 -0.74505805969E-08  0.93827000000E+00  0.93827000000E+00 0. -1.
     999902    2    1    2    0    0 -0.95214815645E-02 -0.98031429818E-02 -0.14563302613E-02  0.10301865972E+01  0.10300949198E+01 0.  0.
     999903    2    3    3    0    0  0.12442863979E+00 -0.39757172839E-01  0.17979064212E-01  0.13933441332E+00  0.45030132064E-01 0.  0.
         14    1    1    2    0    0  0.95214815645E-02  0.98031429818E-02  0.14563302613E-02  0.13743402830E-01  0.00000000000E+00 0.  1.
     999901    1    3    3    0    0 -0.13395012135E+00  0.29954029857E-01 -0.19435394474E-01  0.89085218385E+00  0.88000000000E+00 0.  1.
        -11    1    4    4    0    0  0.56311366656E-01 -0.19891594080E-01 -0.14251821853E-01  0.61400497367E-01  0.51100000000E-03 0. -1.
         11    1    4    4    0    0  0.68117273130E-01 -0.19865578758E-01  0.32230886065E-01  0.77933915952E-01  0.51100000000E-03 0.  1.
</event>
<event>
 7    1  0.2077555E+004  0.1043930E+01  0.7957747E-01            NaN
         13   -1    0    0    0    0  0.00000000000E+00  0.00000000000E+00  0.74505805969E-08  0.10566000000E+00  0.10566000000E+00 0.  1.
     999900   -1    0    0    0    0 -0.00000000000E+00 -0.00000000000E+00 -0.74505805969E-08  0.93827000000E+00  0.93827000000E+00 0. -1.
     999903    2    1    2    0    0 -0.69902575834E-01  0.85409929964E-01 -0.20833884866E-01  0.12031926638E+00  0.43144511348E-01 0.  0.
         14    1    1    2    0    0 -0.82559362163E-02  0.30182338562E-01  0.89176876312E-02  0.32537043452E-01  0.00000000000E+00 0.  1.
     999901    1    1    2    0    0  0.78158512051E-01 -0.11559226853E+00  0.11916197235E-01  0.89107369017E+00  0.88000000000E+00 0.  1.
        -11    1    3    3    0    0 -0.49469289320E-01  0.49769007289E-01 -0.32892047876E-01  0.77500403914E-01  0.51100000000E-03 0.  1.
         11    1    3    3    0    0 -0.20433286514E-01  0.35640922675E-01  0.12058163010E-01  0.42818862468E-01  0.51100000000E-03 0. -1.
</event>
<event>
 8    1  0.2077555E+004  0.1043930E+01  0.7957747E-01            NaN
         13   -1    0    0    0    0  0.00000000000E+00  0.00000000000E+00  0.74505805969E-08  0.10566000000E+00  0.10566000000E+00 0.  1.
     999900   -1    0    0    0    0 -0.00000000000E+00 -0.00000000000E+00 -0.74505805969E-08  0.93827000000E+00  0.93827000000E+00 0.  1.
     999902    2    1    2    0    0  0.16514086693E-02 -0.13817759723E-01 -0.47811255274E-02  0.10292154903E+01  0.10291102996E+01 0.  0.
     999903    2    3    3    0    0  0.11666185769E+00  0.39954799111E-01  0.44797062694E-01  0.13872299274E+00  0.45065695136E-01 0.  0.
         14    1    1    2    0    0 -0.16514086693E-02  0.13817759723E-01  0.47811255274E-02  0.14714509698E-01  0.00000000000E+00 0.  1.
     999901    1    3    3    0    0 -0.11501044902E+00 -0.53772558834E-01 -0.49578188222E-01  0.89049249756E+00  0.88000000000E+00 0.  1.
        -11    1    4    4    0    0  0.13793520645E-01  0.12121712224E-01 -0.77087342140E-02  0.19921918161E-01  0.51100000000E-03 0. -1.
         11    1    4    4    0    0  0.10286833704E+00  0.27833086887E-01  0.52505796908E-01  0.11880107458E+00  0.51100000000E-03 0.  1.
</event>
<event>
 8    1  0.2077555E+004  0.1043930E+01  0.7957747E-01            NaN
         13   -1    0    0    0    0  0.00000000000E+00  0.00000000000E+00  0.74505805969E-08  0.10566000000E+00  0.10566000000E+00 0. -1.
     999900   -1    0    0    0    0 -0.00000000000E+00 -0.00000000000E+00 -0.74505805969E-08  0.93827000000E+00  0.93827000000E+00 0.  1.
     999902    2    1    2    0    0  0.11920303478E-01 -0.49595972555E-02 -0.63507631343E-02  0.10295416911E+01  0.10294411447E+01 0.  0.
     999903    2    3    3    0    0 -0.17573268896E-01  0.12877646372E+00 -0.19444180386E-01  0.13885283277E+00  0.44831190365E-01 0.  0.
         14    1    1    2    0    0 -0.11920303478E-01  0.49595972555E-02  0.63507631343E-02  0.14388308877E-01  0.00000000000E+00 0.  1.
     999901    1    3    3    0    0  0.29493572373E-01 -0.13373606098E+00  0.13093417252E-01  0.89068885835E+00  0.88000000000E+00 0. -1.
        -11    1    4    4    0    0 -0.24263904950E-01  0.41630481515E-01  0.40159533800E-02  0.48355176322E-01  0.51100000000E-03 0. -1.
         11    1    4    4    0    0  0.66906360543E-02  0.87145982206E-01 -0.23460133766E-01  0.90497656449E-01  0.51100000000E-03 0.  1.
</event>
<event>
 8    1  0.2077555E+004  0.1043930E+01  0.7957747E-01            NaN
         13   -1    0    0    0    0  0.00000000000E+00  0.00000000000E+00  0.74505805969E-08  0.10566000000E+00  0.10566000000E+00 0. -1.
     999900   -1    0    0    0    0 -0.00000000000E+00 -0.00000000000E+00 -0.74505805969E-08  0.93827000000E+00  0.93827000000E+00 0. -1.
     999902    2    1    2    0    0 -0.24820872744E-02  0.87082235596E-02  0.11024940944E-01  0.10296631420E+01  0.10295642975E+01 0.  0.
     999903    2    3    3    0    0  0.11458013211E+00  0.58236506713E-01 -0.29777059859E-01  0.13959493263E+00  0.45606737792E-01 0.  0.
         14    1    1    2    0    0  0.24820872744E-02 -0.87082235596E-02 -0.11024940944E-01  0.14266858015E-01  0.00000000000E+00 0.  1.
     999901    1    3    3    0    0 -0.11706221939E+00 -0.49528283154E-01  0.40802000803E-01  0.89006820936E+00  0.88000000000E+00 0.  1.
        -11    1    4    4    0    0  0.46254601293E-02  0.12128021343E-01  0.70824416291E-02  0.14795468345E-01  0.51100000000E-03 0. -1.
         11    1    4    4    0    0  0.10995467198E+00  0.46108485370E-01 -0.36859501488E-01  0.12479946428E+00  0.51100000000E-03 0.  1.
</event>
<event>
 8    1  0.2077555E+004  0.1043930E+01  0.7957747E-01            NaN
         13   -1    0    0    0    0  0.00000000000E+00  0.00000000000E+00  0.74505805969E-08  0.10566000000E+00  0.10566000000E+00 0.  1.
     999900   -1    0    0    0    0 -0.00000000000E+00 -0.00000000000E+00 -0.74505805969E-08  0.93827000000E+00  0.93827000000E+00 0. -1.
     999902    2    1    2    0    0 -0.10986149390E-01  0.14640989321E-02  0.86999248869E-02  0.10298400122E+01  0.10297436200E+01 0.  0.
     999903    2    3    3    0    0  0.11668447539E+00 -0.21476734246E-01 -0.54316499135E-01  0.13810174342E+00  0.45224910664E-01 0.  0.
         14    1    1    2    0    0  0.10986149390E-01 -0.14640989321E-02 -0.86999248869E-02  0.14089987833E-01  0.00000000000E+00 0. -1.
     999901    1    3    3    0    0 -0.12767062478E+00  0.22940833178E-01  0.63016424022E-01  0.89173826875E+00  0.88000000000E+00 0. -1.
        -11    1    4    4    0    0  0.10483554441E+00 -0.10154142072E-01 -0.59415875799E-01  0.12093016742E+00  0.51100000000E-03 0. -1.
         11    1    4    4    0    0  0.11848930977E-01 -0.11322592174E-01  0.50993766633E-02  0.17171575997E-01  0.51100000000E-03 0.  1.
</event>
<event>
 8    1  0.2077555E+004  0.1043930E+01  0.7957747E-01            NaN
         13   -1    0    0    0    0  0.00000000000E+00  0.00000000000E+00  0.74505805969E-08  0.10566000000E+00  0.10566000000E+00 0.  1.
     999900   -1    0    0    0    0 -0.00000000000E+00 -0.00000000000E+00 -0.74505805969E-08  0.93827000000E+00  0.93827000000E+00 0.  1.
     999902    2    1    2    0    0 -0.13967328624E-01  0.47859671292E-03  0.99561718033E-03  0.10299190551E+01  0.10298237487E+01 0.  0.
     999903    2    3    3    0    0  0.50897632113E-02 -0.82965503233E-01 -0.10276423491E+00  0.13969874670E+00  0.45233521168E-01 0.  0.
         14    1    1    2    0    0  0.13967328624E-01 -0.47859671292E-03 -0.99561718033E-03  0.14010944910E-01  0.00000000000E+00 0.  1.
     999901    1    3    3    0    0 -0.19057091835E-01  0.83444099946E-01  0.10375985209E+00  0.89022030839E+00  0.88000000000E+00 0. -1.
        -11    1    4    4    0    0 -0.15936488973E-01 -0.44041114948E-01 -0.33792538737E-01  0.57756283485E-01  0.51100000000E-03 0.  1.
         11    1    4    4    0    0  0.21026252184E-01 -0.38924388285E-01 -0.68971696170E-01  0.81942463215E-01  0.51100000000E-03 0. -1.
</event>
<event>
 8    1  0.2077555E+004  0.1043930E+01  0.7957747E-01            NaN
         13   -1    0    0    0    0  0.00000000000E+00  0.00000000000E+00  0.74505805969E-08  0.10566000000E+00  0.10566000000E+00 0. -1.
     999900   -1    0    0    0    0 -0.00000000000E+00 -0.00000000000E+00 -0.74505805969E-08  0.93827000000E+00  0.93827000000E+00 0. -1.
     999902    2    1    2    0    0  0.85109038721E-03 -0.27583063084E-02 -0.12934391764E-01  0.10306774116E+01  0.10305922063E+01 0.  0.
     999903    2    3    3    0    0  0.29953525663E-02  0.82575289031E-01  0.10235903179E+00  0.13906146634E+00  0.45089572367E-01 0.  0.
         14    1    1    2    0    0 -0.85109038721E-03  0.27583063084E-02  0.12934391764E-01  0.13252588383E-01  0.00000000000E+00 0. -1.
     999901    1    3    3    0    0 -0.21442621790E-02 -0.85333595340E-01 -0.11529342356E+00  0.89161594528E+00  0.88000000000E+00 0. -1.
        -11    1    4    4    0    0  0.24023225564E-01  0.41658687508E-01  0.54154835866E-01  0.72426300334E-01  0.51100000000E-03 0. -1.
         11    1    4    4    0    0 -0.21027872998E-01  0.40916601523E-01  0.48204195926E-01  0.66635166008E-01  0.51100000000E-03 0.  1.
</event>
<event>
 8    1  0.2077555E+004  0.1043930E+01  0.7957747E-01            NaN
         13   -1    0    0    0    0  0.00000000000E+00  0.00000000000E+00  0.74505805969E-08  0.10566000000E+00  0.10566000000E+00 0.  1.
     999900   -1    0    0    0    0 -0.00000000000E+00 -0.00000000000E+00 -0.74505805969E-08  0.93827000000E+00  0.93827000000E+00 0. -1.
     999902    2    1    2    0    0 -0.88978720120E-02 -0.10373059665E-01  0.30806371619E-02  0.10299206168E+01  0.10298253318E+01 0.  0.
     999903    2    3    3    0    0 -0.98306478249E-01 -0.41277520950E-01 -0.80056164442E-01  0.14095452497E+00  0.45729544520E-01 0.  0.
         14    1    1    2    0    0  0.88978720120E-02  0.10373059665E-01 -0.30806371619E-02  0.14009383230E-01  0.00000000000E+00 0. -1.
     999901    1    3    3    0    0  0.89408606237E-01  0.30904461285E-01  0.83136801603E-01  0.88896609180E+00  0.88000000000E+00 0.  1.
        -11    1    4    4    0    0 -0.19045070185E-01 -0.17404071200E-01 -0.12861423172E-04  0.25804605773E-01  0.51100000000E-03 0.  1.
         11    1    4    4    0    0 -0.79261408063E-01 -0.23873449750E-01 -0.80043303018E-01  0.11514991919E+00  0.51100000000E-03 0. -1.
</event>
<event>
 8    1  0.2077555E+004  0.1043930E+01  0.7957747E-01            NaN
         13   -1    0    0    0    0  0.00000000000E+00  0.00000000000E+00  0.74505805969E-08  0.10566000000E+00  0.10566000000E+00 0.  1.
     999900   -1    0    0    0    0 -0.00000000000E+00 -0.00000000000E+00 -0.74505805969E-08  0.93827000000E+00  0.93827000000E+00 0. -1.
     999902    2    1    2    0    0 -0.11438726815E-01  0.38819962899E-02  0.10061922490E-02  0.10318086639E+01  0.10317374628E+01 0.  0.
     999903    2    3    3    0    0  0.12657718177E-01 -0.11939381446E+00  0.58168437972E-01  0.14105331784E+00  0.45797058148E-01 0.  0.
         14    1    1    2    0    0  0.11438726815E-01 -0.38819962899E-02 -0.10061922490E-02  0.12121336114E-01  0.00000000000E+00 0.  1.
     999901    1    3    3    0    0 -0.24096444992E-01  0.12327581075E+00 -0.57162245723E-01  0.89075534605E+00  0.88000000000E+00 0. -1.
        -11    1    4    4    0    0  0.16415152851E-01 -0.25647464263E-01  0.30812772372E-01  0.43323639372E-01  0.51100000000E-03 0. -1.
         11    1    4    4    0    0 -0.37574346737E-02 -0.93746350201E-01  0.27355665600E-01  0.97729678465E-01  0.51100000000E-03 0.  1.
</event>
<event>
 8    1  0.2077555E+004  0.1043930E+01  0.7957747E-01            NaN
         13   -1    0    0    0    0  0.00000000000E+00  0.00000000000E+00  0.74505805969E-08  0.10566000000E+00  0.10566000000E+00 0. -1.
     999900   -1    0    0    0    0 -0.00000000000E+00 -0.00000000000E+00 -0.74505805969E-08  0.93827000000E+00  0.93827000000E+00 0. -1.
     999902    2    1    2    0    0 -0.94565165442E-02  0.79555081361E-02 -0.42033703402E-02  0.10308768725E+01  0.10307942288E+01 0.  0.
     999903    2    3    3    0    0 -0.60955008000E-01 -0.16109939281E-01  0.11745797573E+00  0.14068996882E+00  0.44969413157E-01 0.  0.
         14    1    1    2    0    0  0.94565165442E-02 -0.79555081361E-02  0.42033703402E-02  0.13053127482E-01  0.00000000000E+00 0. -1.
     999901    1    3    3    0    0  0.51498491455E-01  0.24065447417E-01 -0.12166134607E+00  0.89018690370E+00  0.88000000000E+00 0. -1.
        -11    1    4    4    0    0 -0.14241236053E-01  0.15476718524E-01  0.32985432121E-01  0.39123413371E-01  0.51100000000E-03 0. -1.
         11    1    4    4    0    0 -0.46713771947E-01 -0.31586657805E-01  0.84472543614E-01  0.10156655545E+00  0.51100000000E-03 0.  1.
</event>
<event>
 8    1  0.2077555E+004  0.1043930E+01  0.7957747E-01            NaN
         13   -1    0    0    0    0  0.00000000000E+00  0.00000000000E+00  0.74505805969E-08  0.10566000000E+00  0.10566000000E+00 0. -1.
     999900   -1    0    0    0    0 -0.00000000000E+00 -0.00000000000E+00 -0.74505805969E-08  0.93827000000E+00  0.93827000000E+00 0. -1.
     999902    2    1    2    0    0 -0.10104163166E-01 -0.78467506112E-02 -0.44150905032E-02  0.10303963888E+01  0.10303075072E+01 0.  0.
     999903    2    3    3    0    0 -0.12654196843E+00 -0.33829454050E-01 -0.31317867853E-01  0.14193894872E+00  0.44816900628E-01 0.  0.
         14    1    1    2    0    0  0.10104163166E-01  0.78467506112E-02  0.44150905032E-02  0.13533611218E-01  0.00000000000E+00 0.  1.
     999901    1    3    3    0    0  0.11643780526E+00  0.25982703438E-01  0.26902777350E-01  0.88845744006E+00  0.88000000000E+00 0. -1.
        -11    1    4    4    0    0 -0.11549919303E+00 -0.18075198918E-01 -0.35631716825E-01  0.12221561591E+00  0.51100000000E-03 0. -1.
         11    1    4    4    0    0 -0.11042775394E-01 -0.15754255132E-01  0.43138489718E-02  0.19723332810E-01  0.51100000000E-03 0.  1.
</event>
<event>
 8    1  0.2077555E+004  0.1043930E+01  0.7957747E-01            NaN
         13   -1    0    0    0    0  0.00000000000E+00  0.00000000000E+00  0.74505805969E-08  0.10566000000E+00  0.10566000000E+00 0.  1.
     999900   -1    0    0    0    0 -0.00000000000E+00 -0.00000000000E+00 -0.74505805969E-08  0.93827000000E+00  0.93827000000E+00 0. -1.
     999902    2    1    2    0    0 -0.21628233352E-02 -0.13200039643E-01 -0.29404071331E-02  0.10302345684E+01  0.10301435343E+01 0.  0.
     999903    2    3    3    0    0  0.11748267264E+00 -0.61039470433E-01 -0.15985427004E-01  0.14075504176E+00  0.45038345713E-01 0.  0.
         14    1    1    2    0    0  0.21628233352E-02  0.13200039643E-01  0.29404071331E-02  0.13695431555E-01  0.00000000000E+00 0.  1.
     999901    1    3    3    0    0 -0.11964549597E+00  0.47839430789E-01  0.13045019871E-01  0.88947952668E+00  0.88000000000E+00 0.  1.
        -11    1    4    4    0    0  0.23600458696E-01 -0.22889901835E-01  0.12991539191E-01  0.35354921415E-01  0.51100000000E-03 0.  1.
         11    1    4    4    0    0  0.93882213940E-01 -0.38149568597E-01 -0.28976966195E-01  0.10540012035E+00  0.51100000000E-03 0. -1.
</event>
<event>
 8    1  0.2077555E+004  0.1043930E+01  0.7957747E-01            NaN
         13   -1    0    0    0    0  0.00000000000E+00  0.00000000000E+00  0.74505805969E-08  0.10566000000E+00  0.10566000000E+00 0. -1.
     999900   -1    0    0    0    0 -0.00000000000E+00 -0.00000000000E+00 -0.74505805969E-08  0.93827000000E+00  0.93827000000E+00 0.  1.
     999902    2    1    2    0    0  0.77454161667E-02 -0.24891439383E-02 -0.10133832731E-01  0.10309345441E+01  0.10308526336E+01 0.  0.
     999903    2    3    3    0    0  0.72522848616E-01 -0.85804518757E-01 -0.75016509186E-01  0.14225725216E+00  0.44583294318E-01 0.  0.
         14    1    1    2    0    0 -0.77454161667E-02  0.24891439383E-02  0.10133832731E-01  0.12995455935E-01  0.00000000000E+00 0.  1.
     999901    1    3    3    0    0 -0.64777432449E-01  0.83315374819E-01  0.64882676455E-01  0.88867729190E+00  0.88000000000E+00 0. -1.
        -11    1    4    4    0    0  0.21759151844E-01 -0.13799201350E-02 -0.85806078064E-02  0.23436143452E-01  0.51100000000E-03 0.  1.
         11    1    4    4    0    0  0.50763696771E-01 -0.84424598622E-01 -0.66435901380E-01  0.11882110871E+00  0.51100000000E-03 0. -1.
</event>
<event>
 8    1  0.2077555E+004  0.1043930E+01  0.7957747E-01            NaN
         13   -1    0    0    0    0  0.00000000000E+00  0.00000000000E+00  0.74505805969E-08  0.10566000000E+00  0.10566000000E+00 0.  1.
     999900   -1    0    0    0    0 -0.00000000000E+00 -0.00000000000E+00 -0.74505805969E-08  0.93827000000E+00  0.93827000000E+00 0.  1.
     999902    2    1    2    0    0  0.11934119784E-01  0.42475704332E-02  0.33293850400E-02  0.10308322951E+01  0.10307490823E+01 0.  0.
     999903    2    3    3    0    0 -0.20378065017E-01 -0.83514658784E-01  0.10151167606E+00  0.14044695802E+00  0.45063997566E-01 0.  0.
         14    1    1    2    0    0 -0.11934119784E-01 -0.42475704332E-02 -0.33293850400E-02  0.13097704927E-01  0.00000000000E+00 0. -1.
     999901    1    3    3    0    0  0.32312184801E-01  0.87762229217E-01 -0.98182291016E-01  0.89038533705E+00  0.88000000000E+00 0.  1.
        -11    1    4    4    0    0 -0.15127611493E-01 -0.87787799266E-01  0.99071881513E-01  0.13323303328E+00  0.51100000000E-03 0. -1.
         11    1    4    4    0    0 -0.52504535238E-02  0.42731404823E-02  0.24397945432E-02  0.72139247432E-02  0.51100000000E-03 0.  1.
</event>
<event>
 8    1  0.2077555E+004  0.1043930E+01  0.7957747E-01            NaN
         13   -1    0    0    0    0  0.00000000000E+00  0.00000000000E+00  0.74505805969E-08  0.10566000000E+00  0.10566000000E+00 0. -1.
     999900   -1    0    0    0    0 -0.00000000000E+00 -0.00000000000E+00 -0.74505805969E-08  0.93827000000E+00  0.93827000000E+00 0. -1.
     999902    2    1    2    0    0  0.52215905879E-02 -0.45440759875E-02 -0.11426742687E-01  0.10305702065E+01  0.10304836080E+01 0.  0.
     999903    2    3    3    0    0 -0.26035210816E-01 -0.76191308040E-01 -0.10732404794E+00  0.14191582672E+00  0.46246113175E-01 0.  0.
         14    1    1    2    0    0 -0.52215905879E-02  0.45440759875E-02  0.11426742687E-01  0.13359793535E-01  0.00000000000E+00 0. -1.
     999901    1    3    3    0    0  0.31256801404E-01  0.71647232053E-01  0.95897305249E-01  0.88865437975E+00  0.88000000000E+00 0.  1.
        -11    1    4    4    0    0 -0.39407273244E-02 -0.52430730092E-01 -0.92143871238E-01  0.10609083333E+00  0.51100000000E-03 0. -1.
         11    1    4    4    0    0 -0.22094483491E-01 -0.23760577948E-01 -0.15180176698E-01  0.35824993381E-01  0.51100000000E-03 0.  1.
</event>
<event>
 8    1  0.2077555E+004  0.1043930E+01  0.7957747E-01            NaN
         13   -1    0    0    0    0  0.00000000000E+00  0.00000000000E+00  0.74505805969E-08  0.10566000000E+00  0.10566000000E+00 0. -1.
     999900   -1    0    0    0    0 -0.00000000000E+00 -0.00000000000E+00 -0.74505805969E-08  0.93827000000E+00  0.93827000000E+00 0.  1.
     999902    2    1    2    0    0  0.16995251905E-01  0.10718130703E-02 -0.46321776602E-03  0.10268946855E+01  0.10267533750E+01 0.  0.
     999903    2    3    3    0    0 -0.68818164731E-01  0.99289450146E-01  0.43156565602E-01  0.13621329899E+00  0.45795621633E-01 0.  0.
         14    1    1    2    0    0 -0.16995251905E-01 -0.10718130703E-02  0.46321776602E-03  0.17035314534E-01  0.00000000000E+00 0.  1.
     999901    1    3    3    0    0  0.85813416636E-01 -0.98217637076E-01 -0.43619783368E-01  0.89068138647E+00  0.88000000000E+00 0.  1.
        -11    1    4    4    0    0 -0.10399254856E-01  0.30700506181E-01  0.31786565998E-01  0.45401679267E-01  0.51100000000E-03 0. -1.
         11    1    4    4    0    0 -0.58418909875E-01  0.68588943965E-01  0.11369999604E-01  0.90811619726E-01  0.51100000000E-03 0.  1.
</event>
<event>
 8    1  0.2077555E+004  0.1043930E+01  0.7957747E-01            NaN
         13   -1    0    0    0    0  0.00000000000E+00  0.00000000000E+00  0.74505805969E-08  0.10566000000E+00  0.10566000000E+00 0. -1.
     999900   -1    0    0    0    0 -0.00000000000E+00 -0.00000000000E+00 -0.74505805969E-08  0.93827000000E+00  0.93827000000E+00 0.  1.
     999902    2    1    2    0    0  0.14041833466E-01 -0.27685377144E-02  0.11223495980E-02  0.10295739018E+01  0.10294738081E+01 0.  0.
     999903    2    3    3    0    0 -0.12892049096E+00 -0.19804324821E-01 -0.49936216728E-02  0.13785317790E+00  0.44337998711E-01 0.  0.
         14    1    1    2    0    0 -0.14041833466E-01  0.27685377144E-02 -0.11223495980E-02  0.14356098243E-01  0.00000000000E+00 0. -1.
     999901    1    3    3    0    0  0.14296232442E+00  0.17035787106E-01  0.61159712708E-02  0.89172072385E+00  0.88000000000E+00 0.  1.
        -11    1    4    4    0    0 -0.61784740835E-01 -0.15857742730E-01  0.18820470239E-01  0.66507844843E-01  0.51100000000E-03 0.  1.
         11    1    4    4    0    0 -0.67135750123E-01 -0.39465820908E-02 -0.23814091912E-01  0.71345333059E-01  0.51100000000E-03 0. -1.
</event>
<event>
 8    1  0.2077555E+004  0.1043930E+01  0.7957747E-01            NaN
         13   -1    0    0    0    0  0.00000000000E+00  0.00000000000E+00  0.74505805969E-08  0.10566000000E+00  0.10566000000E+00 0. -1.
     999900   -1    0    0    0    0 -0.00000000000E+00 -0.00000000000E+00 -0.74505805969E-08  0.93827000000E+00  0.93827000000E+00 0. -1.
     999902    2    1    2    0    0  0.15756414118E-02 -0.29103993705E-02 -0.13358846185E-01  0.10301673025E+01  0.10300753659E+01 0.  0.
     999903    2    3    3    0    0 -0.11726156568E+00  0.48738130088E-01  0.36799020450E-01  0.13926570079E+00  0.43761711580E-01 0.  0.
         14    1    1    2    0    0 -0.15756414118E-02  0.29103993705E-02  0.13358846185E-01  0.13762697474E-01  0.00000000000E+00 0. -1.
     999901    1    3    3    0    0  0.11883720709E+00 -0.51648529458E-01 -0.50157866636E-01  0.89090160173E+00  0.88000000000E+00 0. -1.
        -11    1    4    4    0    0 -0.78760660056E-01  0.22957886994E-01  0.42812777507E-01  0.92539187302E-01  0.51100000000E-03 0. -1.
         11    1    4    4    0    0 -0.38500905627E-01  0.25780243094E-01 -0.60137570567E-02  0.46726513491E-01  0.51100000000E-03 0.  1.
</event>
<event>
 8    1  0.2077555E+004  0.1043930E+01  0.7957747E-01            NaN
         13   -1    0    0    0    0  0.00000000000E+00  0.00000000000E+00  0.74505805969E-08  0.10566000000E+00  0.10566000000E+00 0. -1.
     999900   -1    0    0    0    0 -0.00000000000E+00 -0.00000000000E+00 -0.74505805969E-08  0.93827000000E+00  0.93827000000E+00 0.  1.
     999902    2    1    2    0    0 -0.77375088943E-02 -0.26829686469E-02 -0.10951173916E-01  0.10302553675E+01  0.10301646114E+01 0.  0.
     999903    2    3    3    0    0 -0.12707486453E+00 -0.24049611129E-02  0.40561930858E-01  0.14070768370E+00  0.44716629838E-01 0.  0.
         14    1    1    2    0    0  0.77375088943E-02  0.26829686469E-02  0.10951173916E-01  0.13674632528E-01  0.00000000000E+00 0. -1.
     999901    1    3    3    0    0  0.11933735564E+00 -0.27800753393E-03 -0.51513104773E-01  0.88954768377E+00  0.88000000000E+00 0.  1.
        -11    1    4    4    0    0 -0.23674938593E-01  0.15252253555E-01  0.17949084352E-01  0.33400070449E-01  0.51100000000E-03 0. -1.
         11    1    4    4    0    0 -0.10339992594E+00 -0.17657214668E-01  0.22612846505E-01  0.10730761325E+00  0.51100000000E-03 0.  1.
</event>
<event>
 8    1  0.2077555E+004  0.1043930E+01  0.7957747E-01            NaN
         13   -1    0    0    0    0  0.00000000000E+00  0.00000000000E+00  0.74505805969E-08  0.10566000000E+00  0.10566000000E+00 0. -1.
     999900   -1    0    0    0    0 -0.00000000000E+00 -0.00000000000E+00 -0.74505805969E-08  0.93827000000E+00  0.93827000000E+00 0.  1.
     999902    2    1    2    0    0 -0.59004029273E-02 -0.75749633792E-02  0.69074147613E-02  0.10321017624E+01  0.10320339824E+01 0.  0.
     999903    2    3    3    0    0 -0.93331239257E-01  0.63159102836E-01  0.75001437129E-01  0.14233535763E+00  0.43981200157E-01 0.  0.
         14    1    1    2    0    0  0.59004029273E-02  0.75749633792E-02 -0.69074147613E-02  0.11828237552E-01  0.00000000000E+00 0.  1.
     999901    1    3    3    0    0  0.87430836330E-01 -0.70734066216E-01 -0.68094022367E-01  0.88976640482E+00  0.88000000000E+00 0.  1.
        -11    1    4    4    0    0 -0.55320319503E-01  0.58727425732E-01  0.62552458890E-01  0.10208976206E+00  0.51100000000E-03 0.  1.
         11    1    4    4    0    0 -0.38010919754E-01  0.44316771043E-02  0.12448978239E-01  0.40245595569E-01  0.51100000000E-03 0. -1.
</event>
<event>
 8    1  0.2077555E+004  0.1043930E+01  0.7957747E-01            NaN
         13   -1    0    0    0    0  0.00000000000E+00  0.00000000000E+00  0.74505805969E-08  0.10566000000E+00  0.10566000000E+00 0.  1.
     999900   -1    0    0    0    0 -0.00000000000E+00 -0.00000000000E+00 -0.74505805969E-08  0.93827000000E+00  0.93827000000E+00 0. -1.
     999902    2    1    2    0    0 -0.72572018214E-02 -0.75472276119E-02  0.46717047708E-02  0.10324647286E+01  0.10324010671E+01 0.  0.
     999903    2    3    3    0    0 -0.13404712086E+00  0.18785094549E-01  0.94715225392E-02  0.14297492370E+00  0.45062275567E-01 0.  0.
         14    1    1    2    0    0  0.72572018214E-02  0.75472276119E-02 -0.46717047708E-02  0.11465271404E-01  0.00000000000E+00 0.  1.
     999901    1    3    3    0    0  0.12678991904E+00 -0.26332322161E-01 -0.47998177684E-02  0.88948980489E+00  0.88000000000E+00 0. -1.
        -11    1    4    4    0    0 -0.96472871861E-01  0.67064101855E-02  0.26064291430E-01  0.10015787214E+00  0.51100000000E-03 0.  1.
         11    1    4    4    0    0 -0.37574249002E-01  0.12078684363E-01 -0.16592768891E-01  0.42817051562E-01  0.51100000000E-03 0. -1.
</event>
<event>
 8    1  0.2077555E+004  0.1043930E+01  0.7957747E-01            NaN
         13   -1    0    0    0    0  0.00000000000E+00  0.00000000000E+00  0.74505805969E-08  0.10566000000E+00  0.10566000000E+00 0.  1.
     999900   -1    0    0    0    0 -0.00000000000E+00 -0.00000000000E+00 -0.74505805969E-08  0.93827000000E+00  0.93827000000E+00 0.  1.
     999902    2    1    2    0    0 -0.56574206717E-02 -0.12873691752E-01  0.73319321257E-02  0.10280713879E+01  0.10279490664E+01 0.  0.
     999903    2    3    3    0    0 -0.54606882112E-01 -0.11302940063E+00  0.43408480521E-01  0.14030524016E+00  0.45207380520E-01 0.  0.
         14    1    1    2    0    0  0.56574206717E-02  0.12873691752E-01 -0.73319321257E-02  0.15858612066E-01  0.00000000000E+00 0. -1.
     999901    1    3    3    0    0  0.48949461440E-01  0.10015570888E+00 -0.36076548395E-01  0.88776614778E+00  0.88000000000E+00 0.  1.
        -11    1    4    4    0    0 -0.98803121497E-02 -0.20179276323E-01  0.28304647240E-01  0.36141913860E-01  0.51100000000E-03 0. -1.
         11    1    4    4    0    0 -0.44726569962E-01 -0.92850124306E-01  0.15103833281E-01  0.10416332630E+00  0.51100000000E-03 0.  1.
</event>
<event>
 8    1  0.2077555E+004  0.1043930E+01  0.7957747E-01            NaN
         13   -1    0    0    0    0  0.00000000000E+00  0.00000000000E+00  0.74505805969E-08  0.10566000000E+00  0.10566000000E+00 0. -1.
     999900   -1    0    0    0    0 -0.00000000000E+00 -0.00000000000E+00 -0.74505805969E-08  0.93827000000E+00  0.93827000000E+00 0. -1.
     999902    2    1    2    0    0 -0.51284351284E-02  0.11934396022E-01 -0.63136548751E-02  0.10294872547E+01  0.10293859405E+01 0.  0.
     999903    2    3    3    0    0  0.10182406247E+00 -0.73722803116E-01  0.36996427120E-01  0.13783050696E+00  0.42723782982E-01 0.  0.
         14    1    1    2    0    0  0.51284351284E-02 -0.11934396022E-01  0.63136548751E-02  0.14442745347E-01  0.00000000000E+00 0.  1.
     999901    1    3    3    0    0 -0.10695249760E+00  0.85657199138E-01 -0.43310081995E-01  0.89165674769E+00  0.88000000000E+00 0.  1.
        -11    1    4    4    0    0  0.23276780890E-01 -0.41815311629E-01  0.16288742285E-01  0.50556038823E-01  0.51100000000E-03 0.  1.
         11    1    4    4    0    0  0.78547281577E-01 -0.31907491486E-01  0.20707684835E-01  0.87274468136E-01  0.51100000000E-03 0. -1.
</event>
<event>
 8    1  0.2077555E+004  0.1043930E+01  0.7957747E-01            NaN
         13   -1    0    0    0    0  0.00000000000E+00  0.00000000000E+00  0.74505805969E-08  0.10566000000E+00  0.10566000000E+00 0. -1.
     999900   -1    0    0    0    0 -0.00000000000E+00 -0.00000000000E+00 -0.74505805969E-08  0.93827000000E+00  0.93827000000E+00 0.  1.
     999902    2    1    2    0    0  0.47956184029E-02 -0.89689112868E-02  0.49145350286E-02  0.10326343380E+01  0.10325725563E+01 0.  0.
     999903    2    3    3    0    0 -0.18191671218E-01  0.74217576726E-01 -0.10883087614E+00  0.14112638748E+00  0.47257931029E-01 0.  0.
         14    1    1    2    0    0 -0.47956184029E-02  0.89689112868E-02 -0.49145350286E-02  0.11295662003E-01  0.00000000000E+00 0. -1.
     999901    1    3    3    0    0  0.22987289621E-01 -0.83186488012E-01  0.11374541117E+00  0.89150795052E+00  0.88000000000E+00 0. -1.
        -11    1    4    4    0    0 -0.33538907900E-01  0.60803794525E-01 -0.85215188314E-01  0.10992656281E+00  0.51100000000E-03 0.  1.
         11    1    4    4    0    0  0.15347236682E-01  0.13413782200E-01 -0.23615687827E-01  0.31199824666E-01  0.51100000000E-03 0. -1.
</event>
<event>
 8    1  0.2077555E+004  0.1043930E+01  0.7957747E-01            NaN
         13   -1    0    0    0    0  0.00000000000E+00  0.00000000000E+00  0.74505805969E-08  0.10566000000E+00  0.10566000000E+00 0.  1.
     999900   -1    0    0    0    0 -0.00000000000E+00 -0.00000000000E+00 -0.74505805969E-08  0.93827000000E+00  0.93827000000E+00 0.  1.
     999902    2    1    2    0    0 -0.49032242129E-02 -0.12025993584E-01 -0.38304584014E-02  0.10303897437E+01  0.10303007742E+01 0.  0.
     999903    2    3    3    0    0 -0.10007391340E+00  0.25621334777E-01 -0.82233487422E-01  0.14099567109E+00  0.49458991838E-01 0.  0.
         14    1    1    2    0    0  0.49032242129E-02  0.12025993584E-01  0.38304584014E-02  0.13540256310E-01  0.00000000000E+00 0.  1.
     999901    1    3    3    0    0  0.95170689189E-01 -0.37647328361E-01  0.78403029021E-01  0.88939407260E+00  0.88000000000E+00 0. -1.
        -11    1    4    4    0    0 -0.12980556280E-01 -0.12864548862E-01 -0.67578698849E-02  0.19491572157E-01  0.51100000000E-03 0.  1.
         11    1    4    4    0    0 -0.87093357122E-01  0.38485883640E-01 -0.75475617537E-01  0.12150409893E+00  0.51100000000E-03 0. -1.
</event>
<event>
 8    1  0.2077555E+004  0.1043930E+01  0.7957747E-01            NaN
         13   -1    0    0    0    0  0.00000000000E+00  0.00000000000E+00  0.74505805969E-08  0.10566000000E+00  0.10566000000E+00 0.  1.
     999900   -1    0    0    0    0 -0.00000000000E+00 -0.00000000000E+00 -0.74505805969E-08  0.93827000000E+00  0.93827000000E+00 0. -1.
     999902    2    1    2    0    0  0.11809239765E-01  0.48254676816E-02  0.41157786644E-02  0.10305254144E+01  0.10304382304E+01 0.  0.
     999903    2    3    3    0    0  0.42193063182E-01 -0.14831439678E-01  0.12637328566E+00  0.14133675679E+00  0.44784431531E-01 0.  0.
         14    1    1    2    0    0 -0.11809239765E-01 -0.48254676816E-02 -0.41157786644E-02  0.13404585640E-01  0.00000000000E+00 0. -1.
     999901    1    3    3    0    0 -0.30383823417E-01  0.19656907360E-01 -0.12225750700E+00  0.88918865757E+00  0.88000000000E+00 0. -1.
        -11    1    4    4    0    0  0.42504603217E-01 -0.27056029413E-01  0.10902383722E+00  0.12010465530E+00  0.51100000000E-03 0. -1.
         11    1    4    4    0    0 -0.31154003498E-03  0.12224589735E-01  0.17349448446E-01  0.21232101492E-01  0.51100000000E-03 0.  1.
</event>
<event>
 8    1  0.2077555E+004  0.1043930E+01  0.7957747E-01            NaN
         13   -1    0    0    0    0  0.00000000000E+00  0.00000000000E+00  0.74505805969E-08  0.10566000000E+00  0.10566000000E+00 0. -1.
     999900   -1    0    0    0    0 -0.00000000000E+00 -0.00000000000E+00 -0.74505805969E-08  0.93827000000E+00  0.93827000000E+00 0.  1.
     999902    2    1    2    0    0 -0.99868748005E-02  0.73167477821E-02  0.63819381018E-02  0.10300015543E+01  0.10299073746E+01 0.  0.
     999903    2    3    3    0    0 -0.72374198675E-01  0.11284052206E+00  0.99088933456E-02  0.14149725798E+00  0.44184610392E-01 0.  0.
         14    1    1    2    0    0  0.99868748005E-02 -0.73167477821E-02 -0.63819381018E-02  0.13928445725E-01  0.00000000000E+00 0.  1.
     999901    1    3    3    0    0  0.62387323875E-01 -0.10552377428E+00 -0.35269552438E-02  0.88850429629E+00  0.88000000000E+00 0.  1.
        -11    1    4    4    0    0 -0.10869621384E-01  0.55396870023E-01 -0.20470717758E-02  0.56492596871E-01  0.51100000000E-03 0.  1.
         11    1    4    4    0    0 -0.61504577291E-01  0.57443652041E-01  0.11955965121E-01  0.85004661110E-01  0.51100000000E-03 0. -1.
</event>
<event>
 8    1  0.2077555E+004  0.1043930E+01  0.7957747E-01            NaN
         13   -1    0    0    0    0  0.00000000000E+00  0.00000000000E+00  0.74505805969E-08  0.10566000000E+00  0.10566000000E+00 0.  1.
     999900   -1    0    0    0    0 -0.00000000000E+00 -0.00000000000E+00 -0.74505805969E-08  0.93827000000E+00  0.93827000000E+00 0.  1.
     999902    2    1    2    0    0  0.92348510101E-02  0.50082675611E-02 -0.11631754753E-01  0.10282563618E+01  0.10281368987E+01 0.  0.
     999903    2    3    3    0    0 -0.65351602425E-01  0.97817217933E-01  0.55844822152E-01  0.13767805036E+00  0.44694086020E-01 0.  0.
         14    1    1    2    0    0 -0.92348510101E-02 -0.50082675611E-02  0.11631754753E-01  0.15673638244E-01  0.00000000000E+00 0.  1.
     999901    1    3    3    0    0  0.74586453435E-01 -0.92808950372E-01 -0.67476576906E-01  0.89057831140E+00  0.88000000000E+00 0.  1.
        -11    1    4    4    0    0 -0.52297111876E-01  0.38190951416E-01  0.26942863614E-01  0.70140685065E-01  0.51100000000E-03 0. -1.
         11    1    4    4    0    0 -0.13054490549E-01  0.59626266516E-01  0.28901958539E-01  0.67537365292E-01  0.51100000000E-03 0.  1.
</event>
<event>
 8    1  0.2077555E+004  0.1043930E+01  0.7957747E-01            NaN
         13   -1    0    0    0    0  0.00000000000E+00  0.00000000000E+00  0.74505805969E-08  0.10566000000E+00  0.10566000000E+00 0. -1.
     999900   -1    0    0    0    0 -0.00000000000E+00 -0.00000000000E+00 -0.74505805969E-08  0.93827000000E+00  0.93827000000E+00 0.  1.
     999902    2    1    2    0    0 -0.14305894763E-01 -0.15985534636E-02 -0.32440902233E-02  0.10291740480E+01  0.10290682596E+01 0.  0.
     999903    2    3    3    0    0 -0.67416863293E-01  0.11096820512E+00 -0.27459846564E-01  0.14008549618E+00  0.44843361424E-01 0.  0.
         14    1    1    2    0    0  0.14305894763E-01  0.15985534636E-02  0.32440902233E-02  0.14755952003E-01  0.00000000000E+00 0. -1.
     999901    1    3    3    0    0  0.53110968530E-01 -0.11256675858E+00  0.24215756340E-01  0.88908855182E+00  0.88000000000E+00 0. -1.
        -11    1    4    4    0    0 -0.62130469299E-01  0.67158820401E-01 -0.79548916900E-02  0.91837050235E-01  0.51100000000E-03 0. -1.
         11    1    4    4    0    0 -0.52863939945E-02  0.43809384715E-01 -0.19504954874E-01  0.48248445946E-01  0.51100000000E-03 0.  1.
</event>
<event>
 8    1  0.2077555E+004  0.1043930E+01  0.7957747E-01            NaN
         13   -1    0    0    0    0  0.00000000000E+00  0.00000000000E+00  0.74505805969E-08  0.10566000000E+00  0.10566000000E+00 0.  1.
     999900   -1    0    0    0    0 -0.00000000000E+00 -0.00000000000E+00 -0.74505805969E-08  0.93827000000E+00  0.93827000000E+00 0.  1.
     999902    2    1    2    0    0  0.31704674938E-03  0.11052995574E-04 -0.19504178792E-01  0.10244232414E+01  0.10242375037E+01 0.  0.
     999903    2    3    3    0    0  0.10654328950E+00  0.63160339087E-01 -0.33140664777E-01  0.13568379660E+00  0.44396937138E-01 0.  0.
         14    1    1    2    0    0 -0.31704674938E-03 -0.11052995574E-04  0.19504178792E-01  0.19506758602E-01  0.00000000000E+00 0.  1.
     999901    1    3    3    0    0 -0.10622624275E+00 -0.63149286091E-01  0.13636485985E-01  0.88873944479E+00  0.88000000000E+00 0. -1.
        -11    1    4    4    0    0  0.27158696355E-01  0.34796885030E-01 -0.25639744769E-01  0.51049736810E-01  0.51100000000E-03 0. -1.
         11    1    4    4    0    0  0.79384593148E-01  0.28363454057E-01 -0.75009200079E-02  0.84634059794E-01  0.51100000000E-03 0.  1.
</event>
<event>
 8    1  0.2077555E+004  0.1043930E+01  0.7957747E-01            NaN
         13   -1    0    0    0    0  0.00000000000E+00  0.00000000000E+00  0.74505805969E-08  0.10566000000E+00  0.10566000000E+00 0. -1.
     999900   -1    0    0    0    0 -0.00000000000E+00 -0.00000000000E+00 -0.74505805969E-08  0.93827000000E+00  0.93827000000E+00 0.  1.
     999902    2    1    2    0    0  0.11367764891E-02  0.25257590382E-02  0.14247980224E-01  0.10294152950E+01  0.10293129616E+01 0.  0.
     999903    2    3    3    0    0  0.17193233106E-01 -0.12044228639E+00  0.53643205932E-01  0.13984745963E+00  0.43333206726E-01 0.  0.
         14    1    1    2    0    0 -0.11367764891E-02 -0.25257590382E-02 -0.14247980224E-01  0.14514704957E-01  0.00000000000E+00 0.  1.
     999901    1    3    3    0    0 -0.16056456617E-01  0.12296804543E+00 -0.39395225707E-01  0.88956783542E+00  0.88000000000E+00 0.  1.
        -11    1    4    4    0    0  0.25100788054E-01 -0.49494441452E-01  0.10645396567E-01  0.56509599933E-01  0.51100000000E-03 0.  1.
         11    1    4    4    0    0 -0.79075549478E-02 -0.70947844943E-01  0.42997809365E-01  0.83337859695E-01  0.51100000000E-03 0. -1.
</event>
<event>
 8    1  0.2077555E+004  0.1043930E+01  0.7957747E-01            NaN
         13   -1    0    0    0    0  0.00000000000E+00  0.00000000000E+00  0.74505805969E-08  0.10566000000E+00  0.10566000000E+00 0.  1.
     999900   -1    0    0    0    0 -0.00000000000E+00 -0.00000000000E+00 -0.74505805969E-08  0.93827000000E+00  0.93827000000E+00 0. -1.
     999902    2    1    2    0    0 -0.67841092334E-02 -0.91204858224E-02 -0.77643735693E-02  0.10301643581E+01  0.10300723818E+01 0.  0.
     999903    2    3    3    0    0 -0.18176177597E-01  0.13018262566E+00 -0.30696759882E-02  0.13912161151E+00  0.45469884787E-01 0.  0.
         14    1    1    2    0    0  0.67841092334E-02  0.91204858224E-02  0.77643735693E-02  0.13765641890E-01  0.00000000000E+00 0.  1.
     999901    1    3    3    0    0  0.11392068364E-01 -0.13930311148E+00 -0.46946975811E-02  0.89104274660E+00  0.88000000000E+00 0. -1.
        -11    1    4    4    0    0 -0.27212927322E-01  0.92855383714E-01  0.12718199592E-01  0.97594464085E-01  0.51100000000E-03 0.  1.
         11    1    4    4    0    0  0.90367497253E-02  0.37327241943E-01 -0.15787875580E-01  0.41527147422E-01  0.51100000000E-03 0. -1.
</event>
<event>
 8    1  0.2077555E+004  0.1043930E+01  0.7957747E-01            NaN
         13   -1    0    0    0    0  0.00000000000E+00  0.00000000000E+00  0.74505805969E-08  0.10566000000E+00  0.10566000000E+00 0.  1.
     999900   -1    0    0    0    0 -0.00000000000E+00 -0.00000000000E+00 -0.74505805969E-08  0.93827000000E+00  0.93827000000E+00 0. -1.
     999902    2    1    2    0    0 -0.12402185438E-01  0.46392525546E-02  0.14110338008E-01  0.10245795864E+01  0.10243968422E+01 0.  0.
     999903    2    3    3    0    0  0.11690568589E-01  0.77255430564E-01  0.10282949408E+00  0.13681573336E+00  0.45161588738E-01 0.  0.
         14    1    1    2    0    0  0.12402185438E-01 -0.46392525546E-02 -0.14110338008E-01  0.19350413603E-01  0.00000000000E+00 0. -1.
     999901    1    3    3    0    0 -0.24092754027E-01 -0.72616178009E-01 -0.88719156069E-01  0.88776385304E+00  0.88000000000E+00 0. -1.
        -11    1    4    4    0    0  0.17177714646E-01  0.60698099533E-01  0.47979406033E-01  0.79256657081E-01  0.51100000000E-03 0. -1.
         11    1    4    4    0    0 -0.54871460573E-02  0.16557331031E-01  0.54850088044E-01  0.57559076280E-01  0.51100000000E-03 0.  1.
</event>
<event>
 8    1  0.2077555E+004  0.1043930E+01  0.7957747E-01            NaN
         13   -1    0    0    0    0  0.00000000000E+00  0.00000000000E+00  0.74505805969E-08  0.10566000000E+00  0.10566000000E+00 0.  1.
     999900   -1    0    0    0    0 -0.00000000000E+00 -0.00000000000E+00 -0.74505805969E-08  0.93827000000E+00  0.93827000000E+00 0. -1.
     999902    2    1    2    0    0  0.43492164477E-02 -0.19231134637E-02 -0.12736470473E-01  0.10303347167E+01  0.10302450178E+01 0.  0.
     999903    2    3    3    0    0 -0.13148732028E+00  0.81756784818E-02  0.17439547107E-01  0.13934417667E+00  0.41915446485E-01 0.  0.
         14    1    1    2    0    0 -0.43492164477E-02  0.19231134637E-02  0.12736470473E-01  0.13595283344E-01  0.00000000000E+00 0.  1.
     999901    1    3    3    0    0  0.13583653673E+00 -0.10098791945E-01 -0.30176017580E-01  0.89099053999E+00  0.88000000000E+00 0.  1.
        -11    1    4    4    0    0 -0.73819518283E-01 -0.78375180688E-02 -0.72718436038E-02  0.74591479403E-01  0.51100000000E-03 0.  1.
         11    1    4    4    0    0 -0.57667802000E-01  0.16013196551E-01  0.24711390711E-01  0.64752697266E-01  0.51100000000E-03 0. -1.
</event>
<event>
 8    1  0.2077555E+004  0.1043930E+01  0.7957747E-01            NaN
         13   -1    0    0    0    0  0.00000000000E+00  0.00000000000E+00  0.74505805969E-08  0.10566000000E+00  0.10566000000E+00 0.  1.
     999900   -1    0    0    0    0 -0.00000000000E+00 -0.00000000000E+00 -0.74505805969E-08  0.93827000000E+00  0.93827000000E+00 0. -1.
     999902    2    1    2    0    0 -0.12967666916E-01  0.45178109059E-02  0.47070773983E-03  0.10301898193E+01  0.10300981852E+01 0.  0.
     999903    2    3    3    0    0  0.62347622055E-01  0.81337527684E-01  0.83115196651E-01  0.13979452886E+00  0.46166600480E-01 0.  0.
         14    1    1    2    0    0  0.12967666916E-01 -0.45178109059E-02 -0.47070773983E-03  0.13740180726E-01  0.00000000000E+00 0. -1.
     999901    1    3    3    0    0 -0.75315288970E-01 -0.76819716778E-01 -0.82644488911E-01  0.89039529041E+00  0.88000000000E+00 0. -1.
        -11    1    4    4    0    0  0.25534637899E-01  0.46399253306E-02  0.29215141415E-01  0.39081098354E-01  0.51100000000E-03 0. -1.
         11    1    4    4    0    0  0.36812984156E-01  0.76697602354E-01  0.53900055236E-01  0.10071343051E+00  0.51100000000E-03 0.  1.
</event>
<event>
 8    1  0.2077555E+004  0.1043930E+01  0.7957747E-01            NaN
         13   -1    0    0    0    0  0.00000000000E+00  0.00000000000E+00  0.74505805969E-08  0.10566000000E+00  0.10566000000E+00 0.  1.
     999900   -1    0    0    0    0 -0.00000000000E+00 -0.00000000000E+00 -0.74505805969E-08  0.93827000000E+00  0.93827000000E+00 0. -1.
     999902    2    1    2    0    0  0.90719677536E-02  0.23000327524E-02 -0.10580031338E-01  0.10298045686E+01  0.10297076875E+01 0.  0.
     999903    2    3    3    0    0  0.73511276636E-01 -0.10419135727E+00 -0.38499014438E-01  0.14060700319E+00  0.45037856420E-01 0.  0.
         14    1    1    2    0    0 -0.90719677536E-02 -0.23000327524E-02  0.10580031338E-01  0.14125431416E-01  0.00000000000E+00 0.  1.
     999901    1    3    3    0    0 -0.64439308882E-01  0.10649139003E+00  0.27918983100E-01  0.88919756539E+00  0.88000000000E+00 0. -1.
        -11    1    4    4    0    0  0.16493315083E-01 -0.21119579130E-01 -0.28864874394E-01  0.39389188362E-01  0.51100000000E-03 0. -1.
         11    1    4    4    0    0  0.57017961553E-01 -0.83071778145E-01 -0.96341400438E-02  0.10121781483E+00  0.51100000000E-03 0.  1.
</event>
<event>
 8    1  0.2077555E+004  0.1043930E+01  0.7957747E-01            NaN
         13   -1    0    0    0    0  0.00000000000E+00  0.00000000000E+00  0.74505805969E-08  0.10566000000E+00  0.10566000000E+00 0. -1.
     999900   -1    0    0    0    0 -0.00000000000E+00 -0.00000000000E+00 -0.74505805969E-08  0.93827000000E+00  0.93827000000E+00 0.  1.
     999902    2    1    2    0    0 -0.45602323266E-02  0.13679156815E-01 -0.17051251350E-02  0.10294102720E+01  0.10293078672E+01 0.  0.
     999903    2    3    3    0    0  0.45891617986E-01 -0.39713536621E-01 -0.11681106308E+00  0.13887922487E+00  0.44265212654E-01 0.  0.
         14    1    1    2    0    0  0.45602323266E-02 -0.13679156815E-01  0.17051251350E-02  0.14519728019E-01  0.00000000000E+00 0. -1.
     999901    1    3    3    0    0 -0.50451850313E-01  0.53392693436E-01  0.11510593794E+00  0.89053104711E+00  0.88000000000E+00 0. -1.
        -11    1    4    4    0    0  0.17508045723E-01  0.29605893184E-02 -0.99462065599E-02  0.20358902231E-01  0.51100000000E-03 0.  1.
         11    1    4    4    0    0  0.28383572264E-01 -0.42674125940E-01 -0.10686485652E+00  0.11852032264E+00  0.51100000000E-03 0. -1.
</event>
<event>
 8    1  0.2077555E+004  0.1043930E+01  0.7957747E-01            NaN
         13   -1    0    0    0    0  0.00000000000E+00  0.00000000000E+00  0.74505805969E-08  0.10566000000E+00  0.10566000000E+00 0. -1.
     999900   -1    0    0    0    0 -0.00000000000E+00 -0.00000000000E+00 -0.74505805969E-08  0.93827000000E+00  0.93827000000E+00 0. -1.
     999902    2    1    2    0    0  0.79313400269E-02  0.75372180706E-02  0.65774276645E-02  0.10311637020E+01  0.10310846725E+01 0.  0.
     999903    2    3    3    0    0 -0.52091327742E-01 -0.15415918465E-01  0.12222618272E+00  0.14127370783E+00  0.45473770608E-01 0.  0.
         14    1    1    2    0    0 -0.79313400269E-02 -0.75372180706E-02 -0.65774276645E-02  0.12766298036E-01  0.00000000000E+00 0.  1.
     999901    1    3    3    0    0  0.60022667769E-01  0.22953136536E-01 -0.11564875505E+00  0.88988999414E+00  0.88000000000E+00 0. -1.
        -11    1    4    4    0    0 -0.27469259746E-01 -0.66980871879E-02  0.17314946458E-01  0.33158605140E-01  0.51100000000E-03 0. -1.
         11    1    4    4    0    0 -0.24622067996E-01 -0.87178312771E-02  0.10491123626E+00  0.10811510269E+00  0.51100000000E-03 0.  1.
</event>
<event>
 8    1  0.2077555E+004  0.1043930E+01  0.7957747E-01            NaN
         13   -1    0    0    0    0  0.00000000000E+00  0.00000000000E+00  0.74505805969E-08  0.10566000000E+00  0.10566000000E+00 0. -1.
     999900   -1    0    0    0    0 -0.00000000000E+00 -0.00000000000E+00 -0.74505805969E-08  0.93827000000E+00  0.93827000000E+00 0.  1.
     999902    2    1    2    0    0 -0.14771630052E-01  0.17647680014E-02 -0.11297750269E-01  0.10252496729E+01  0.10250794784E+01 0.  0.
     999903    2    3    3    0    0  0.96914817399E-01 -0.54554129528E-01 -0.61758167812E-01  0.13497334807E+00  0.45112066208E-01 0.  0.
         14    1    1    2    0    0  0.14771630052E-01 -0.17647680014E-02  0.11297750269E-01  0.18680327129E-01  0.00000000000E+00 0. -1.
     999901    1    3    3    0    0 -0.11168644745E+00  0.56318897529E-01  0.50460417544E-01  0.89027632480E+00  0.88000000000E+00 0. -1.
        -11    1    4    4    0    0  0.44029687771E-01 -0.47844220963E-01 -0.22646861282E-01  0.68853644287E-01  0.51100000000E-03 0. -1.
         11    1    4    4    0    0  0.52885129628E-01 -0.67099085650E-02 -0.39111306530E-01  0.66119703782E-01  0.51100000000E-03 0.  1.
</event>
<event>
 8    1  0.2077555E+004  0.1043930E+01  0.7957747E-01            NaN
         13   -1    0    0    0    0  0.00000000000E+00  0.00000000000E+00  0.74505805969E-08  0.10566000000E+00  0.10566000000E+00 0. -1.
     999900   -1    0    0    0    0 -0.00000000000E+00 -0.00000000000E+00 -0.74505805969E-08  0.93827000000E+00  0.93827000000E+00 0.  1.
     999902    2    1    2    0    0  0.99106501736E-02 -0.70166105983E-02  0.69197060097E-02  0.10299537293E+01  0.10298588973E+01 0.  0.
     999903    2    3    3    0    0 -0.14741054379E-01  0.12660449312E+00  0.33233115169E-01  0.13913685621E+00  0.44817724723E-01 0.  0.
         14    1    1    2    0    0 -0.99106501736E-02  0.70166105983E-02 -0.69197060097E-02  0.13976270690E-01  0.00000000000E+00 0.  1.
     999901    1    3    3    0    0  0.24651704553E-01 -0.13362110372E+00 -0.26313409159E-01  0.89081687310E+00  0.88000000000E+00 0.  1.
        -11    1    4    4    0    0 -0.14571813812E-02  0.15600747605E-01 -0.10739757219E-01  0.19002900030E-01  0.51100000000E-03 0.  1.
         11    1    4    4    0    0 -0.13283872998E-01  0.11100374552E+00  0.43972872388E-01  0.12013395618E+00  0.51100000000E-03 0. -1.
</event>
<event>
 8    1  0.2077555E+004  0.1043930E+01  0.7957747E-01            NaN
         13   -1    0    0    0    0  0.00000000000E+00  0.00000000000E+00  0.74505805969E-08  0.10566000000E+00  0.10566000000E+00 0.  1.
     999900   -1    0    0    0    0 -0.00000000000E+00 -0.00000000000E+00 -0.74505805969E-08  0.93827000000E+00  0.93827000000E+00 0.  1.
     999902    2    1    2    0    0  0.28456154492E-02  0.12738323578E-01  0.33701255648E-02  0.10304496379E+01  0.10303614590E+01 0.  0.
     999903    2    3    3    0    0  0.11788901165E+00  0.54712057813E-04  0.57798833782E-01  0.14120369823E+00  0.51961111882E-01 0.  0.
         14    1    1    2    0    0 -0.28456154492E-02 -0.12738323578E-01 -0.33701255648E-02  0.13480362057E-01  0.00000000000E+00 0.  1.
     999901    1    3    3    0    0 -0.11504339620E+00  0.12683611521E-01 -0.54428708217E-01  0.88924593971E+00  0.88000000000E+00 0.  1.
        -11    1    4    4    0    0  0.10276971539E+00 -0.14273061277E-01  0.33141546862E-01  0.10892179731E+00  0.51100000000E-03 0.  1.
         11    1    4    4    0    0  0.15119296255E-01  0.14327773335E-01  0.24657286920E-01  0.32281900923E-01  0.51100000000E-03 0. -1.
</event>
<event>
 7    1  0.2077555E+004  0.1043930E+01  0.7957747E-01            NaN
         13   -1    0    0    0    0  0.00000000000E+00  0.00000000000E+00  0.74505805969E-08  0.10566000000E+00  0.10566000000E+00 0. -1.
     999900   -1    0    0    0    0 -0.00000000000E+00 -0.00000000000E+00 -0.74505805969E-08  0.93827000000E+00  0.93827000000E+00 0.  1.
     999903    2    1    2    0    0 -0.42647247872E-01 -0.42520045991E-01  0.66763397934E-01  0.10086994945E+00  0.45723662753E-01 0.  0.
         14    1    1    2    0    0  0.96938419399E-02  0.42453399164E-01  0.35956769413E-01  0.56472568020E-01  0.00000000000E+00 0.  1.
     999901    1    1    2    0    0  0.32953405932E-01  0.66646826691E-04 -0.10272016735E+00  0.88658748253E+00  0.88000000000E+00 0.  1.
        -11    1    3    3    0    0  0.93179270805E-02 -0.12395823114E-01  0.14870247431E-01  0.21491058034E-01  0.51100000000E-03 0.  1.
         11    1    3    3    0    0 -0.51965174953E-01 -0.30124222877E-01  0.51893150503E-01  0.79378891413E-01  0.51100000000E-03 0. -1.
</event>
<event>
 8    1  0.2077555E+004  0.1043930E+01  0.7957747E-01            NaN
         13   -1    0    0    0    0  0.00000000000E+00  0.00000000000E+00  0.74505805969E-08  0.10566000000E+00  0.10566000000E+00 0.  1.
     999900   -1    0    0    0    0 -0.00000000000E+00 -0.00000000000E+00 -0.74505805969E-08  0.93827000000E+00  0.93827000000E+00 0.  1.
     999902    2    1    2    0    0 -0.19571216882E-03 -0.28678998747E-02  0.14116658625E-01  0.10295236402E+01  0.10294228395E+01 0.  0.
     999903    2    3    3    0    0  0.11484456695E+00 -0.32017770386E-02 -0.62584955832E-01  0.13872763941E+00  0.46140603655E-01 0.  0.
         14    1    1    2    0    0  0.19571216882E-03  0.28678998747E-02 -0.14116658625E-01  0.14406359834E-01  0.00000000000E+00 0. -1.
     999901    1    3    3    0    0 -0.11504027912E+00  0.33387716383E-03  0.76701614457E-01  0.89079600075E+00  0.88000000000E+00 0. -1.
        -11    1    4    4    0    0  0.45926014273E-01  0.11707992395E-01 -0.46506086315E-01  0.66402959710E-01  0.51100000000E-03 0.  1.
         11    1    4    4    0    0  0.68918552682E-01 -0.14909769434E-01 -0.16078869517E-01  0.72324679704E-01  0.51100000000E-03 0. -1.
</event>
<event>
 8    1  0.2099934E+004  0.1043930E+01  0.7957747E-01            NaN
         13   -1    0    0    0    0  0.00000000000E+00  0.00000000000E+00  0.74505805969E-08  0.10566000000E+00  0.10566000000E+00 0.  1.
     999900   -1    0    0    0    0 -0.00000000000E+00 -0.00000000000E+00 -0.74505805969E-08  0.93827000000E+00  0.93827000000E+00 0. -1.
     999902    2    1    2    0    0  0.24404547367E-01  0.30030311237E-02 -0.10354182434E-02  0.10193195912E+01  0.10190224516E+01 0.  0.
     999903    2    3    3    0    0  0.97412086248E-02 -0.10759809876E+00 -0.56756147219E-01  0.13052691403E+00  0.46300896718E-01 0.  0.
         14    1    1    2    0    0 -0.24404547367E-01 -0.30030311237E-02  0.10354182434E-02  0.24610408754E-01  0.00000000000E+00 0. -1.
     999901    1    3    3    0    0  0.14663338742E-01  0.11060112988E+00  0.55720728976E-01  0.88879267722E+00  0.88000000000E+00 0. -1.
        -11    1    4    4    0    0  0.20669808264E-01 -0.18538581936E-01 -0.14914262895E-01  0.31521680675E-01  0.51100000000E-03 0. -1.
         11    1    4    4    0    0 -0.10928599639E-01 -0.89059516824E-01 -0.41841884324E-01  0.99005233355E-01  0.51100000000E-03 0.  1.
</event>
<event>
 8    1  0.2077555E+004  0.1043930E+01  0.7957747E-01            NaN
         13   -1    0    0    0    0  0.00000000000E+00  0.00000000000E+00  0.74505805969E-08  0.10566000000E+00  0.10566000000E+00 0.  1.
     999900   -1    0    0    0    0 -0.00000000000E+00 -0.00000000000E+00 -0.74505805969E-08  0.93827000000E+00  0.93827000000E+00 0. -1.
     999902    2    1    2    0    0  0.13645633279E-01  0.53053836310E-05  0.35616720027E-02  0.10298272044E+01  0.10297306357E+01 0.  0.
     999903    2    3    3    0    0  0.89028935413E-01  0.30911177036E-01  0.95465678227E-01  0.14129799190E+00  0.44382142677E-01 0.  0.
         14    1    1    2    0    0 -0.13645633279E-01 -0.53053836310E-05 -0.35616720027E-02  0.14102795581E-01  0.00000000000E+00 0. -1.
     999901    1    3    3    0    0 -0.75383302134E-01 -0.30905871652E-01 -0.91904006224E-01  0.88852921252E+00  0.88000000000E+00 0. -1.
        -11    1    4    4    0    0  0.19310714673E-01 -0.10448149480E-01  0.29544513325E-01  0.36813135120E-01  0.51100000000E-03 0. -1.
         11    1    4    4    0    0  0.69718220740E-01  0.41359326515E-01  0.65921164902E-01  0.10448485678E+00  0.51100000000E-03 0.  1.
</event>
<event>
 8    1  0.2077555E+004  0.1043930E+01  0.7957747E-01            NaN
         13   -1    0    0    0    0  0.00000000000E+00  0.00000000000E+00  0.74505805969E-08  0.10566000000E+00  0.10566000000E+00 0.  1.
     999900   -1    0    0    0    0 -0.00000000000E+00 -0.00000000000E+00 -0.74505805969E-08  0.93827000000E+00  0.93827000000E+00 0.  1.
     999902    2    1    2    0    0  0.13529906899E-01  0.38475213949E-02  0.32143474589E-02  0.10295010766E+01  0.10293999577E+01 0.  0.
     999903    2    3    3    0    0  0.17976711824E-01 -0.66483582882E-01  0.11307990578E+00  0.13987380676E+00  0.45104187883E-01 0.  0.
         14    1    1    2    0    0 -0.13529906899E-01 -0.38475213949E-02 -0.32143474589E-02  0.14428923423E-01  0.00000000000E+00 0. -1.
     999901    1    3    3    0    0 -0.44468049255E-02  0.70331104277E-01 -0.10986555832E+00  0.88962726982E+00  0.88000000000E+00 0.  1.
        -11    1    4    4    0    0  0.54236031997E-02 -0.56511320621E-01  0.52921622079E-01  0.77613813426E-01  0.51100000000E-03 0. -1.
         11    1    4    4    0    0  0.12553108624E-01 -0.99722622608E-02  0.60158283701E-01  0.62259993331E-01  0.51100000000E-03 0.  1.
</event>
<event>
 8    1  0.2077555E+004  0.1043930E+01  0.7957747E-01            NaN
         13   -1    0    0    0    0  0.00000000000E+00  0.00000000000E+00  0.74505805969E-08  0.10566000000E+00  0.10566000000E+00 0.  1.
     999900   -1    0    0    0    0 -0.00000000000E+00 -0.00000000000E+00 -0.74505805969E-08  0.93827000000E+00  0.93827000000E+00 0.  1.
     999902    2    1    2    0    0  0.66255048610E-02  0.80392619789E-03 -0.11949560054E-01  0.10302429405E+01  0.10301520183E+01 0.  0.
     999903    2    3    3    0    0  0.87041283132E-01  0.76775406364E-01  0.65131782187E-01  0.13997337655E+00  0.43356073394E-01 0.  0.
         14    1    1    2    0    0 -0.66255048610E-02 -0.80392619789E-03  0.11949560054E-01  0.13687059490E-01  0.00000000000E+00 0.  1.
     999901    1    3    3    0    0 -0.80415778271E-01 -0.75971480166E-01 -0.77081342241E-01  0.89026956396E+00  0.88000000000E+00 0.  1.
        -11    1    4    4    0    0  0.11140207815E-01 -0.19547053530E-02  0.17149907391E-01  0.20550074153E-01  0.51100000000E-03 0.  1.
         11    1    4    4    0    0  0.75901075317E-01  0.78730111717E-01  0.47981874796E-01  0.11942330240E+00  0.51100000000E-03 0. -1.
</event>
<event>
 8    1  0.2077555E+004  0.1043930E+01  0.7957747E-01            NaN
         13   -1    0    0    0    0  0.00000000000E+00  0.00000000000E+00  0.74505805969E-08  0.10566000000E+00  0.10566000000E+00 0. -1.
     999900   -1    0    0    0    0 -0.00000000000E+00 -0.00000000000E+00 -0.74505805969E-08  0.93827000000E+00  0.93827000000E+00 0.  1.
     999902    2    1    2    0    0  0.46556709639E-02  0.21104013692E-01  0.44189861142E-02  0.10218713939E+01  0.10216332823E+01 0.  0.
     999903    2    3    3    0    0  0.11751780567E+00 -0.41502532558E-01 -0.25472873667E-02  0.13243001298E+00  0.44702626377E-01 0.  0.
         14    1    1    2    0    0 -0.46556709639E-02 -0.21104013692E-01 -0.44189861142E-02  0.22058606128E-01  0.00000000000E+00 0. -1.
     999901    1    3    3    0    0 -0.11286213471E+00  0.62606546250E-01  0.69662734809E-02  0.88944138090E+00  0.88000000000E+00 0.  1.
        -11    1    4    4    0    0  0.95581900381E-02 -0.17993614440E-01 -0.77796291668E-02  0.21815428220E-01  0.51100000000E-03 0. -1.
         11    1    4    4    0    0  0.10795961563E+00 -0.23508918118E-01  0.52323418001E-02  0.11061458476E+00  0.51100000000E-03 0.  1.
</event>
<event>
 8    1  0.2077555E+004  0.1043930E+01  0.7957747E-01            NaN
         13   -1    0    0    0    0  0.00000000000E+00  0.00000000000E+00  0.74505805969E-08  0.10566000000E+00  0.10566000000E+00 0.  1.
     999900   -1    0    0    0    0 -0.00000000000E+00 -0.00000000000E+00 -0.74505805969E-08  0.93827000000E+00  0.93827000000E+00 0. -1.
     999902    2    1    2    0    0  0.16397531975E-01  0.20084385125E-01 -0.27587356395E-02  0.10178556409E+01  0.10175216133E+01 0.  0.
     999903    2    3    3    0    0 -0.33984350491E-01 -0.10304806200E+00  0.43008591265E-01  0.12667968642E+00  0.49235808796E-01 0.  0.
         14    1    1    2    0    0 -0.16397531975E-01 -0.20084385125E-01  0.27587356395E-02  0.26074359111E-01  0.00000000000E+00 0. -1.
     999901    1    3    3    0    0  0.50381882466E-01  0.12313244713E+00 -0.45767326904E-01  0.89117595447E+00  0.88000000000E+00 0. -1.
        -11    1    4    4    0    0  0.26769708241E-02  0.18360324566E-02  0.10368199562E-01  0.10876482479E-01  0.51100000000E-03 0.  1.
         11    1    4    4    0    0 -0.36661321315E-01 -0.10488409446E+00  0.32640391703E-01  0.11580320394E+00  0.51100000000E-03 0. -1.
</event>
<event>
 7    1  0.2533548E+004  0.1043930E+01  0.7957747E-01            NaN
         13   -1    0    0    0    0  0.00000000000E+00  0.00000000000E+00  0.74505805969E-08  0.10566000000E+00  0.10566000000E+00 0.  1.
     999900   -1    0    0    0    0 -0.00000000000E+00 -0.00000000000E+00 -0.74505805969E-08  0.93827000000E+00  0.93827000000E+00 0.  1.
     999903    2    1    2    0    0 -0.44997573843E-01 -0.72114146169E-01  0.39947005820E-01  0.10451951073E+00  0.45862109849E-01 0.  0.
         14    1    1    2    0    0 -0.47603791038E-01 -0.45363892310E-02 -0.17604600545E-01  0.50957057498E-01  0.00000000000E+00 0.  1.
     999901    1    1    2    0    0  0.92601364881E-01  0.76650535400E-01 -0.22342405275E-01  0.88845343177E+00  0.88000000000E+00 0. -1.
        -11    1    3    3    0    0 -0.42826058841E-01 -0.72951181808E-01  0.23357524013E-01  0.87759793140E-01  0.51100000000E-03 0.  1.
         11    1    3    3    0    0 -0.21715150023E-02  0.83703563897E-03  0.16589481807E-01  0.16759717590E-01  0.51100000000E-03 0. -1.
</event>
<event>
 8    1  0.2077555E+004  0.1043930E+01  0.7957747E-01            NaN
         13   -1    0    0    0    0  0.00000000000E+00  0.00000000000E+00  0.74505805969E-08  0.10566000000E+00  0.10566000000E+00 0. -1.
     999900   -1    0    0    0    0 -0.00000000000E+00 -0.00000000000E+00 -0.74505805969E-08  0.93827000000E+00  0.93827000000E+00 0. -1.
     999902    2    1    2    0    0 -0.38110907125E-02  0.13317635352E-01 -0.17866283090E-02  0.10299630438E+01  0.10298683391E+01 0.  0.
     999903    2    3    3    0    0  0.84633539309E-01 -0.47452631155E-01 -0.89281609962E-01  0.13913710703E+00  0.44422297280E-01 0.  0.
         14    1    1    2    0    0  0.38110907125E-02 -0.13317635352E-01  0.17866283090E-02  0.13966956165E-01  0.00000000000E+00 0. -1.
     999901    1    3    3    0    0 -0.88444630022E-01  0.60770266507E-01  0.87494981653E-01  0.89082593681E+00  0.88000000000E+00 0.  1.
        -11    1    4    4    0    0  0.42311354364E-02 -0.21772976435E-01 -0.21353702178E-01  0.30792965555E-01  0.51100000000E-03 0. -1.
         11    1    4    4    0    0  0.80402403873E-01 -0.25679654719E-01 -0.67927907784E-01  0.10834414147E+00  0.51100000000E-03 0.  1.
</event>
<event>
 8    1  0.2077555E+004  0.1043930E+01  0.7957747E-01            NaN
         13   -1    0    0    0    0  0.00000000000E+00  0.00000000000E+00  0.74505805969E-08  0.10566000000E+00  0.10566000000E+00 0. -1.
     999900   -1    0    0    0    0 -0.00000000000E+00 -0.00000000000E+00 -0.74505805969E-08  0.93827000000E+00  0.93827000000E+00 0. -1.
     999902    2    1    2    0    0 -0.72798172901E-02  0.11205817579E-01 -0.44894733113E-02  0.10298331401E+01  0.10297366533E+01 0.  0.
     999903    2    3    3    0    0  0.10467216705E+00 -0.55080747167E-01  0.55701693122E-01  0.13823338017E+00  0.44895851850E-01 0.  0.
         14    1    1    2    0    0  0.72798172901E-02 -0.11205817579E-01  0.44894733113E-02  0.14096859863E-01  0.00000000000E+00 0. -1.
     999901    1    3    3    0    0 -0.11195198434E+00  0.66286564745E-01 -0.60191166433E-01  0.89159975997E+00  0.88000000000E+00 0. -1.
        -11    1    4    4    0    0  0.42766592540E-01 -0.15245338600E-01 -0.83297620848E-03  0.45413178229E-01  0.51100000000E-03 0. -1.
         11    1    4    4    0    0  0.61905574505E-01 -0.39835408566E-01  0.56534669330E-01  0.92820201937E-01  0.51100000000E-03 0.  1.
</event>
<event>
 8    1  0.2077555E+004  0.1043930E+01  0.7957747E-01            NaN
         13   -1    0    0    0    0  0.00000000000E+00  0.00000000000E+00  0.74505805969E-08  0.10566000000E+00  0.10566000000E+00 0. -1.
     999900   -1    0    0    0    0 -0.00000000000E+00 -0.00000000000E+00 -0.74505805969E-08  0.93827000000E+00  0.93827000000E+00 0. -1.
     999902    2    1    2    0    0 -0.11914034655E-01 -0.11120918570E-01  0.11510030551E-01  0.10239775602E+01  0.10237831528E+01 0.  0.
     999903    2    3    3    0    0  0.13790811384E-01  0.57980886663E-01  0.11263582656E+00  0.13512311472E+00  0.44938369017E-01 0.  0.
         14    1    1    2    0    0  0.11914034655E-01  0.11120918570E-01 -0.11510030551E-01  0.19952439823E-01  0.00000000000E+00 0.  1.
     999901    1    3    3    0    0 -0.25704846039E-01 -0.69101805233E-01 -0.10112579601E+00  0.88885444546E+00  0.88000000000E+00 0. -1.
        -11    1    4    4    0    0 -0.12047458149E-02  0.59542163376E-01  0.89989359626E-01  0.10791230977E+00  0.51100000000E-03 0. -1.
         11    1    4    4    0    0  0.14995557199E-01 -0.15612767128E-02  0.22646466930E-01  0.27210804952E-01  0.51100000000E-03 0.  1.
</event>
<event>
 8    1  0.2077555E+004  0.1043930E+01  0.7957747E-01            NaN
         13   -1    0    0    0    0  0.00000000000E+00  0.00000000000E+00  0.74505805969E-08  0.10566000000E+00  0.10566000000E+00 0.  1.
     999900   -1    0    0    0    0 -0.00000000000E+00 -0.00000000000E+00 -0.74505805969E-08  0.93827000000E+00  0.93827000000E+00 0.  1.
     999902    2    1    2    0    0 -0.18297444399E-01  0.14568278172E-02 -0.11451828623E-01  0.10222952317E+01  0.10220662785E+01 0.  0.
     999903    2    3    3    0    0  0.80969200778E-01 -0.90770003985E-01 -0.24761027922E-01  0.13182524902E+00  0.44379980579E-01 0.  0.
         14    1    1    2    0    0  0.18297444399E-01 -0.14568278172E-02  0.11451828623E-01  0.21634768260E-01  0.00000000000E+00 0.  1.
     999901    1    3    3    0    0 -0.99266645177E-01  0.92226831802E-01  0.13309199299E-01  0.89046998273E+00  0.88000000000E+00 0. -1.
        -11    1    4    4    0    0  0.57983144105E-01 -0.75221619809E-01 -0.36420124347E-01  0.10172032081E+00  0.51100000000E-03 0. -1.
         11    1    4    4    0    0  0.22986056673E-01 -0.15548384176E-01  0.11659096426E-01  0.30104928207E-01  0.51100000000E-03 0.  1.
</event>
<event>
 8    1  0.2077555E+004  0.1043930E+01  0.7957747E-01            NaN
         13   -1    0    0    0    0  0.00000000000E+00  0.00000000000E+00  0.74505805969E-08  0.10566000000E+00  0.10566000000E+00 0.  1.
     999900   -1    0    0    0    0 -0.00000000000E+00 -0.00000000000E+00 -0.74505805969E-08  0.93827000000E+00  0.93827000000E+00 0. -1.
     999902    2    1    2    0    0  0.13569571574E-01  0.58755237604E-02  0.66503976889E-02  0.10277163378E+01  0.10275884333E+01 0.  0.
     999903    2    3    3    0    0 -0.10648315057E+00  0.33780535570E-01 -0.64149158927E-01  0.13631074943E+00  0.44561416940E-01 0.  0.
         14    1    1    2    0    0 -0.13569571574E-01 -0.58755237604E-02 -0.66503976889E-02  0.16213662189E-01  0.00000000000E+00 0.  1.
     999901    1    3    3    0    0  0.12005272215E+00 -0.27905011809E-01  0.70799556616E-01  0.89140558838E+00  0.88000000000E+00 0.  1.
        -11    1    4    4    0    0 -0.36686656595E-01 -0.92721447858E-02 -0.15039918179E-01  0.40722766370E-01  0.51100000000E-03 0. -1.
         11    1    4    4    0    0 -0.69796493979E-01  0.43052680356E-01 -0.49109240748E-01  0.95587983059E-01  0.51100000000E-03 0.  1.
</event>
<event>
 8    1  0.2077555E+004  0.1043930E+01  0.7957747E-01            NaN
         13   -1    0    0    0    0  0.00000000000E+00  0.00000000000E+00  0.74505805969E-08  0.10566000000E+00  0.10566000000E+00 0.  1.
     999900   -1    0    0    0    0 -0.00000000000E+00 -0.00000000000E+00 -0.74505805969E-08  0.93827000000E+00  0.93827000000E+00 0. -1.
     999902    2    1    2    0    0 -0.40971175860E-02  0.79384671204E-02 -0.10097194081E-01  0.10304481989E+01  0.10303600010E+01 0.  0.
     999903    2    3    3    0    0  0.21959404640E-01  0.11934913410E+00  0.54659906282E-01  0.14068150975E+00  0.45575767339E-01 0.  0.
         14    1    1    2    0    0  0.40971175860E-02 -0.79384671204E-02  0.10097194081E-01  0.13481801105E-01  0.00000000000E+00 0.  1.
     999901    1    3    3    0    0 -0.26056522226E-01 -0.11141066698E+00 -0.64757100363E-01  0.88976668915E+00  0.88000000000E+00 0. -1.
        -11    1    4    4    0    0  0.13471686548E-01  0.18890896423E-01 -0.47108176388E-02  0.23681326608E-01  0.51100000000E-03 0.  1.
         11    1    4    4    0    0  0.84877180927E-02  0.10045823767E+00  0.59370723920E-01  0.11700018314E+00  0.51100000000E-03 0. -1.
</event>
<event>
 8    1  0.2077555E+004  0.1043930E+01  0.7957747E-01            NaN
         13   -1    0    0    0    0  0.00000000000E+00  0.00000000000E+00  0.74505805969E-08  0.10566000000E+00  0.10566000000E+00 0. -1.
     999900   -1    0    0    0    0 -0.00000000000E+00 -0.00000000000E+00 -0.74505805969E-08  0.93827000000E+00  0.93827000000E+00 0.  1.
     999902    2    1    2    0    0 -0.11194615651E-01 -0.77265150700E-02 -0.32522620059E-02  0.10299444481E+01  0.10298494892E+01 0.  0.
     999903    2    3    3    0    0 -0.10693647485E+00 -0.35360243080E-01  0.70566219239E-01  0.14124917144E+00  0.47811930412E-01 0.  0.
         14    1    1    2    0    0  0.11194615651E-01  0.77265150700E-02  0.32522620059E-02  0.13985551933E-01  0.00000000000E+00 0. -1.
     999901    1    3    3    0    0  0.95741859203E-01  0.27633728010E-01 -0.73818481245E-01  0.88869527663E+00  0.88000000000E+00 0.  1.
        -11    1    4    4    0    0 -0.27506117479E-01 -0.26732349739E-01  0.40758977905E-01  0.55971067724E-01  0.51100000000E-03 0. -1.
         11    1    4    4    0    0 -0.79430357376E-01 -0.86278933403E-02  0.29807241334E-01  0.85278103716E-01  0.51100000000E-03 0.  1.
</event>
<event>
 8    1  0.2077555E+004  0.1043930E+01  0.7957747E-01            NaN
         13   -1    0    0    0    0  0.00000000000E+00  0.00000000000E+00  0.74505805969E-08  0.10566000000E+00  0.10566000000E+00 0. -1.
     999900   -1    0    0    0    0 -0.00000000000E+00 -0.00000000000E+00 -0.74505805969E-08  0.93827000000E+00  0.93827000000E+00 0.  1.
     999902    2    1    2    0    0  0.14485664596E-01 -0.54023859281E-02  0.34448055897E-02  0.10280905891E+01  0.10279685659E+01 0.  0.
     999903    2    3    3    0    0  0.10904854277E+00 -0.16550376115E-01 -0.68652064502E-01  0.14002281336E+00  0.52228178896E-01 0.  0.
         14    1    1    2    0    0 -0.14485664596E-01  0.54023859281E-02 -0.34448055897E-02  0.15839410912E-01  0.00000000000E+00 0.  1.
     999901    1    3    3    0    0 -0.94562878173E-01  0.11147990187E-01  0.72096870091E-01  0.88806777573E+00  0.88000000000E+00 0. -1.
        -11    1    4    4    0    0  0.73986347074E-01  0.12003402936E-01 -0.30747181073E-01  0.81016735927E-01  0.51100000000E-03 0.  1.
         11    1    4    4    0    0  0.35062195694E-01 -0.28553779051E-01 -0.37904883428E-01  0.59006077430E-01  0.51100000000E-03 0. -1.
</event>
<event>
 8    1  0.2077555E+004  0.1043930E+01  0.7957747E-01            NaN
         13   -1    0    0    0    0  0.00000000000E+00  0.00000000000E+00  0.74505805969E-08  0.10566000000E+00  0.10566000000E+00 0.  1.
     999900   -1    0    0    0    0 -0.00000000000E+00 -0.00000000000E+00 -0.74505805969E-08  0.93827000000E+00  0.93827000000E+00 0. -1.
     999902    2    1    2    0    0 -0.83779101439E-02 -0.45336086787E-02 -0.43189891860E-02  0.10334707145E+01  0.10334177863E+01 0.  0.
     999903    2    3    3    0    0 -0.20906739164E-01  0.10382579481E+00 -0.84553353538E-01  0.14311332270E+00  0.45992022443E-01 0.  0.
         14    1    1    2    0    0  0.83779101439E-02  0.45336086787E-02  0.43189891860E-02  0.10459285521E-01  0.00000000000E+00 0. -1.
     999901    1    3    3    0    0  0.12528829020E-01 -0.10835940349E+00  0.80234364352E-01  0.89035739178E+00  0.88000000000E+00 0. -1.
        -11    1    4    4    0    0  0.11637277210E-01  0.31764947979E-01 -0.12291463918E-01  0.35996935248E-01  0.51100000000E-03 0.  1.
         11    1    4    4    0    0 -0.32544016374E-01  0.72060846829E-01 -0.72261889619E-01  0.10711638745E+00  0.51100000000E-03 0. -1.
</event>
<event>
 8    1  0.2077555E+004  0.1043930E+01  0.7957747E-01            NaN
         13   -1    0    0    0    0  0.00000000000E+00  0.00000000000E+00  0.74505805969E-08  0.10566000000E+00  0.10566000000E+00 0.  1.
     999900   -1    0    0    0    0 -0.00000000000E+00 -0.00000000000E+00 -0.74505805969E-08  0.93827000000E+00  0.93827000000E+00 0.  1.
     999902    2    1    2    0    0 -0.12531718013E-01 -0.18048667543E-02 -0.59053996826E-02  0.10299594866E+01  0.10298647332E+01 0.  0.
     999903    2    3    3    0    0  0.32716559103E-01  0.63453872200E-01 -0.11192370592E+00  0.14004601276E+00  0.44600477656E-01 0.  0.
         14    1    1    2    0    0  0.12531718013E-01  0.18048667543E-02  0.59053996826E-02  0.13970513440E-01  0.00000000000E+00 0. -1.
     999901    1    3    3    0    0 -0.45248277116E-01 -0.65258738955E-01  0.10601830624E+00  0.88991347380E+00  0.88000000000E+00 0. -1.
        -11    1    4    4    0    0  0.43833323518E-01  0.48305997456E-01 -0.83281741120E-01  0.10578723536E+00  0.51100000000E-03 0. -1.
         11    1    4    4    0    0 -0.11116764415E-01  0.15147874744E-01 -0.28641964798E-01  0.34258777398E-01  0.51100000000E-03 0.  1.
</event>
<event>
 8    1  0.2077555E+004  0.1043930E+01  0.7957747E-01            NaN
         13   -1    0    0    0    0  0.00000000000E+00  0.00000000000E+00  0.74505805969E-08  0.10566000000E+00  0.10566000000E+00 0. -1.
     999900   -1    0    0    0    0 -0.00000000000E+00 -0.00000000000E+00 -0.74505805969E-08  0.93827000000E+00  0.93827000000E+00 0. -1.
     999902    2    1    2    0    0  0.10993787828E-01 -0.70679703506E-02 -0.36565516517E-02  0.10303583403E+01  0.10302689550E+01 0.  0.
     999903    2    3    3    0    0 -0.86341178980E-01 -0.97890222503E-01 -0.18007843814E-01  0.14022984578E+00  0.47987835548E-01 0.  0.
         14    1    1    2    0    0 -0.10993787828E-01  0.70679703506E-02  0.36565516517E-02  0.13571659650E-01  0.00000000000E+00 0. -1.
     999901    1    3    3    0    0  0.97334966808E-01  0.90822252153E-01  0.14351292162E-01  0.89012849456E+00  0.88000000000E+00 0. -1.
        -11    1    4    4    0    0 -0.15171035232E-01 -0.14152423415E-01  0.14857028441E-01  0.25523397376E-01  0.51100000000E-03 0. -1.
         11    1    4    4    0    0 -0.71170143748E-01 -0.83737799089E-01 -0.32864872254E-01  0.11470644841E+00  0.51100000000E-03 0.  1.
</event>
<event>
 8    1  0.2077555E+004  0.1043930E+01  0.7957747E-01            NaN
         13   -1    0    0    0    0  0.00000000000E+00  0.00000000000E+00  0.74505805969E-08  0.10566000000E+00  0.10566000000E+00 0.  1.
     999900   -1    0    0    0    0 -0.00000000000E+00 -0.00000000000E+00 -0.74505805969E-08  0.93827000000E+00  0.93827000000E+00 0.  1.
     999902    2    1    2    0    0  0.98473995281E-02 -0.10119959070E-01  0.56840382133E-03  0.10297981943E+01  0.10297012252E+01 0.  0.
     999903    2    3    3    0    0 -0.65612121802E-01 -0.97870185768E-01  0.60655336377E-01  0.14018890867E+00  0.45720197862E-01 0.  0.
         14    1    1    2    0    0 -0.98473995281E-02  0.10119959070E-01 -0.56840382133E-03  0.14131805686E-01  0.00000000000E+00 0. -1.
     999901    1    3    3    0    0  0.75459521330E-01  0.87750226698E-01 -0.60086932556E-01  0.88960928565E+00  0.88000000000E+00 0. -1.
        -11    1    4    4    0    0  0.22745416158E-02 -0.20648551994E-01 -0.61123714851E-04  0.20779824256E-01  0.51100000000E-03 0. -1.
         11    1    4    4    0    0 -0.67886663417E-01 -0.77221633775E-01  0.60716460092E-01  0.11940908441E+00  0.51100000000E-03 0.  1.
</event>
<event>
 8    1  0.2077555E+004  0.1043930E+01  0.7957747E-01            NaN
         13   -1    0    0    0    0  0.00000000000E+00  0.00000000000E+00  0.74505805969E-08  0.10566000000E+00  0.10566000000E+00 0.  1.
     999900   -1    0    0    0    0 -0.00000000000E+00 -0.00000000000E+00 -0.74505805969E-08  0.93827000000E+00  0.93827000000E+00 0.  1.
     999902    2    1    2    0    0  0.21198320687E-02 -0.11908078689E-02 -0.13081474139E-01  0.10306244870E+01  0.10305385953E+01 0.  0.
     999903    2    3    3    0    0  0.81592943072E-01  0.73671386158E-01  0.73190629200E-01  0.13969059532E+00  0.45516071024E-01 0.  0.
         14    1    1    2    0    0 -0.21198320687E-02  0.11908078689E-02  0.13081474139E-01  0.13305513031E-01  0.00000000000E+00 0.  1.
     999901    1    3    3    0    0 -0.79473111003E-01 -0.74862194027E-01 -0.86272103339E-01  0.89093389164E+00  0.88000000000E+00 0.  1.
        -11    1    4    4    0    0  0.36664486893E-01  0.60990519607E-02  0.29984784648E-01  0.47758051314E-01  0.51100000000E-03 0.  1.
         11    1    4    4    0    0  0.44928456179E-01  0.67572334198E-01  0.43205844552E-01  0.91932544009E-01  0.51100000000E-03 0. -1.
</event>
<event>
 8    1  0.2077555E+004  0.1043930E+01  0.7957747E-01            NaN
         13   -1    0    0    0    0  0.00000000000E+00  0.00000000000E+00  0.74505805969E-08  0.10566000000E+00  0.10566000000E+00 0. -1.
     999900   -1    0    0    0    0 -0.00000000000E+00 -0.00000000000E+00 -0.74505805969E-08  0.93827000000E+00  0.93827000000E+00 0. -1.
     999902    2    1    2    0    0 -0.61522740328E-02 -0.62848100977E-02 -0.11509119404E-01  0.10294452099E+01  0.10293433009E+01 0.  0.
     999903    2    3    3    0    0 -0.12596535269E+00  0.54287612059E-02  0.40627583343E-01  0.13972018649E+00  0.44434091185E-01 0.  0.
         14    1    1    2    0    0  0.61522740328E-02  0.62848100977E-02  0.11509119404E-01  0.14484790064E-01  0.00000000000E+00 0. -1.
     999901    1    3    3    0    0  0.11981307865E+00 -0.11713571304E-01 -0.52136702747E-01  0.88972502344E+00  0.88000000000E+00 0. -1.
        -11    1    4    4    0    0 -0.63017008466E-01  0.36812086607E-02  0.43527889488E-01  0.76678764579E-01  0.51100000000E-03 0. -1.
         11    1    4    4    0    0 -0.62948344221E-01  0.17475525451E-02 -0.29003061450E-02  0.63041421913E-01  0.51100000000E-03 0.  1.
</event>
<event>
 8    1  0.2077555E+004  0.1043930E+01  0.7957747E-01            NaN
         13   -1    0    0    0    0  0.00000000000E+00  0.00000000000E+00  0.74505805969E-08  0.10566000000E+00  0.10566000000E+00 0. -1.
     999900   -1    0    0    0    0 -0.00000000000E+00 -0.00000000000E+00 -0.74505805969E-08  0.93827000000E+00  0.93827000000E+00 0. -1.
     999902    2    1    2    0    0 -0.69053957011E-02  0.86408469780E-02  0.40111516092E-02  0.10321640294E+01  0.10320969652E+01 0.  0.
     999903    2    3    3    0    0 -0.25139504016E-01  0.70711667978E-01 -0.11202964103E+00  0.14219170678E+00  0.45118802702E-01 0.  0.
         14    1    1    2    0    0  0.69053957011E-02 -0.86408469780E-02 -0.40111516092E-02  0.11765970573E-01  0.00000000000E+00 0. -1.
     999901    1    3    3    0    0  0.18234108315E-01 -0.62070821000E-01  0.11604079264E+00  0.88997232265E+00  0.88000000000E+00 0.  1.
        -11    1    4    4    0    0  0.12846537030E-02  0.54886593841E-01 -0.57100292752E-01  0.79214222662E-01  0.51100000000E-03 0. -1.
         11    1    4    4    0    0 -0.26424157719E-01  0.15825074138E-01 -0.54929348275E-01  0.62977484116E-01  0.51100000000E-03 0.  1.
</event>
<event>
 8    1  0.2077555E+004  0.1043930E+01  0.7957747E-01            NaN
         13   -1    0    0    0    0  0.00000000000E+00  0.00000000000E+00  0.74505805969E-08  0.10566000000E+00  0.10566000000E+00 0.  1.
     999900   -1    0    0    0    0 -0.00000000000E+00 -0.00000000000E+00 -0.74505805969E-08  0.93827000000E+00  0.93827000000E+00 0. -1.
     999902    2    1    2    0    0 -0.15191692787E-01  0.43901454955E-02  0.11513730090E-01  0.10243691491E+01  0.10241823699E+01 0.  0.
     999903    2    3    3    0    0 -0.33866432536E-01 -0.49282943738E-01  0.11400515995E+00  0.13660001267E+00  0.45679789499E-01 0.  0.
         14    1    1    2    0    0  0.15191692787E-01 -0.43901454955E-02 -0.11513730090E-01  0.19560850896E-01  0.00000000000E+00 0. -1.
     999901    1    3    3    0    0  0.18674739750E-01  0.53673089234E-01 -0.10249142986E+00  0.88776913644E+00  0.88000000000E+00 0. -1.
        -11    1    4    4    0    0 -0.28700717563E-01 -0.14282608484E-01  0.85006028893E-01  0.90851583161E-01  0.51100000000E-03 0.  1.
         11    1    4    4    0    0 -0.51657149735E-02 -0.35000335254E-01  0.28999131061E-01  0.45748429507E-01  0.51100000000E-03 0. -1.
</event>
<event>
 8    1  0.2077555E+004  0.1043930E+01  0.7957747E-01            NaN
         13   -1    0    0    0    0  0.00000000000E+00  0.00000000000E+00  0.74505805969E-08  0.10566000000E+00  0.10566000000E+00 0. -1.
     999900   -1    0    0    0    0 -0.00000000000E+00 -0.00000000000E+00 -0.74505805969E-08  0.93827000000E+00  0.93827000000E+00 0.  1.
     999902    2    1    2    0    0  0.11634795247E-01  0.12494501237E-01 -0.75816018800E-02  0.10252494832E+01  0.10250792853E+01 0.  0.
     999903    2    3    3    0    0  0.10662433382E+00  0.39693337596E-01 -0.63582986649E-01  0.13795080504E+00  0.45203084043E-01 0.  0.
         14    1    1    2    0    0 -0.11634795247E-01 -0.12494501237E-01  0.75816018800E-02  0.18680516820E-01  0.00000000000E+00 0. -1.
     999901    1    3    3    0    0 -0.94989538573E-01 -0.27198836359E-01  0.56001384769E-01  0.88729867814E+00  0.88000000000E+00 0. -1.
        -11    1    4    4    0    0  0.99921523620E-02  0.20884047429E-01 -0.18654843027E-01  0.29736355446E-01  0.51100000000E-03 0.  1.
         11    1    4    4    0    0  0.96632181458E-01  0.18809290167E-01 -0.44928143622E-01  0.10821444959E+00  0.51100000000E-03 0. -1.
</event>
<event>
 8    1  0.2077555E+004  0.1043930E+01  0.7957747E-01            NaN
         13   -1    0    0    0    0  0.00000000000E+00  0.00000000000E+00  0.74505805969E-08  0.10566000000E+00  0.10566000000E+00 0.  1.
     999900   -1    0    0    0    0 -0.00000000000E+00 -0.00000000000E+00 -0.74505805969E-08  0.93827000000E+00  0.93827000000E+00 0. -1.
     999902    2    1    2    0    0  0.13231663857E-01 -0.27470399489E-04  0.53711885430E-02  0.10296496866E+01  0.10295506543E+01 0.  0.
     999903    2    3    3    0    0 -0.72309580933E-01 -0.10256937136E+00  0.38422874056E-01  0.13896199732E+00  0.45661449956E-01 0.  0.
         14    1    1    2    0    0 -0.13231663857E-01  0.27470399489E-04 -0.53711885430E-02  0.14280313352E-01  0.00000000000E+00 0. -1.
     999901    1    3    3    0    0  0.85541244790E-01  0.10254190096E+00 -0.33051685513E-01  0.89068768933E+00  0.88000000000E+00 0. -1.
        -11    1    4    4    0    0 -0.30712046209E-01 -0.73894794505E-01  0.37629009670E-01  0.88430051040E-01  0.51100000000E-03 0.  1.
         11    1    4    4    0    0 -0.41597534724E-01 -0.28674576853E-01  0.79386438606E-03  0.50531946276E-01  0.51100000000E-03 0. -1.
</event>
<event>
 8    1  0.2077555E+004  0.1043930E+01  0.7957747E-01            NaN
         13   -1    0    0    0    0  0.00000000000E+00  0.00000000000E+00  0.74505805969E-08  0.10566000000E+00  0.10566000000E+00 0.  1.
     999900   -1    0    0    0    0 -0.00000000000E+00 -0.00000000000E+00 -0.74505805969E-08  0.93827000000E+00  0.93827000000E+00 0.  1.
     999902    2    1    2    0    0  0.14918050713E-01 -0.20468115276E-02  0.97205842892E-02  0.10260071812E+01  0.10258506268E+01 0.  0.
     999903    2    3    3    0    0  0.80168837814E-01 -0.36890498959E-01 -0.94389779762E-01  0.13678802055E+00  0.44872938102E-01 0.  0.
         14    1    1    2    0    0 -0.14918050713E-01  0.20468115276E-02 -0.97205842892E-02  0.17922818792E-01  0.00000000000E+00 0.  1.
     999901    1    3    3    0    0 -0.65250787100E-01  0.34843687431E-01  0.10411036405E+00  0.88921916065E+00  0.88000000000E+00 0. -1.
        -11    1    4    4    0    0  0.35472478862E-01 -0.40723218235E-01 -0.48050547943E-01  0.72289650287E-01  0.51100000000E-03 0.  1.
         11    1    4    4    0    0  0.44696358951E-01  0.38327192761E-02 -0.46339231819E-01  0.64498370267E-01  0.51100000000E-03 0. -1.
</event>
<event>
 8    1  0.2077555E+004  0.1043930E+01  0.7957747E-01            NaN
         13   -1    0    0    0    0  0.00000000000E+00  0.00000000000E+00  0.74505805969E-08  0.10566000000E+00  0.10566000000E+00 0. -1.
     999900   -1    0    0    0    0 -0.00000000000E+00 -0.00000000000E+00 -0.74505805969E-08  0.93827000000E+00  0.93827000000E+00 0.  1.
     999902    2    1    2    0    0  0.50945975470E-02  0.12266582243E-01  0.50691982961E-02  0.10297130828E+01  0.10296149339E+01 0.  0.
     999903    2    3    3    0    0 -0.12664216750E+00 -0.12068524970E-01 -0.34093111795E-01  0.13871338623E+00  0.43533611894E-01 0.  0.
         14    1    1    2    0    0 -0.50945975470E-02 -0.12266582243E-01 -0.50691982961E-02  0.14216917227E-01  0.00000000000E+00 0. -1.
     999901    1    3    3    0    0  0.13173676504E+00  0.24335107212E-01  0.39162310091E-01  0.89099969654E+00  0.88000000000E+00 0. -1.
        -11    1    4    4    0    0 -0.46718542429E-01  0.70831631657E-02 -0.30904731621E-01  0.56463766831E-01  0.51100000000E-03 0. -1.
         11    1    4    4    0    0 -0.79923625067E-01 -0.19151688135E-01 -0.31883801742E-02  0.82249619400E-01  0.51100000000E-03 0.  1.
</event>
<event>
 8    1  0.2077555E+004  0.1043930E+01  0.7957747E-01            NaN
         13   -1    0    0    0    0  0.00000000000E+00  0.00000000000E+00  0.74505805969E-08  0.10566000000E+00  0.10566000000E+00 0. -1.
     999900   -1    0    0    0    0 -0.00000000000E+00 -0.00000000000E+00 -0.74505805969E-08  0.93827000000E+00  0.93827000000E+00 0.  1.
     999902    2    1    2    0    0 -0.61596705619E-02  0.41487433021E-02 -0.12169458401E-01  0.10296734461E+01  0.10295747453E+01 0.  0.
     999903    2    3    3    0    0  0.62779631317E-01  0.39036148762E-01 -0.11104386435E+00  0.14077192927E+00  0.44954346201E-01 0.  0.
         14    1    1    2    0    0  0.61596705619E-02 -0.41487433021E-02  0.12169458401E-01  0.14256553938E-01  0.00000000000E+00 0. -1.
     999901    1    3    3    0    0 -0.68939301879E-01 -0.34887405460E-01  0.98874405949E-01  0.88890151679E+00  0.88000000000E+00 0. -1.
        -11    1    4    4    0    0  0.59167231066E-01  0.15595019302E-01 -0.91293478167E-01  0.10990325808E+00  0.51100000000E-03 0.  1.
         11    1    4    4    0    0  0.36124002512E-02  0.23441129460E-01 -0.19750386182E-01  0.30868671194E-01  0.51100000000E-03 0. -1.
</event>
<event>
 8    1  0.2077555E+004  0.1043930E+01  0.7957747E-01            NaN
         13   -1    0    0    0    0  0.00000000000E+00  0.00000000000E+00  0.74505805969E-08  0.10566000000E+00  0.10566000000E+00 0.  1.
     999900   -1    0    0    0    0 -0.00000000000E+00 -0.00000000000E+00 -0.74505805969E-08  0.93827000000E+00  0.93827000000E+00 0.  1.
     999902    2    1    2    0    0 -0.43153071050E-02  0.56897725350E-02 -0.14430036451E-01  0.10278296479E+01  0.10277035388E+01 0.  0.
     999903    2    3    3    0    0 -0.95708791328E-01 -0.10290601244E-01 -0.89979214603E-01  0.13973290785E+00  0.46507604371E-01 0.  0.
         14    1    1    2    0    0  0.43153071050E-02 -0.56897725350E-02  0.14430036451E-01  0.16100352135E-01  0.00000000000E+00 0. -1.
     999901    1    3    3    0    0  0.91393484223E-01  0.15980373779E-01  0.75549178152E-01  0.88809674001E+00  0.88000000000E+00 0. -1.
        -11    1    4    4    0    0 -0.56683046307E-01  0.82352176744E-02 -0.26912718502E-01  0.63287772018E-01  0.51100000000E-03 0.  1.
         11    1    4    4    0    0 -0.39025745021E-01 -0.18525818919E-01 -0.63066496101E-01  0.76445135833E-01  0.51100000000E-03 0. -1.
</event>
<event>
 8    1  0.2077555E+004  0.1043930E+01  0.7957747E-01            NaN
         13   -1    0    0    0    0  0.00000000000E+00  0.00000000000E+00  0.74505805969E-08  0.10566000000E+00  0.10566000000E+00 0. -1.
     999900   -1    0    0    0    0 -0.00000000000E+00 -0.00000000000E+00 -0.74505805969E-08  0.93827000000E+00  0.93827000000E+00 0.  1.
     999902    2    1    2    0    0  0.14303801737E-01 -0.17207671895E-02  0.51616191349E-02  0.10286263372E+01  0.10285124887E+01 0.  0.
     999903    2    3    3    0    0  0.99176650784E-01 -0.24020664602E-01 -0.84094461425E-01  0.13976901800E+00  0.45282442089E-01 0.  0.
         14    1    1    2    0    0 -0.14303801737E-01  0.17207671895E-02 -0.51616191349E-02  0.15303662828E-01  0.00000000000E+00 0. -1.
     999901    1    3    3    0    0 -0.84872849047E-01  0.22299897413E-01  0.89256080560E-01  0.88885731917E+00  0.88000000000E+00 0. -1.
        -11    1    4    4    0    0  0.42229443839E-01  0.55172807792E-02 -0.14201467070E-01  0.44896649119E-01  0.51100000000E-03 0.  1.
         11    1    4    4    0    0  0.56947206945E-01 -0.29537945381E-01 -0.69892994355E-01  0.94872368881E-01  0.51100000000E-03 0. -1.
</event>
<event>
 8    1  0.2077555E+004  0.1043930E+01  0.7957747E-01            NaN
         13   -1    0    0    0    0  0.00000000000E+00  0.00000000000E+00  0.74505805969E-08  0.10566000000E+00  0.10566000000E+00 0. -1.
     999900   -1    0    0    0    0 -0.00000000000E+00 -0.00000000000E+00 -0.74505805969E-08  0.93827000000E+00  0.93827000000E+00 0. -1.
     999902    2    1    2    0    0  0.39287080913E-02 -0.69967267504E-02  0.12908797626E-01  0.10287304609E+01  0.10286181678E+01 0.  0.
     999903    2    3    3    0    0 -0.11402539431E+00  0.46433634148E-01 -0.45402015967E-01  0.13734495243E+00  0.40551448511E-01 0.  0.
         14    1    1    2    0    0 -0.39287080913E-02  0.69967267504E-02 -0.12908797626E-01  0.15199539093E-01  0.00000000000E+00 0.  1.
     999901    1    3    3    0    0  0.11795410240E+00 -0.53430360898E-01  0.58310813592E-01  0.89138550848E+00  0.88000000000E+00 0.  1.
        -11    1    4    4    0    0 -0.45425345798E-01 -0.22444910561E-02 -0.17152717672E-01  0.48610457985E-01  0.51100000000E-03 0. -1.
         11    1    4    4    0    0 -0.68600048514E-01  0.48678125204E-01 -0.28249298295E-01  0.88734494446E-01  0.51100000000E-03 0.  1.
</event>
<event>
 7    1  0.2077555E+004  0.1043930E+01  0.7957747E-01            NaN
         13   -1    0    0    0    0  0.00000000000E+00  0.00000000000E+00  0.74505805969E-08  0.10566000000E+00  0.10566000000E+00 0.  1.
     999900   -1    0    0    0    0 -0.00000000000E+00 -0.00000000000E+00 -0.74505805969E-08  0.93827000000E+00  0.93827000000E+00 0. -1.
     999902    2    1    2    0    0 -0.94328780334E-02  0.46793898451E-02  0.92323051289E-02  0.10299260243E+01  0.10298308134E+01 0.  0.
         14    1    1    2    0    0  0.94328780334E-02 -0.46793898451E-02 -0.92323051289E-02  0.14003975697E-01  0.00000000000E+00 0. -1.
     999901    1    3    3    0    0 -0.54822228153E-02  0.10102855171E+00 -0.73856790917E-01  0.88887099660E+00  0.88000000000E+00 0.  1.
        -11    1    3    3    0    0  0.39750837723E-02 -0.36848402536E-01  0.70603841463E-01  0.79741893699E-01  0.51100000000E-03 0. -1.
         11    1    3    3    0    0 -0.79257389904E-02 -0.59500759325E-01  0.12485254583E-01  0.61313134007E-01  0.51100000000E-03 0.  1.
</event>
<event>
 8    1  0.2077555E+004  0.1043930E+01  0.7957747E-01            NaN
         13   -1    0    0    0    0  0.00000000000E+00  0.00000000000E+00  0.74505805969E-08  0.10566000000E+00  0.10566000000E+00 0. -1.
     999900   -1    0    0    0    0 -0.00000000000E+00 -0.00000000000E+00 -0.74505805969E-08  0.93827000000E+00  0.93827000000E+00 0. -1.
     999902    2    1    2    0    0  0.12836461863E-01  0.45933666233E-02 -0.22651629944E-02  0.10301095538E+01  0.10300168387E+01 0.  0.
     999903    2    3    3    0    0 -0.10326332443E+00  0.81758613266E-01  0.29372708860E-03  0.13913245892E+00  0.44832687098E-01 0.  0.
         14    1    1    2    0    0 -0.12836461863E-01 -0.45933666233E-02  0.22651629944E-02  0.13820446212E-01  0.00000000000E+00 0.  1.
     999901    1    3    3    0    0  0.11609978630E+00 -0.77165246643E-01 -0.25588900830E-02  0.89097709487E+00  0.88000000000E+00 0.  1.
        -11    1    4    4    0    0 -0.41225986527E-01  0.15506831710E-01 -0.16100709654E-01  0.46899229921E-01  0.51100000000E-03 0.  1.
         11    1    4    4    0    0 -0.62037337906E-01  0.66251781556E-01  0.16394436743E-01  0.92233228995E-01  0.51100000000E-03 0. -1.
</event>
<event>
 8    1  0.2077555E+004  0.1043930E+01  0.7957747E-01            NaN
         13   -1    0    0    0    0  0.00000000000E+00  0.00000000000E+00  0.74505805969E-08  0.10566000000E+00  0.10566000000E+00 0.  1.
     999900   -1    0    0    0    0 -0.00000000000E+00 -0.00000000000E+00 -0.74505805969E-08  0.93827000000E+00  0.93827000000E+00 0. -1.
     999902    2    1    2    0    0  0.69313945264E-02  0.11364628491E-01 -0.11345031800E-01  0.10264397525E+01  0.10262907272E+01 0.  0.
     999903    2    3    3    0    0 -0.86286833214E-01  0.28149355243E-01  0.90003853686E-01  0.13557334186E+00  0.45184439324E-01 0.  0.
         14    1    1    2    0    0 -0.69313945264E-02 -0.11364628491E-01  0.11345031800E-01  0.17490247493E-01  0.00000000000E+00 0.  1.
     999901    1    3    3    0    0  0.93218227741E-01 -0.16784726751E-01 -0.10134888549E+00  0.89086641065E+00  0.88000000000E+00 0. -1.
        -11    1    4    4    0    0 -0.55469655624E-01  0.10689885559E-01  0.25496120924E-01  0.61979590604E-01  0.51100000000E-03 0.  1.
         11    1    4    4    0    0 -0.30817177590E-01  0.17459469684E-01  0.64507732762E-01  0.73593751252E-01  0.51100000000E-03 0. -1.
</event>
<event>
 8    1  0.2077555E+004  0.1043930E+01  0.7957747E-01            NaN
         13   -1    0    0    0    0  0.00000000000E+00  0.00000000000E+00  0.74505805969E-08  0.10566000000E+00  0.10566000000E+00 0. -1.
     999900   -1    0    0    0    0 -0.00000000000E+00 -0.00000000000E+00 -0.74505805969E-08  0.93827000000E+00  0.93827000000E+00 0. -1.
     999902    2    1    2    0    0  0.11066824147E-01  0.80183002484E-02 -0.19733899641E-02  0.10301219587E+01  0.10300294112E+01 0.  0.
     999903    2    3    3    0    0 -0.49963032441E-01 -0.78012717691E-01 -0.91416291541E-01  0.13932118860E+00  0.49710828803E-01 0.  0.
         14    1    1    2    0    0 -0.11066824147E-01 -0.80183002484E-02  0.19733899641E-02  0.13808041263E-01  0.00000000000E+00 0. -1.
     999901    1    3    3    0    0  0.61029856588E-01  0.86031017939E-01  0.89442901577E-01  0.89080077014E+00  0.88000000000E+00 0.  1.
        -11    1    4    4    0    0  0.70610545228E-02 -0.23847699459E-01 -0.33119321177E-01  0.41421272514E-01  0.51100000000E-03 0. -1.
         11    1    4    4    0    0 -0.57024086964E-01 -0.54165018232E-01 -0.58296970364E-01  0.97899916082E-01  0.51100000000E-03 0.  1.
</event>
<event>
 8    1  0.2077555E+004  0.1043930E+01  0.7957747E-01            NaN
         13   -1    0    0    0    0  0.00000000000E+00  0.00000000000E+00  0.74505805969E-08  0.10566000000E+00  0.10566000000E+00 0. -1.
     999900   -1    0    0    0    0 -0.00000000000E+00 -0.00000000000E+00 -0.74505805969E-08  0.93827000000E+00  0.93827000000E+00 0. -1.
     999902    2    1    2    0    0  0.16376535504E-02  0.12194128271E-01  0.78134297152E-02  0.10293550778E+01  0.10292518875E+01 0.  0.
     999903    2    3    3    0    0 -0.54345491406E-01 -0.18158911103E-02  0.12133296985E+00  0.14018856968E+00  0.44434396574E-01 0.  0.
         14    1    1    2    0    0 -0.16376535504E-02 -0.12194128271E-01 -0.78134297152E-02  0.14574922207E-01  0.00000000000E+00 0.  1.
     999901    1    3    3    0    0  0.55983144957E-01  0.14010019381E-01 -0.11351954013E+00  0.88916650812E+00  0.88000000000E+00 0. -1.
        -11    1    4    4    0    0 -0.42814469266E-01  0.13700635212E-01  0.10717282186E+00  0.11621988234E+00  0.51100000000E-03 0.  1.
         11    1    4    4    0    0 -0.11531022140E-01 -0.15516526322E-01  0.14160147985E-01  0.23968687337E-01  0.51100000000E-03 0. -1.
</event>
<event>
 8    1  0.2755047E+004  0.1043930E+01  0.7957747E-01            NaN
         13   -1    0    0    0    0  0.00000000000E+00  0.00000000000E+00  0.74505805969E-08  0.10566000000E+00  0.10566000000E+00 0.  1.
     999900   -1    0    0    0    0 -0.00000000000E+00 -0.00000000000E+00 -0.74505805969E-08  0.93827000000E+00  0.93827000000E+00 0.  1.
     999902    2    1    2    0    0  0.21007599171E-01 -0.63164833209E-02 -0.12632855754E-02  0.10219569921E+01  0.10217207450E+01 0.  0.
     999903    2    3    3    0    0  0.13553209396E-01  0.23720230366E-01  0.12237669682E+00  0.13277499875E+00  0.43666984728E-01 0.  0.
         14    1    1    2    0    0 -0.21007599171E-01  0.63164833209E-02  0.12632855754E-02  0.21973007871E-01  0.00000000000E+00 0. -1.
     999901    1    3    3    0    0  0.74543897755E-02 -0.30036713687E-01 -0.12363998240E+00  0.88918199338E+00  0.88000000000E+00 0.  1.
        -11    1    4    4    0    0  0.17908922647E-01  0.35047604510E-01  0.93764317354E-01  0.10169106363E+00  0.51100000000E-03 0. -1.
         11    1    4    4    0    0 -0.43557132514E-02 -0.11327374144E-01  0.28612379468E-01  0.31083935123E-01  0.51100000000E-03 0.  1.
</event>
<event>
 8    1  0.2077555E+004  0.1043930E+01  0.7957747E-01            NaN
         13   -1    0    0    0    0  0.00000000000E+00  0.00000000000E+00  0.74505805969E-08  0.10566000000E+00  0.10566000000E+00 0.  1.
     999900   -1    0    0    0    0 -0.00000000000E+00 -0.00000000000E+00 -0.74505805969E-08  0.93827000000E+00  0.93827000000E+00 0.  1.
     999902    2    1    2    0    0 -0.67570051054E-02 -0.11542888528E-01  0.60021531188E-02  0.10292698078E+01  0.10291653978E+01 0.  0.
     999903    2    3    3    0    0  0.70433035206E-01 -0.96290777140E-01  0.60087842694E-01  0.14018838927E+00  0.42538329009E-01 0.  0.
         14    1    1    2    0    0  0.67570051054E-02  0.11542888528E-01 -0.60021531188E-02  0.14660192209E-01  0.00000000000E+00 0.  1.
     999901    1    3    3    0    0 -0.77190040312E-01  0.84747888613E-01 -0.54085689575E-01  0.88908141852E+00  0.88000000000E+00 0.  1.
        -11    1    4    4    0    0  0.44497338116E-03 -0.30729696947E-01  0.15673377676E-01  0.34502581999E-01  0.51100000000E-03 0. -1.
         11    1    4    4    0    0  0.69988061825E-01 -0.65561080193E-01  0.44414465018E-01  0.10568580727E+00  0.51100000000E-03 0.  1.
</event>
<event>
 8    1  0.2077555E+004  0.1043930E+01  0.7957747E-01            NaN
         13   -1    0    0    0    0  0.00000000000E+00  0.00000000000E+00  0.74505805969E-08  0.10566000000E+00  0.10566000000E+00 0. -1.
     999900   -1    0    0    0    0 -0.00000000000E+00 -0.00000000000E+00 -0.74505805969E-08  0.93827000000E+00  0.93827000000E+00 0.  1.
     999902    2    1    2    0    0  0.70608192817E-02  0.49771395772E-03 -0.12099802909E-01  0.10299118647E+01  0.10298164598E+01 0.  0.
     999903    2    3    3    0    0  0.13058969928E-01 -0.11201845859E+00  0.67995261152E-01  0.13911947235E+00  0.44857555535E-01 0.  0.
         14    1    1    2    0    0 -0.70608192817E-02 -0.49771395772E-03  0.12099802909E-01  0.14018135345E-01  0.00000000000E+00 0. -1.
     999901    1    3    3    0    0 -0.59981506461E-02  0.11251617255E+00 -0.80095064061E-01  0.89079239230E+00  0.88000000000E+00 0.  1.
        -11    1    4    4    0    0  0.12059616274E-01 -0.21348586879E-01  0.34766369812E-01  0.42545952773E-01  0.51100000000E-03 0.  1.
         11    1    4    4    0    0  0.99935365341E-03 -0.90669871709E-01  0.33228891341E-01  0.96573519581E-01  0.51100000000E-03 0. -1.
</event>
<event>
 8    1  0.2077555E+004  0.1043930E+01  0.7957747E-01            NaN
         13   -1    0    0    0    0  0.00000000000E+00  0.00000000000E+00  0.74505805969E-08  0.10566000000E+00  0.10566000000E+00 0. -1.
     999900   -1    0    0    0    0 -0.00000000000E+00 -0.00000000000E+00 -0.74505805969E-08  0.93827000000E+00  0.93827000000E+00 0. -1.
     999902    2    1    2    0    0  0.70698578539E-02  0.50912115571E-03 -0.12032865831E-01  0.10299646158E+01  0.10298699325E+01 0.  0.
     999903    2    3    3    0    0 -0.85627739490E-02  0.85619711145E-01  0.98917413595E-01  0.13878665595E+00  0.45530485642E-01 0.  0.
         14    1    1    2    0    0 -0.70698578539E-02 -0.50912115571E-03  0.12032865831E-01  0.13965384152E-01  0.00000000000E+00 0. -1.
     999901    1    3    3    0    0  0.15632631803E-01 -0.85110589990E-01 -0.11095027943E+00  0.89117795990E+00  0.88000000000E+00 0. -1.
        -11    1    4    4    0    0  0.11094703629E-01  0.47589477322E-01  0.29066949097E-01  0.56859471078E-01  0.51100000000E-03 0.  1.
         11    1    4    4    0    0 -0.19657477578E-01  0.38030233823E-01  0.69850464497E-01  0.81927184871E-01  0.51100000000E-03 0. -1.
</event>
<event>
 8    1  0.2077555E+004  0.1043930E+01  0.7957747E-01            NaN
         13   -1    0    0    0    0  0.00000000000E+00  0.00000000000E+00  0.74505805969E-08  0.10566000000E+00  0.10566000000E+00 0. -1.
     999900   -1    0    0    0    0 -0.00000000000E+00 -0.00000000000E+00 -0.74505805969E-08  0.93827000000E+00  0.93827000000E+00 0.  1.
     999902    2    1    2    0    0  0.70016733581E-02  0.11367323848E-01  0.29198568507E-02  0.10302637992E+01  0.10301731557E+01 0.  0.
     999903    2    3    3    0    0  0.58626615684E-01 -0.86608664498E-01  0.81586687133E-01  0.13984092258E+00  0.44282674683E-01 0.  0.
         14    1    1    2    0    0 -0.70016733581E-02 -0.11367323848E-01 -0.29198568507E-02  0.13666200836E-01  0.00000000000E+00 0.  1.
     999901    1    3    3    0    0 -0.51624942326E-01  0.97975988345E-01 -0.78666830282E-01  0.89042287659E+00  0.88000000000E+00 0.  1.
        -11    1    4    4    0    0  0.46862842269E-01 -0.80920803076E-01  0.50862739202E-01  0.10644990238E+00  0.51100000000E-03 0.  1.
         11    1    4    4    0    0  0.11763773416E-01 -0.56878614221E-02  0.30723947931E-01  0.33391020200E-01  0.51100000000E-03 0. -1.
</event>
<event>
 8    1  0.2077555E+004  0.1043930E+01  0.7957747E-01            NaN
         13   -1    0    0    0    0  0.00000000000E+00  0.00000000000E+00  0.74505805969E-08  0.10566000000E+00  0.10566000000E+00 0. -1.
     999900   -1    0    0    0    0 -0.00000000000E+00 -0.00000000000E+00 -0.74505805969E-08  0.93827000000E+00  0.93827000000E+00 0. -1.
     999902    2    1    2    0    0  0.88124895406E-03 -0.12610935625E-01 -0.25656446902E-02  0.10310305880E+01  0.10309498914E+01 0.  0.
     999903    2    3    3    0    0  0.62354031195E-01  0.77686828171E-01  0.86876517201E-01  0.13977726295E+00  0.45463012653E-01 0.  0.
         14    1    1    2    0    0 -0.88124895406E-03  0.12610935625E-01  0.25656446902E-02  0.12899411991E-01  0.00000000000E+00 0. -1.
     999901    1    3    3    0    0 -0.61472782241E-01 -0.90297763795E-01 -0.89442161891E-01  0.89125332506E+00  0.88000000000E+00 0. -1.
        -11    1    4    4    0    0  0.56879751577E-01  0.49937050318E-01  0.41547487840E-01  0.86345063557E-01  0.51100000000E-03 0. -1.
         11    1    4    4    0    0  0.54742796185E-02  0.27749777853E-01  0.45329029361E-01  0.53432199394E-01  0.51100000000E-03 0.  1.
</event>
<event>
 8    1  0.2077555E+004  0.1043930E+01  0.7957747E-01            NaN
         13   -1    0    0    0    0  0.00000000000E+00  0.00000000000E+00  0.74505805969E-08  0.10566000000E+00  0.10566000000E+00 0.  1.
     999900   -1    0    0    0    0 -0.00000000000E+00 -0.00000000000E+00 -0.74505805969E-08  0.93827000000E+00  0.93827000000E+00 0. -1.
     999902    2    1    2    0    0 -0.46776119302E-02 -0.20649010911E-02  0.12620138947E-01  0.10303134007E+01  0.10302234184E+01 0.  0.
     999903    2    3    3    0    0  0.43262320831E-01  0.12492466555E+00 -0.13757129732E-02  0.13979643226E+00  0.45424106152E-01 0.  0.
         14    1    1    2    0    0  0.46776119302E-02  0.20649010911E-02 -0.12620138947E-01  0.13616599316E-01  0.00000000000E+00 0. -1.
     999901    1    3    3    0    0 -0.47939932761E-01 -0.12698956664E+00  0.13995851920E-01  0.89051696843E+00  0.88000000000E+00 0. -1.
        -11    1    4    4    0    0  0.18909264420E-01  0.21753011532E-01  0.15056166566E-01  0.32522347152E-01  0.51100000000E-03 0. -1.
         11    1    4    4    0    0  0.24353056411E-01  0.10317165401E+00 -0.16431879539E-01  0.10727408510E+00  0.51100000000E-03 0.  1.
</event>
<event>
 8    1  0.2077555E+004  0.1043930E+01  0.7957747E-01            NaN
         13   -1    0    0    0    0  0.00000000000E+00  0.00000000000E+00  0.74505805969E-08  0.10566000000E+00  0.10566000000E+00 0. -1.
     999900   -1    0    0    0    0 -0.00000000000E+00 -0.00000000000E+00 -0.74505805969E-08  0.93827000000E+00  0.93827000000E+00 0. -1.
     999902    2    1    2    0    0  0.13762421078E-01  0.24266176719E-02  0.54082735605E-03  0.10299448221E+01  0.10298498683E+01 0.  0.
     999903    2    3    3    0    0  0.11864207749E+00 -0.51085249676E-01 -0.37800769954E-01  0.14127540078E+00  0.42944095859E-01 0.  0.
         14    1    1    2    0    0 -0.13762421078E-01 -0.24266176719E-02 -0.54082735605E-03  0.13985177921E-01  0.00000000000E+00 0.  1.
     999901    1    3    3    0    0 -0.10487965641E+00  0.53511867348E-01  0.38341597310E-01  0.88866942130E+00  0.88000000000E+00 0. -1.
        -11    1    4    4    0    0  0.10085207444E+00 -0.54234902829E-01 -0.20648099961E-01  0.11635794239E+00  0.51100000000E-03 0. -1.
         11    1    4    4    0    0  0.17790003046E-01  0.31496531525E-02 -0.17152669994E-01  0.24917458383E-01  0.51100000000E-03 0.  1.
</event>
<event>
 8    1  0.2077555E+004  0.1043930E+01  0.7957747E-01            NaN
         13   -1    0    0    0    0  0.00000000000E+00  0.00000000000E+00  0.74505805969E-08  0.10566000000E+00  0.10566000000E+00 0. -1.
     999900   -1    0    0    0    0 -0.00000000000E+00 -0.00000000000E+00 -0.74505805969E-08  0.93827000000E+00  0.93827000000E+00 0.  1.
     999902    2    1    2    0    0 -0.60069489106E-03  0.10935860827E-01  0.94598042285E-02  0.10294578964E+01  0.10293561671E+01 0.  0.
     999903    2    3    3    0    0 -0.54036109147E-01  0.10474819777E+00  0.63546805357E-01  0.14121158949E+00  0.44837824515E-01 0.  0.
         14    1    1    2    0    0  0.60069489106E-03 -0.10935860827E-01 -0.94598042285E-02  0.14472103593E-01  0.00000000000E+00 0.  1.
     999901    1    3    3    0    0  0.53435414256E-01 -0.93812336944E-01 -0.54087001129E-01  0.88824630692E+00  0.88000000000E+00 0.  1.
        -11    1    4    4    0    0 -0.30037636195E-01  0.50778856459E-01  0.56562659750E-01  0.81733392506E-01  0.51100000000E-03 0.  1.
         11    1    4    4    0    0 -0.23998472952E-01  0.53969341312E-01  0.69841456071E-02  0.59478196984E-01  0.51100000000E-03 0. -1.
</event>
<event>
 8    1  0.2077555E+004  0.1043930E+01  0.7957747E-01            NaN
         13   -1    0    0    0    0  0.00000000000E+00  0.00000000000E+00  0.74505805969E-08  0.10566000000E+00  0.10566000000E+00 0. -1.
     999900   -1    0    0    0    0 -0.00000000000E+00 -0.00000000000E+00 -0.74505805969E-08  0.93827000000E+00  0.93827000000E+00 0.  1.
     999902    2    1    2    0    0  0.37843952075E-02  0.12642629143E-01  0.36040854627E-02  0.10302498264E+01  0.10301589963E+01 0.  0.
     999903    2    3    3    0    0  0.16998777861E-01  0.32731933520E-01  0.12856846440E+00  0.14109612983E+00  0.44921374565E-01 0.  0.
         14    1    1    2    0    0 -0.37843952075E-02 -0.12642629143E-01 -0.36040854627E-02  0.13680173637E-01  0.00000000000E+00 0.  1.
     999901    1    3    3    0    0 -0.13214382653E-01 -0.20089304377E-01 -0.12496437894E+00  0.88915369654E+00  0.88000000000E+00 0.  1.
        -11    1    4    4    0    0  0.52895522197E-02  0.42263003336E-01  0.10193105366E+00  0.11047326208E+00  0.51100000000E-03 0. -1.
         11    1    4    4    0    0  0.11709225641E-01 -0.95310698161E-02  0.26637410744E-01  0.30622867748E-01  0.51100000000E-03 0.  1.
</event>
<event>
 8    1  0.2077555E+004  0.1043930E+01  0.7957747E-01            NaN
         13   -1    0    0    0    0  0.00000000000E+00  0.00000000000E+00  0.74505805969E-08  0.10566000000E+00  0.10566000000E+00 0.  1.
     999900   -1    0    0    0    0 -0.00000000000E+00 -0.00000000000E+00 -0.74505805969E-08  0.93827000000E+00  0.93827000000E+00 0.  1.
     999902    2    1    2    0    0  0.32481798979E-02 -0.13608242569E-01 -0.44882827907E-02  0.10292371575E+01  0.10291322785E+01 0.  0.
     999903    2    3    3    0    0 -0.12731869770E+00  0.30300436820E-01  0.44825928354E-03  0.13850709115E+00  0.45341439162E-01 0.  0.
         14    1    1    2    0    0 -0.32481798979E-02  0.13608242569E-01  0.44882827907E-02  0.14692842505E-01  0.00000000000E+00 0. -1.
     999901    1    3    3    0    0  0.13056687760E+00 -0.43908679389E-01 -0.49365420742E-02  0.89073006635E+00  0.88000000000E+00 0.  1.
        -11    1    4    4    0    0 -0.68718904185E-01  0.39172247507E-01 -0.27726342550E-02  0.79149866639E-01  0.51100000000E-03 0. -1.
         11    1    4    4    0    0 -0.58599793516E-01 -0.88718106865E-02  0.32208935385E-02  0.59357224507E-01  0.51100000000E-03 0.  1.
</event>
<event>
 8    1  0.2077555E+004  0.1043930E+01  0.7957747E-01            NaN
         13   -1    0    0    0    0  0.00000000000E+00  0.00000000000E+00  0.74505805969E-08  0.10566000000E+00  0.10566000000E+00 0. -1.
     999900   -1    0    0    0    0 -0.00000000000E+00 -0.00000000000E+00 -0.74505805969E-08  0.93827000000E+00  0.93827000000E+00 0. -1.
     999902    2    1    2    0    0 -0.25174569642E-02 -0.12552268371E-01  0.57388126810E-02  0.10299003528E+01  0.10298047900E+01 0.  0.
     999903    2    3    3    0    0 -0.53138070799E-01 -0.21675158626E-01 -0.11901449701E+00  0.13961440883E+00  0.45102833451E-01 0.  0.
         14    1    1    2    0    0  0.25174569642E-02  0.12552268371E-01 -0.57388126810E-02  0.14029647245E-01  0.00000000000E+00 0.  1.
     999901    1    3    3    0    0  0.50620613835E-01  0.91228902547E-02  0.12475330969E+00  0.89028594392E+00  0.88000000000E+00 0.  1.
        -11    1    4    4    0    0 -0.23635269011E-01  0.13052968950E-01 -0.51648899676E-01  0.58282723841E-01  0.51100000000E-03 0. -1.
         11    1    4    4    0    0 -0.29502801788E-01 -0.34728127576E-01 -0.67365597332E-01  0.81331684989E-01  0.51100000000E-03 0.  1.
</event>
<event>
 8    1  0.2077555E+004  0.1043930E+01  0.7957747E-01            NaN
         13   -1    0    0    0    0  0.00000000000E+00  0.00000000000E+00  0.74505805969E-08  0.10566000000E+00  0.10566000000E+00 0. -1.
     999900   -1    0    0    0    0 -0.00000000000E+00 -0.00000000000E+00 -0.74505805969E-08  0.93827000000E+00  0.93827000000E+00 0.  1.
     999902    2    1    2    0    0 -0.60282980671E-02  0.12201176494E-01  0.26986665050E-02  0.10300558555E+01  0.10299624136E+01 0.  0.
     999903    2    3    3    0    0 -0.71518516302E-01 -0.71351456697E-01 -0.85692132181E-01  0.13927925919E+00  0.43007464185E-01 0.  0.
         14    1    1    2    0    0  0.60282980671E-02 -0.12201176494E-01 -0.26986665050E-02  0.13874144526E-01  0.00000000000E+00 0. -1.
     999901    1    3    3    0    0  0.65490218234E-01  0.83552633191E-01  0.88390798686E-01  0.89077659629E+00  0.88000000000E+00 0. -1.
        -11    1    4    4    0    0 -0.37013612595E-01 -0.50765997049E-01 -0.74722981375E-01  0.97626733225E-01  0.51100000000E-03 0.  1.
         11    1    4    4    0    0 -0.34504903706E-01 -0.20585459648E-01 -0.10969150806E-01  0.41652525963E-01  0.51100000000E-03 0. -1.
</event>
<event>
 8    1  0.2077555E+004  0.1043930E+01  0.7957747E-01            NaN
         13   -1    0    0    0    0  0.00000000000E+00  0.00000000000E+00  0.74505805969E-08  0.10566000000E+00  0.10566000000E+00 0.  1.
     999900   -1    0    0    0    0 -0.00000000000E+00 -0.00000000000E+00 -0.74505805969E-08  0.93827000000E+00  0.93827000000E+00 0.  1.
     999902    2    1    2    0    0  0.91863207371E-02  0.23639205605E-02  0.94287129273E-02  0.10305555005E+01  0.10304687101E+01 0.  0.
     999903    2    3    3    0    0  0.85028302036E-01  0.85807177948E-01 -0.57148699264E-01  0.14086604056E+00  0.44548665767E-01 0.  0.
         14    1    1    2    0    0 -0.91863207371E-02 -0.23639205605E-02 -0.94287129273E-02  0.13374499488E-01  0.00000000000E+00 0. -1.
     999901    1    3    3    0    0 -0.75841981299E-01 -0.83443257388E-01  0.66577412192E-01  0.88968945995E+00  0.88000000000E+00 0. -1.
        -11    1    4    4    0    0  0.48795827789E-01  0.76441061851E-01 -0.46705132723E-01  0.10200930982E+00  0.51100000000E-03 0.  1.
         11    1    4    4    0    0  0.36232474247E-01  0.93661160969E-02 -0.10443566541E-01  0.38856730741E-01  0.51100000000E-03 0. -1.
</event>
<event>
 8    1  0.2077555E+004  0.1043930E+01  0.7957747E-01            NaN
         13   -1    0    0    0    0  0.00000000000E+00  0.00000000000E+00  0.74505805969E-08  0.10566000000E+00  0.10566000000E+00 0.  1.
     999900   -1    0    0    0    0 -0.00000000000E+00 -0.00000000000E+00 -0.74505805969E-08  0.93827000000E+00  0.93827000000E+00 0.  1.
     999902    2    1    2    0    0  0.73590723059E-02 -0.11737714919E-01  0.19553190539E-02  0.10299388182E+01  0.10298437823E+01 0.  0.
     999903    2    3    3    0    0  0.21012144249E-01 -0.25728028528E-01  0.12855229749E+00  0.14066443407E+00  0.46447262174E-01 0.  0.
         14    1    1    2    0    0 -0.73590723059E-02  0.11737714919E-01 -0.19553190539E-02  0.13991181842E-01  0.00000000000E+00 0. -1.
     999901    1    3    3    0    0 -0.13653071943E-01  0.13990313610E-01 -0.12659697844E+00  0.88927438409E+00  0.88000000000E+00 0.  1.
        -11    1    4    4    0    0  0.10071304206E-01 -0.34805045914E-01  0.11654715571E+00  0.12205049371E+00  0.51100000000E-03 0.  1.
         11    1    4    4    0    0  0.10940840043E-01  0.90770173855E-02  0.12005141779E-01  0.18613940357E-01  0.51100000000E-03 0. -1.
</event>
<event>
 8    1  0.2077555E+004  0.1043930E+01  0.7957747E-01            NaN
         13   -1    0    0    0    0  0.00000000000E+00  0.00000000000E+00  0.74505805969E-08  0.10566000000E+00  0.10566000000E+00 0. -1.
     999900   -1    0    0    0    0 -0.00000000000E+00 -0.00000000000E+00 -0.74505805969E-08  0.93827000000E+00  0.93827000000E+00 0.  1.
     999902    2    1    2    0    0  0.13659390663E-01 -0.13871213517E-02 -0.51299591251E-02  0.10292732766E+01  0.10291689164E+01 0.  0.
     999903    2    3    3    0    0  0.74105468099E-01  0.64330562419E-02  0.10951282721E+00  0.13974651937E+00  0.44755175531E-01 0.  0.
         14    1    1    2    0    0 -0.13659390663E-01  0.13871213517E-02  0.51299591251E-02  0.14656723356E-01  0.00000000000E+00 0.  1.
     999901    1    3    3    0    0 -0.60446077437E-01 -0.78201775936E-02 -0.11464278633E+00  0.88952675728E+00  0.88000000000E+00 0.  1.
        -11    1    4    4    0    0  0.25550183614E-01  0.10344081703E-01  0.10691062664E-01  0.29569779351E-01  0.51100000000E-03 0.  1.
         11    1    4    4    0    0  0.48555284486E-01 -0.39110254613E-02  0.98821764544E-01  0.11017674001E+00  0.51100000000E-03 0. -1.
</event>
<event>
 8    1  0.2077555E+004  0.1043930E+01  0.7957747E-01            NaN
         13   -1    0    0    0    0  0.00000000000E+00  0.00000000000E+00  0.74505805969E-08  0.10566000000E+00  0.10566000000E+00 0. -1.
     999900   -1    0    0    0    0 -0.00000000000E+00 -0.00000000000E+00 -0.74505805969E-08  0.93827000000E+00  0.93827000000E+00 0.  1.
     999902    2    1    2    0    0  0.72294445560E-02  0.82262986297E-02 -0.69654974762E-02  0.10309509780E+01  0.10308692759E+01 0.  0.
     999903    2    3    3    0    0  0.29805804314E-01 -0.11265636656E+00  0.61692761936E-01  0.13975163588E+00  0.46310689442E-01 0.  0.
         14    1    1    2    0    0 -0.72294445560E-02 -0.82262986297E-02  0.69654974762E-02  0.12979022029E-01  0.00000000000E+00 0. -1.
     999901    1    3    3    0    0 -0.22576359758E-01  0.12088266519E+00 -0.68658259413E-01  0.89119934209E+00  0.88000000000E+00 0.  1.
        -11    1    4    4    0    0  0.18207575453E-01 -0.10074097279E+00  0.34796786591E-01  0.10812648556E+00  0.51100000000E-03 0.  1.
         11    1    4    4    0    0  0.11598228860E-01 -0.11915393775E-01  0.26895975345E-01  0.31625150312E-01  0.51100000000E-03 0. -1.
</event>
<event>
 8    1  0.2077555E+004  0.1043930E+01  0.7957747E-01            NaN
         13   -1    0    0    0    0  0.00000000000E+00  0.00000000000E+00  0.74505805969E-08  0.10566000000E+00  0.10566000000E+00 0.  1.
     999900   -1    0    0    0    0 -0.00000000000E+00 -0.00000000000E+00 -0.74505805969E-08  0.93827000000E+00  0.93827000000E+00 0. -1.
     999902    2    1    2    0    0  0.10142143148E-01  0.62465903902E-02 -0.64954232651E-02  0.10303626317E+01  0.10302733032E+01 0.  0.
     999903    2    3    3    0    0  0.83447814408E-01  0.10078905897E+00  0.31497504826E-01  0.14145573985E+00  0.43539193701E-01 0.  0.
         14    1    1    2    0    0 -0.10142143148E-01 -0.62465903902E-02  0.64954232651E-02  0.13567368298E-01  0.00000000000E+00 0.  1.
     999901    1    3    3    0    0 -0.73305671260E-01 -0.94542468577E-01 -0.37992928091E-01  0.88890689186E+00  0.88000000000E+00 0.  1.
        -11    1    4    4    0    0  0.68639282899E-01  0.60594431347E-01  0.35994828087E-01  0.98381527927E-01  0.51100000000E-03 0.  1.
         11    1    4    4    0    0  0.14808531509E-01  0.40194627620E-01 -0.44973232607E-02  0.43074211920E-01  0.51100000000E-03 0. -1.
</event>
<event>
 7    1  0.2077555E+004  0.1043930E+01  0.7957747E-01            NaN
         13   -1    0    0    0    0  0.00000000000E+00  0.00000000000E+00  0.74505805969E-08  0.10566000000E+00  0.10566000000E+00 0.  1.
     999900   -1    0    0    0    0 -0.00000000000E+00 -0.00000000000E+00 -0.74505805969E-08  0.93827000000E+00  0.93827000000E+00 0.  1.
     999903    2    1    2    0    0 -0.80894935419E-01 -0.56878474237E-01 -0.58448658586E-01  0.12343172317E+00  0.45166283735E-01 0.  0.
         14    1    1    2    0    0 -0.27663457275E-01 -0.95047668548E-02 -0.18084128891E-02  0.29306617317E-01  0.00000000000E+00 0.  1.
     999901    1    1    2    0    0  0.10855839269E+00  0.66383241092E-01  0.60257071475E-01  0.89119165951E+00  0.88000000000E+00 0. -1.
        -11    1    3    3    0    0 -0.73534543481E-01 -0.54952207452E-01 -0.34120376752E-01  0.97936384554E-01  0.51100000000E-03 0.  1.
         11    1    3    3    0    0 -0.73603919383E-02 -0.19262667854E-02 -0.24328281834E-01  0.25495338617E-01  0.51100000000E-03 0. -1.
</event>
<event>
 8    1  0.2077555E+004  0.1043930E+01  0.7957747E-01            NaN
         13   -1    0    0    0    0  0.00000000000E+00  0.00000000000E+00  0.74505805969E-08  0.10566000000E+00  0.10566000000E+00 0. -1.
     999900   -1    0    0    0    0 -0.00000000000E+00 -0.00000000000E+00 -0.74505805969E-08  0.93827000000E+00  0.93827000000E+00 0.  1.
     999902    2    1    2    0    0  0.81641075451E-02  0.41974106281E-02 -0.17470849711E-01  0.10241942077E+01  0.10240040398E+01 0.  0.
     999903    2    3    3    0    0  0.29608585923E-01  0.12180914421E+00 -0.27517604194E-01  0.13605383434E+00  0.45158513288E-01 0.  0.
         14    1    1    2    0    0 -0.81641075451E-02 -0.41974106281E-02  0.17470849711E-01  0.19735792297E-01  0.00000000000E+00 0. -1.
     999901    1    3    3    0    0 -0.21444478378E-01 -0.11761173359E+00  0.10046754483E-01  0.88814037337E+00  0.88000000000E+00 0.  1.
        -11    1    4    4    0    0  0.11800666847E-01  0.10071244535E-01  0.79978253683E-02  0.17461730617E-01  0.51100000000E-03 0.  1.
         11    1    4    4    0    0  0.17807919076E-01  0.11173789968E+00 -0.35515429562E-01  0.11859210372E+00  0.51100000000E-03 0. -1.
</event>
<event>
 8    1  0.2077555E+004  0.1043930E+01  0.7957747E-01            NaN
         13   -1    0    0    0    0  0.00000000000E+00  0.00000000000E+00  0.74505805969E-08  0.10566000000E+00  0.10566000000E+00 0. -1.
     999900   -1    0    0    0    0 -0.00000000000E+00 -0.00000000000E+00 -0.74505805969E-08  0.93827000000E+00  0.93827000000E+00 0. -1.
     999902    2    1    2    0    0 -0.87101471057E-02  0.38606730336E-02 -0.10049115710E-01  0.10300823942E+01  0.10299893119E+01 0.  0.
     999903    2    3    3    0    0  0.68924358247E-01  0.15995454978E-01  0.10890405037E+00  0.13860932954E+00  0.48435857675E-01 0.  0.
         14    1    1    2    0    0  0.87101471057E-02 -0.38606730336E-02  0.10049115710E-01  0.13847605765E-01  0.00000000000E+00 0. -1.
     999901    1    3    3    0    0 -0.77634505353E-01 -0.12134781945E-01 -0.11895316608E+00  0.89147306469E+00  0.88000000000E+00 0.  1.
        -11    1    4    4    0    0 -0.10849720814E-02 -0.58550405762E-02  0.31168662064E-01  0.31736497608E-01  0.51100000000E-03 0. -1.
         11    1    4    4    0    0  0.70009330329E-01  0.21850495555E-01  0.77735388307E-01  0.10687283193E+00  0.51100000000E-03 0.  1.
</event>
<event>
 8    1  0.2077555E+004  0.1043930E+01  0.7957747E-01            NaN
         13   -1    0    0    0    0  0.00000000000E+00  0.00000000000E+00  0.74505805969E-08  0.10566000000E+00  0.10566000000E+00 0.  1.
     999900   -1    0    0    0    0 -0.00000000000E+00 -0.00000000000E+00 -0.74505805969E-08  0.93827000000E+00  0.93827000000E+00 0. -1.
     999902    2    1    2    0    0 -0.10010496260E-01 -0.34992876636E-02 -0.66609358985E-02  0.10314070963E+01  0.10313310696E+01 0.  0.
     999903    2    3    3    0    0 -0.10715128901E+00 -0.75758895902E-01  0.32179570370E-01  0.14226910392E+00  0.44543957363E-01 0.  0.
         14    1    1    2    0    0  0.10010496260E-01  0.34992876636E-02  0.66609358985E-02  0.12522903680E-01  0.00000000000E+00 0.  1.
     999901    1    3    3    0    0  0.97140792747E-01  0.72259608239E-01 -0.38840506268E-01  0.88913799240E+00  0.88000000000E+00 0. -1.
        -11    1    4    4    0    0 -0.95818494882E-01 -0.80867677294E-01  0.24828642975E-01  0.12781818269E+00  0.51100000000E-03 0.  1.
         11    1    4    4    0    0 -0.11332794125E-01  0.51087813921E-02  0.73509273942E-02  0.14450921235E-01  0.51100000000E-03 0. -1.
</event>
<event>
 8    1  0.2077555E+004  0.1043930E+01  0.7957747E-01            NaN
         13   -1    0    0    0    0  0.00000000000E+00  0.00000000000E+00  0.74505805969E-08  0.10566000000E+00  0.10566000000E+00 0.  1.
     999900   -1    0    0    0    0 -0.00000000000E+00 -0.00000000000E+00 -0.74505805969E-08  0.93827000000E+00  0.93827000000E+00 0.  1.
     999902    2    1    2    0    0 -0.48308567189E-02  0.65877235649E-02  0.11208756818E-01  0.10300601944E+01  0.10299668114E+01 0.  0.
     999903    2    3    3    0    0 -0.22759685576E-01  0.11599677481E+00 -0.61429150319E-01  0.14013432727E+00  0.43483722452E-01 0.  0.
         14    1    1    2    0    0  0.48308567189E-02 -0.65877235649E-02 -0.11208756818E-01  0.13869805616E-01  0.00000000000E+00 0. -1.
     999901    1    3    3    0    0  0.17928828857E-01 -0.10940905124E+00  0.72637907138E-01  0.88992586711E+00  0.88000000000E+00 0. -1.
        -11    1    4    4    0    0 -0.17352380844E-01  0.33487111947E-01 -0.10253460018E-02  0.37733330663E-01  0.51100000000E-03 0.  1.
         11    1    4    4    0    0 -0.54073047318E-02  0.82509662861E-01 -0.60403804317E-01  0.10240099661E+00  0.51100000000E-03 0. -1.
</event>
<event>
 8    1  0.2077555E+004  0.1043930E+01  0.7957747E-01            NaN
         13   -1    0    0    0    0  0.00000000000E+00  0.00000000000E+00  0.74505805969E-08  0.10566000000E+00  0.10566000000E+00 0. -1.
     999900   -1    0    0    0    0 -0.00000000000E+00 -0.00000000000E+00 -0.74505805969E-08  0.93827000000E+00  0.93827000000E+00 0. -1.
     999902    2    1    2    0    0  0.94861464442E-02  0.75515047601E-02 -0.51865935478E-02  0.10307423940E+01  0.10306580276E+01 0.  0.
     999903    2    3    3    0    0 -0.57372453542E-01 -0.10120439371E+00 -0.59135694362E-01  0.13989536826E+00  0.50395991732E-01 0.  0.
         14    1    1    2    0    0 -0.94861464442E-02 -0.75515047601E-02  0.51865935478E-02  0.13187605967E-01  0.00000000000E+00 0. -1.
     999901    1    3    3    0    0  0.66858599986E-01  0.10875589847E+00  0.53949100814E-01  0.89084702577E+00  0.88000000000E+00 0.  1.
        -11    1    4    4    0    0 -0.35388454558E-01 -0.61498482982E-01 -0.78171238362E-02  0.71384694937E-01  0.51100000000E-03 0. -1.
         11    1    4    4    0    0 -0.21983998984E-01 -0.39705910726E-01 -0.51318570526E-01  0.68510673327E-01  0.51100000000E-03 0.  1.
</event>
<event>
 8    1  0.2077555E+004  0.1043930E+01  0.7957747E-01            NaN
         13   -1    0    0    0    0  0.00000000000E+00  0.00000000000E+00  0.74505805969E-08  0.10566000000E+00  0.10566000000E+00 0.  1.
     999900   -1    0    0    0    0 -0.00000000000E+00 -0.00000000000E+00 -0.74505805969E-08  0.93827000000E+00  0.93827000000E+00 0.  1.
     999902    2    1    2    0    0 -0.80305617533E-02 -0.47371720359E-02 -0.16911601075E-01  0.10246185275E+01  0.10244365250E+01 0.  0.
     999903    2    3    3    0    0 -0.52327420025E-01 -0.96326089259E-01 -0.69307640459E-01  0.13720876508E+00  0.44786402297E-01 0.  0.
         14    1    1    2    0    0  0.80305617533E-02  0.47371720359E-02  0.16911601075E-01  0.19311472546E-01  0.00000000000E+00 0.  1.
     999901    1    3    3    0    0  0.44296858272E-01  0.91588917223E-01  0.52396039383E-01  0.88740976237E+00  0.88000000000E+00 0. -1.
        -11    1    4    4    0    0 -0.57812244763E-01 -0.66969562613E-01 -0.53924985216E-01  0.10361150087E+00  0.51100000000E-03 0.  1.
         11    1    4    4    0    0  0.54848247378E-02 -0.29356526646E-01 -0.15382655243E-01  0.33597264211E-01  0.51100000000E-03 0. -1.
</event>
<event>
 8    1  0.2077555E+004  0.1043930E+01  0.7957747E-01            NaN
         13   -1    0    0    0    0  0.00000000000E+00  0.00000000000E+00  0.74505805969E-08  0.10566000000E+00  0.10566000000E+00 0. -1.
     999900   -1    0    0    0    0 -0.00000000000E+00 -0.00000000000E+00 -0.74505805969E-08  0.93827000000E+00  0.93827000000E+00 0.  1.
     999902    2    1    2    0    0  0.10328561108E-01  0.33051571106E-02 -0.65867778943E-02  0.10312418606E+01  0.10311638018E+01 0.  0.
     999903    2    3    3    0    0  0.74551171086E-01 -0.40556112747E-01 -0.10493765738E+00  0.14235421298E+00  0.45278412329E-01 0.  0.
         14    1    1    2    0    0 -0.10328561108E-01 -0.33051571106E-02  0.65867778943E-02  0.12688139388E-01  0.00000000000E+00 0. -1.
     999901    1    3    3    0    0 -0.64222609978E-01  0.43861269857E-01  0.98350879490E-01  0.88888764764E+00  0.88000000000E+00 0. -1.
        -11    1    4    4    0    0  0.14602558310E-01 -0.13313268520E-01 -0.58573649475E-01  0.61819182797E-01  0.51100000000E-03 0.  1.
         11    1    4    4    0    0  0.59948612777E-01 -0.27242844226E-01 -0.46364007909E-01  0.80535030178E-01  0.51100000000E-03 0. -1.
</event>
<event>
 8    1  0.2077555E+004  0.1043930E+01  0.7957747E-01            NaN
         13   -1    0    0    0    0  0.00000000000E+00  0.00000000000E+00  0.74505805969E-08  0.10566000000E+00  0.10566000000E+00 0.  1.
     999900   -1    0    0    0    0 -0.00000000000E+00 -0.00000000000E+00 -0.74505805969E-08  0.93827000000E+00  0.93827000000E+00 0.  1.
     999902    2    1    2    0    0  0.81782715663E-02 -0.80712888815E-04  0.97269789871E-02  0.10312215477E+01  0.10311432372E+01 0.  0.
     999903    2    3    3    0    0  0.54903830886E-01  0.93068654516E-01 -0.78502826483E-01  0.14069104223E+00  0.44216179159E-01 0.  0.
         14    1    1    2    0    0 -0.81782715663E-02  0.80712888815E-04 -0.97269789871E-02  0.12708452329E-01  0.00000000000E+00 0. -1.
     999901    1    3    3    0    0 -0.46725559320E-01 -0.93149367405E-01  0.88229805470E-01  0.89053050544E+00  0.88000000000E+00 0.  1.
        -11    1    4    4    0    0  0.30149120489E-01  0.60739121745E-01 -0.72937338612E-01  0.99590797072E-01  0.51100000000E-03 0. -1.
         11    1    4    4    0    0  0.24754710397E-01  0.32329532772E-01 -0.55654878709E-02  0.41100245161E-01  0.51100000000E-03 0.  1.
</event>
<event>
 8    1  0.2077555E+004  0.1043930E+01  0.7957747E-01            NaN
         13   -1    0    0    0    0  0.00000000000E+00  0.00000000000E+00  0.74505805969E-08  0.10566000000E+00  0.10566000000E+00 0. -1.
     999900   -1    0    0    0    0 -0.00000000000E+00 -0.00000000000E+00 -0.74505805969E-08  0.93827000000E+00  0.93827000000E+00 0. -1.
     999902    2    1    2    0    0 -0.40123799401E-02  0.12966617022E-01  0.42369483559E-02  0.10297108551E+01  0.10296126753E+01 0.  0.
     999903    2    3    3    0    0 -0.84350292070E-01  0.72633902553E-01  0.74157853721E-01  0.14128342528E+00  0.45507839075E-01 0.  0.
         14    1    1    2    0    0  0.40123799401E-02 -0.12966617022E-01 -0.42369483559E-02  0.14219144881E-01  0.00000000000E+00 0.  1.
     999901    1    3    3    0    0  0.80337912130E-01 -0.59667285531E-01 -0.69920905365E-01  0.88842742984E+00  0.88000000000E+00 0. -1.
        -11    1    4    4    0    0 -0.56887214728E-01  0.71034326350E-01  0.46219253222E-01  0.10207110859E+00  0.51100000000E-03 0.  1.
         11    1    4    4    0    0 -0.27463077343E-01  0.15995762032E-02  0.27938600499E-01  0.39212316687E-01  0.51100000000E-03 0. -1.
</event>
<event>
 8    1  0.2077555E+004  0.1043930E+01  0.7957747E-01            NaN
         13   -1    0    0    0    0  0.00000000000E+00  0.00000000000E+00  0.74505805969E-08  0.10566000000E+00  0.10566000000E+00 0. -1.
     999900   -1    0    0    0    0 -0.00000000000E+00 -0.00000000000E+00 -0.74505805969E-08  0.93827000000E+00  0.93827000000E+00 0. -1.
     999902    2    1    2    0    0 -0.43526931882E-02  0.13244731380E-01 -0.24624369795E-02  0.10297725835E+01  0.10296752601E+01 0.  0.
     999903    2    3    3    0    0 -0.49594449671E-01  0.12420756845E+00  0.13399009194E-01  0.14150958568E+00  0.44252682322E-01 0.  0.
         14    1    1    2    0    0  0.43526931882E-02 -0.13244731380E-01  0.24624369795E-02  0.14157416544E-01  0.00000000000E+00 0. -1.
     999901    1    3    3    0    0  0.45241756482E-01 -0.11096283707E+00 -0.15861446174E-01  0.88826299777E+00  0.88000000000E+00 0. -1.
        -11    1    4    4    0    0 -0.40536421315E-01  0.42760595094E-01  0.56221428625E-02  0.59190704989E-01  0.51100000000E-03 0. -1.
         11    1    4    4    0    0 -0.90580283558E-02  0.81446973361E-01  0.77768663318E-02  0.82318880692E-01  0.51100000000E-03 0.  1.
</event>
<event>
 8    1  0.2077555E+004  0.1043930E+01  0.7957747E-01            NaN
         13   -1    0    0    0    0  0.00000000000E+00  0.00000000000E+00  0.74505805969E-08  0.10566000000E+00  0.10566000000E+00 0.  1.
     999900   -1    0    0    0    0 -0.00000000000E+00 -0.00000000000E+00 -0.74505805969E-08  0.93827000000E+00  0.93827000000E+00 0.  1.
     999902    2    1    2    0    0 -0.94984403166E-03  0.16180484177E-01  0.75490119246E-03  0.10277040902E+01  0.10275759908E+01 0.  0.
     999903    2    3    3    0    0 -0.11326818411E+00  0.71096333865E-01 -0.58738092105E-02  0.13884240253E+00  0.36855676441E-01 0.  0.
         14    1    1    2    0    0  0.94984403166E-03 -0.16180484177E-01 -0.75490119246E-03  0.16225909765E-01  0.00000000000E+00 0.  1.
     999901    1    3    3    0    0  0.11231834008E+00 -0.54915849688E-01  0.66287104030E-02  0.88886168770E+00  0.88000000000E+00 0.  1.
        -11    1    4    4    0    0 -0.57659464492E-01  0.22076365944E-01 -0.16606345314E-01  0.63937560202E-01  0.51100000000E-03 0. -1.
         11    1    4    4    0    0 -0.55608719617E-01  0.49019967921E-01  0.10732536104E-01  0.74904842331E-01  0.51100000000E-03 0.  1.
</event>
<event>
 8    1  0.2077555E+004  0.1043930E+01  0.7957747E-01            NaN
         13   -1    0    0    0    0  0.00000000000E+00  0.00000000000E+00  0.74505805969E-08  0.10566000000E+00  0.10566000000E+00 0. -1.
     999900   -1    0    0    0    0 -0.00000000000E+00 -0.00000000000E+00 -0.74505805969E-08  0.93827000000E+00  0.93827000000E+00 0.  1.
     999902    2    1    2    0    0  0.25248057928E-02  0.12874730372E-02 -0.14463410753E-01  0.10291915305E+01  0.10290859945E+01 0.  0.
     999903    2    3    3    0    0  0.82715101131E-01  0.88221363253E-01 -0.56630786974E-01  0.14027867073E+00  0.42968157273E-01 0.  0.
         14    1    1    2    0    0 -0.25248057928E-02 -0.12874730372E-02  0.14463410753E-01  0.14738469450E-01  0.00000000000E+00 0. -1.
     999901    1    3    3    0    0 -0.80190295338E-01 -0.86933890216E-01  0.42167376220E-01  0.88891285982E+00  0.88000000000E+00 0.  1.
        -11    1    4    4    0    0  0.51625696717E-01  0.77280792887E-01 -0.29268542813E-01  0.97439428519E-01  0.51100000000E-03 0. -1.
         11    1    4    4    0    0  0.31089404414E-01  0.10940570366E-01 -0.27362244160E-01  0.42839242211E-01  0.51100000000E-03 0.  1.
</event>
<event>
 8    1  0.2077555E+004  0.1043930E+01  0.7957747E-01            NaN
         13   -1    0    0    0    0  0.00000000000E+00  0.00000000000E+00  0.74505805969E-08  0.10566000000E+00  0.10566000000E+00 0. -1.
     999900   -1    0    0    0    0 -0.00000000000E+00 -0.00000000000E+00 -0.74505805969E-08  0.93827000000E+00  0.93827000000E+00 0. -1.
     999902    2    1    2    0    0  0.10246390448E-01 -0.33964634861E-02 -0.97756634536E-02  0.10293667559E+01  0.10292637321E+01 0.  0.
     999903    2    3    3    0    0 -0.10962263191E-01  0.27152544415E-01 -0.12904800122E+00  0.14054228541E+00  0.47342533593E-01 0.  0.
         14    1    1    2    0    0 -0.10246390448E-01  0.33964634861E-02  0.97756634536E-02  0.14563244055E-01  0.00000000000E+00 0. -1.
     999901    1    3    3    0    0  0.21208653640E-01 -0.30549007901E-01  0.11927233776E+00  0.88882447054E+00  0.88000000000E+00 0.  1.
        -11    1    4    4    0    0 -0.18381838330E-01 -0.21095511674E-02 -0.85952290801E-01  0.87922691050E-01  0.51100000000E-03 0.  1.
         11    1    4    4    0    0  0.74195751385E-02  0.29262095582E-01 -0.43095710415E-01  0.52619594357E-01  0.51100000000E-03 0. -1.
</event>
<event>
 8    1  0.2077555E+004  0.1043930E+01  0.7957747E-01            NaN
         13   -1    0    0    0    0  0.00000000000E+00  0.00000000000E+00  0.74505805969E-08  0.10566000000E+00  0.10566000000E+00 0.  1.
     999900   -1    0    0    0    0 -0.00000000000E+00 -0.00000000000E+00 -0.74505805969E-08  0.93827000000E+00  0.93827000000E+00 0. -1.
     999902    2    1    2    0    0  0.29145672714E-02  0.93195460991E-02 -0.11194644668E-01  0.10290750779E+01  0.10289678553E+01 0.  0.
     999903    2    3    3    0    0 -0.10189336434E+00 -0.76227282104E-01 -0.31089994193E-01  0.13851413821E+00  0.45019134948E-01 0.  0.
         14    1    1    2    0    0 -0.29145672714E-02 -0.93195460991E-02  0.11194644668E-01  0.14854922118E-01  0.00000000000E+00 0.  1.
     999901    1    3    3    0    0  0.10480793161E+00  0.85546828203E-01  0.19895349525E-01  0.89056093968E+00  0.88000000000E+00 0.  1.
        -11    1    4    4    0    0 -0.48405613115E-01 -0.31674106596E-01 -0.36966036792E-01  0.68652031338E-01  0.51100000000E-03 0. -1.
         11    1    4    4    0    0 -0.53487751222E-01 -0.44553175508E-01  0.58760425988E-02  0.69862106869E-01  0.51100000000E-03 0.  1.
</event>
<event>
 8    1  0.2077555E+004  0.1043930E+01  0.7957747E-01            NaN
         13   -1    0    0    0    0  0.00000000000E+00  0.00000000000E+00  0.74505805969E-08  0.10566000000E+00  0.10566000000E+00 0.  1.
     999900   -1    0    0    0    0 -0.00000000000E+00 -0.00000000000E+00 -0.74505805969E-08  0.93827000000E+00  0.93827000000E+00 0.  1.
     999902    2    1    2    0    0 -0.71211420770E-02  0.15980923552E-01  0.27484088493E-02  0.10262197111E+01  0.10260668794E+01 0.  0.
     999903    2    3    3    0    0  0.10867550321E+00  0.80845088931E-03  0.68502386761E-01  0.13607216568E+00  0.44855754255E-01 0.  0.
         14    1    1    2    0    0  0.71211420770E-02 -0.15980923552E-01 -0.27484088493E-02  0.17710288910E-01  0.00000000000E+00 0.  1.
     999901    1    3    3    0    0 -0.11579664529E+00  0.15172472663E-01 -0.65753977911E-01  0.89014754541E+00  0.88000000000E+00 0.  1.
        -11    1    4    4    0    0  0.87886042573E-01  0.20196462713E-02  0.31080650373E-01  0.93243248542E-01  0.51100000000E-03 0. -1.
         11    1    4    4    0    0  0.20789460641E-01 -0.12111953819E-02  0.37421736388E-01  0.42828917139E-01  0.51100000000E-03 0.  1.
</event>
<event>
 8    1  0.2077555E+004  0.1043930E+01  0.7957747E-01            NaN
         13   -1    0    0    0    0  0.00000000000E+00  0.00000000000E+00  0.74505805969E-08  0.10566000000E+00  0.10566000000E+00 0. -1.
     999900   -1    0    0    0    0 -0.00000000000E+00 -0.00000000000E+00 -0.74505805969E-08  0.93827000000E+00  0.93827000000E+00 0. -1.
     999902    2    1    2    0    0 -0.63706918489E-02 -0.91602728451E-02  0.94758093110E-02  0.10292914456E+01  0.10291873458E+01 0.  0.
     999903    2    3    3    0    0 -0.11151324276E-02  0.12761930805E+00 -0.27948399312E-01  0.13792348226E+00  0.44202292091E-01 0.  0.
         14    1    1    2    0    0  0.63706918489E-02  0.91602728451E-02 -0.94758093110E-02  0.14638554414E-01  0.00000000000E+00 0.  1.
     999901    1    3    3    0    0 -0.52555594213E-02 -0.13677958090E+00  0.37424208623E-01  0.89136796333E+00  0.88000000000E+00 0. -1.
        -11    1    4    4    0    0  0.82823174790E-02  0.54260862095E-01  0.83726215508E-02  0.55526568872E-01  0.51100000000E-03 0. -1.
         11    1    4    4    0    0 -0.93974499066E-02  0.73358445958E-01 -0.36321020863E-01  0.82396913387E-01  0.51100000000E-03 0.  1.
</event>
<event>
 8    1  0.2077555E+004  0.1043930E+01  0.7957747E-01            NaN
         13   -1    0    0    0    0  0.00000000000E+00  0.00000000000E+00  0.74505805969E-08  0.10566000000E+00  0.10566000000E+00 0. -1.
     999900   -1    0    0    0    0 -0.00000000000E+00 -0.00000000000E+00 -0.74505805969E-08  0.93827000000E+00  0.93827000000E+00 0.  1.
     999902    2    1    2    0    0 -0.45683951078E-03 -0.49386121548E-02  0.13441763158E-01  0.10296024186E+01  0.10295027250E+01 0.  0.
     999903    2    3    3    0    0  0.11601981315E+00 -0.47799604491E-01 -0.40627343885E-01  0.13925004811E+00  0.44660895584E-01 0.  0.
         14    1    1    2    0    0  0.45683951078E-03  0.49386121548E-02 -0.13441763158E-01  0.14327581413E-01  0.00000000000E+00 0.  1.
     999901    1    3    3    0    0 -0.11647665266E+00  0.42860992336E-01  0.54069107044E-01  0.89035237048E+00  0.88000000000E+00 0. -1.
        -11    1    4    4    0    0  0.52393920556E-01 -0.11435529476E-02 -0.49000798353E-02  0.52637463160E-01  0.51100000000E-03 0.  1.
         11    1    4    4    0    0  0.63625892594E-01 -0.46656051543E-01 -0.35727264050E-01  0.86612584949E-01  0.51100000000E-03 0. -1.
</event>
<event>
 8    1  0.2077555E+004  0.1043930E+01  0.7957747E-01            NaN
         13   -1    0    0    0    0  0.00000000000E+00  0.00000000000E+00  0.74505805969E-08  0.10566000000E+00  0.10566000000E+00 0.  1.
     999900   -1    0    0    0    0 -0.00000000000E+00 -0.00000000000E+00 -0.74505805969E-08  0.93827000000E+00  0.93827000000E+00 0.  1.
     999902    2    1    2    0    0  0.84101210882E-03 -0.13777096876E-01 -0.28010282328E-02  0.10298459147E+01  0.10297496038E+01 0.  0.
     999903    2    3    3    0    0 -0.71459772826E-01  0.31732331011E-01 -0.10630699575E+00  0.13967065283E+00  0.45752310893E-01 0.  0.
         14    1    1    2    0    0 -0.84101210882E-03  0.13777096876E-01  0.28010282328E-02  0.14084085305E-01  0.00000000000E+00 0.  1.
     999901    1    3    3    0    0  0.72300784935E-01 -0.45509427887E-01  0.10350596752E+00  0.89017526187E+00  0.88000000000E+00 0. -1.
        -11    1    4    4    0    0 -0.43671678403E-01  0.21737463802E-01 -0.97212179855E-01  0.10876673140E+00  0.51100000000E-03 0. -1.
         11    1    4    4    0    0 -0.27788094423E-01  0.99948672092E-02 -0.90948158956E-02  0.30903921424E-01  0.51100000000E-03 0.  1.
</event>
<event>
 8    1  0.2077555E+004  0.1043930E+01  0.7957747E-01            NaN
         13   -1    0    0    0    0  0.00000000000E+00  0.00000000000E+00  0.74505805969E-08  0.10566000000E+00  0.10566000000E+00 0.  1.
     999900   -1    0    0    0    0 -0.00000000000E+00 -0.00000000000E+00 -0.74505805969E-08  0.93827000000E+00  0.93827000000E+00 0.  1.
     999902    2    1    2    0    0  0.10380489859E-01 -0.63908015550E-02  0.72387769250E-02  0.10297526658E+01  0.10296550665E+01 0.  0.
     999903    2    3    3    0    0 -0.10818097661E+00 -0.63919658586E-01  0.38737672881E-01  0.13938275885E+00  0.46239590277E-01 0.  0.
         14    1    1    2    0    0 -0.10380489859E-01  0.63908015550E-02 -0.72387769250E-02  0.14177334220E-01  0.00000000000E+00 0. -1.
     999901    1    3    3    0    0  0.11856146647E+00  0.57528857031E-01 -0.31498895956E-01  0.89036990693E+00  0.88000000000E+00 0.  1.
        -11    1    4    4    0    0 -0.62261224626E-01 -0.15631862031E-01  0.42161868450E-02  0.64333914501E-01  0.51100000000E-03 0. -1.
         11    1    4    4    0    0 -0.45919751987E-01 -0.48287796555E-01  0.34521486036E-01  0.75048844347E-01  0.51100000000E-03 0.  1.
</event>
<event>
 8    1  0.2077555E+004  0.1043930E+01  0.7957747E-01            NaN
         13   -1    0    0    0    0  0.00000000000E+00  0.00000000000E+00  0.74505805969E-08  0.10566000000E+00  0.10566000000E+00 0.  1.
     999900   -1    0    0    0    0 -0.00000000000E+00 -0.00000000000E+00 -0.74505805969E-08  0.93827000000E+00  0.93827000000E+00 0. -1.
     999902    2    1    2    0    0 -0.12805297410E-01 -0.55906710059E-02  0.31537549950E-02  0.10296059847E+01  0.10295063411E+01 0.  0.
     999903    2    3    3    0    0 -0.60353483392E-01  0.10872383900E+00 -0.43544471048E-01  0.13971309141E+00  0.46478068245E-01 0.  0.
         14    1    1    2    0    0  0.12805297410E-01  0.55906710059E-02 -0.31537549950E-02  0.14324015311E-01  0.00000000000E+00 0.  1.
     999901    1    3    3    0    0  0.47548185982E-01 -0.11431451001E+00  0.46698226043E-01  0.88989289328E+00  0.88000000000E+00 0. -1.
        -11    1    4    4    0    0 -0.45356881921E-01  0.49278084365E-01 -0.40623319259E-01  0.78333208315E-01  0.51100000000E-03 0. -1.
         11    1    4    4    0    0 -0.14996601471E-01  0.59445754639E-01 -0.29211517892E-02  0.61379883098E-01  0.51100000000E-03 0.  1.
</event>
<event>
 8    1  0.2077555E+004  0.1043930E+01  0.7957747E-01            NaN
         13   -1    0    0    0    0  0.00000000000E+00  0.00000000000E+00  0.74505805969E-08  0.10566000000E+00  0.10566000000E+00 0. -1.
     999900   -1    0    0    0    0 -0.00000000000E+00 -0.00000000000E+00 -0.74505805969E-08  0.93827000000E+00  0.93827000000E+00 0.  1.
     999902    2    1    2    0    0 -0.35359643691E-02 -0.85539534068E-02 -0.99601236210E-02  0.10303330435E+01  0.10302433224E+01 0.  0.
     999903    2    3    3    0    0 -0.64852483242E-01  0.10413787540E+00 -0.52600301786E-01  0.14000874948E+00  0.42250639135E-01 0.  0.
         14    1    1    2    0    0  0.35359643691E-02  0.85539534068E-02  0.99601236210E-02  0.13596956478E-01  0.00000000000E+00 0. -1.
     999901    1    3    3    0    0  0.61316518873E-01 -0.11269182881E+00  0.42640178165E-01  0.89032429404E+00  0.88000000000E+00 0. -1.
        -11    1    4    4    0    0 -0.50595015790E-01  0.56352457271E-01 -0.48582208991E-01  0.89977481709E-01  0.51100000000E-03 0.  1.
         11    1    4    4    0    0 -0.14257467452E-01  0.47785418132E-01 -0.40180927945E-02  0.50031267772E-01  0.51100000000E-03 0. -1.
</event>
<event>
 8    1  0.2077555E+004  0.1043930E+01  0.7957747E-01            NaN
         13   -1    0    0    0    0  0.00000000000E+00  0.00000000000E+00  0.74505805969E-08  0.10566000000E+00  0.10566000000E+00 0.  1.
     999900   -1    0    0    0    0 -0.00000000000E+00 -0.00000000000E+00 -0.74505805969E-08  0.93827000000E+00  0.93827000000E+00 0. -1.
     999902    2    1    2    0    0 -0.13209149232E-01 -0.15241152659E-03  0.33028743772E-02  0.10303133252E+01  0.10302233420E+01 0.  0.
     999903    2    3    3    0    0  0.42119129459E-01  0.45311369427E-03  0.12597339367E+00  0.14008321936E+00  0.44494786849E-01 0.  0.
         14    1    1    2    0    0  0.13209149232E-01  0.15241152659E-03 -0.33028743772E-02  0.13616674772E-01  0.00000000000E+00 0. -1.
     999901    1    3    3    0    0 -0.55328278691E-01 -0.60552522087E-03 -0.12267051929E+00  0.89023010586E+00  0.88000000000E+00 0. -1.
        -11    1    4    4    0    0  0.70110153205E-02 -0.19536703616E-01  0.46688586509E-01  0.51097185395E-01  0.51100000000E-03 0. -1.
         11    1    4    4    0    0  0.35108114138E-01  0.19989817310E-01  0.79284807158E-01  0.88986033969E-01  0.51100000000E-03 0.  1.
</event>
<event>
 8    1  0.2077555E+004  0.1043930E+01  0.7957747E-01            NaN
         13   -1    0    0    0    0  0.00000000000E+00  0.00000000000E+00  0.74505805969E-08  0.10566000000E+00  0.10566000000E+00 0.  1.
     999900   -1    0    0    0    0 -0.00000000000E+00 -0.00000000000E+00 -0.74505805969E-08  0.93827000000E+00  0.93827000000E+00 0. -1.
     999902    2    1    2    0    0  0.11297222026E-02 -0.77596254848E-02  0.10687594521E-01  0.10306743319E+01  0.10305890867E+01 0.  0.
     999903    2    3    3    0    0 -0.40861050574E-01 -0.77294630721E-01 -0.99855838689E-01  0.14004635538E+00  0.44695723981E-01 0.  0.
         14    1    1    2    0    0 -0.11297222026E-02  0.77596254848E-02 -0.10687594521E-01  0.13255668092E-01  0.00000000000E+00 0. -1.
     999901    1    3    3    0    0  0.41990772776E-01  0.69535005236E-01  0.11054343321E+00  0.89062797653E+00  0.88000000000E+00 0.  1.
        -11    1    4    4    0    0 -0.77307574997E-02 -0.54987979634E-01 -0.73788971933E-01  0.92349964893E-01  0.51100000000E-03 0. -1.
         11    1    4    4    0    0 -0.33130293074E-01 -0.22306651086E-01 -0.26066866756E-01  0.47696390485E-01  0.51100000000E-03 0.  1.
</event>
<event>
 8    1  0.2077555E+004  0.1043930E+01  0.7957747E-01            NaN
         13   -1    0    0    0    0  0.00000000000E+00  0.00000000000E+00  0.74505805969E-08  0.10566000000E+00  0.10566000000E+00 0.  1.
     999900   -1    0    0    0    0 -0.00000000000E+00 -0.00000000000E+00 -0.74505805969E-08  0.93827000000E+00  0.93827000000E+00 0.  1.
     999902    2    1    2    0    0  0.12455577484E-01  0.61644168899E-02  0.96811796613E-03  0.10299987869E+01  0.10299045695E+01 0.  0.
     999903    2    3    3    0    0  0.51033634889E-04  0.91057691940E-01  0.97800345415E-01  0.14053983836E+00  0.43531973746E-01 0.  0.
         14    1    1    2    0    0 -0.12455577484E-01 -0.61644168899E-02 -0.96811796613E-03  0.13931213101E-01  0.00000000000E+00 0. -1.
     999901    1    3    3    0    0  0.12404543849E-01 -0.84893275050E-01 -0.96832227449E-01  0.88945894854E+00  0.88000000000E+00 0.  1.
        -11    1    4    4    0    0  0.16186129403E-01  0.29241218724E-01  0.16905143608E-01  0.37457771676E-01  0.51100000000E-03 0.  1.
         11    1    4    4    0    0 -0.16135095768E-01  0.61816473216E-01  0.80895201807E-01  0.10308206669E+00  0.51100000000E-03 0. -1.
</event>
<event>
 8    1  0.2077555E+004  0.1043930E+01  0.7957747E-01            NaN
         13   -1    0    0    0    0  0.00000000000E+00  0.00000000000E+00  0.74505805969E-08  0.10566000000E+00  0.10566000000E+00 0.  1.
     999900   -1    0    0    0    0 -0.00000000000E+00 -0.00000000000E+00 -0.74505805969E-08  0.93827000000E+00  0.93827000000E+00 0.  1.
     999902    2    1    2    0    0 -0.10177811737E-01  0.84585310967E-02  0.28323203194E-02  0.10303964625E+01  0.10303075818E+01 0.  0.
     999903    2    3    3    0    0  0.28853660011E-01 -0.90610547681E-01 -0.91211975788E-01  0.13900290864E+00  0.44264873613E-01 0.  0.
         14    1    1    2    0    0  0.10177811737E-01 -0.84585310967E-02 -0.28323203194E-02  0.13533537544E-01  0.00000000000E+00 0.  1.
     999901    1    3    3    0    0 -0.39031471747E-01  0.99069078777E-01  0.94044296107E-01  0.89139355382E+00  0.88000000000E+00 0. -1.
        -11    1    4    4    0    0  0.16865997504E-01 -0.53588968224E-01 -0.23491133351E-01  0.60896090632E-01  0.51100000000E-03 0. -1.
         11    1    4    4    0    0  0.11987662507E-01 -0.37021579457E-01 -0.67720842437E-01  0.78106818007E-01  0.51100000000E-03 0.  1.
</event>
<event>
 8    1  0.2077555E+004  0.1043930E+01  0.7957747E-01            NaN
         13   -1    0    0    0    0  0.00000000000E+00  0.00000000000E+00  0.74505805969E-08  0.10566000000E+00  0.10566000000E+00 0. -1.
     999900   -1    0    0    0    0 -0.00000000000E+00 -0.00000000000E+00 -0.74505805969E-08  0.93827000000E+00  0.93827000000E+00 0.  1.
     999902    2    1    2    0    0 -0.32343774503E-03 -0.15612650457E-01  0.44974115690E-03  0.10283075247E+01  0.10281888463E+01 0.  0.
     999903    2    3    3    0    0 -0.39227389581E-02 -0.10962153323E+00  0.74885993195E-01  0.14016824477E+00  0.44799067338E-01 0.  0.
         14    1    1    2    0    0  0.32343774503E-03  0.15612650457E-01 -0.44974115690E-03  0.15622475264E-01  0.00000000000E+00 0.  1.
     999901    1    3    3    0    0  0.35993012131E-02  0.94008882777E-01 -0.74436252038E-01  0.88813927997E+00  0.88000000000E+00 0.  1.
        -11    1    4    4    0    0 -0.16263019876E-01 -0.81712795231E-01  0.70878220144E-01  0.10938669906E+00  0.51100000000E-03 0.  1.
         11    1    4    4    0    0  0.12340280918E-01 -0.27908738003E-01  0.40077730509E-02  0.30781545703E-01  0.51100000000E-03 0. -1.
</event>
<event>
 7    1  0.2095058E+004  0.1043930E+01  0.7957747E-01            NaN
         13   -1    0    0    0    0  0.00000000000E+00  0.00000000000E+00  0.74505805969E-08  0.10566000000E+00  0.10566000000E+00 0. -1.
     999900   -1    0    0    0    0 -0.00000000000E+00 -0.00000000000E+00 -0.74505805969E-08  0.93827000000E+00  0.93827000000E+00 0.  1.
     999903    2    1    2    0    0 -0.70884771430E-01  0.76525976595E-01 -0.30176201188E-01  0.11754548129E+00  0.45005123487E-01 0.  0.
         14    1    1    2    0    0  0.19735219280E-01  0.22734864723E-01  0.25284185353E-01  0.39314666258E-01  0.00000000000E+00 0. -1.
     999901    1    1    2    0    0  0.51149552150E-01 -0.99260841317E-01  0.48920158347E-02  0.88706985245E+00  0.88000000000E+00 0. -1.
        -11    1    3    3    0    0 -0.50264296820E-01  0.21999058589E-01 -0.19788769588E-01  0.58329363416E-01  0.51100000000E-03 0.  1.
         11    1    3    3    0    0 -0.20620474609E-01  0.54526918006E-01 -0.10387431600E-01  0.59216117878E-01  0.51100000000E-03 0. -1.
</event>
<event>
 8    1  0.2077555E+004  0.1043930E+01  0.7957747E-01            NaN
         13   -1    0    0    0    0  0.00000000000E+00  0.00000000000E+00  0.74505805969E-08  0.10566000000E+00  0.10566000000E+00 0. -1.
     999900   -1    0    0    0    0 -0.00000000000E+00 -0.00000000000E+00 -0.74505805969E-08  0.93827000000E+00  0.93827000000E+00 0. -1.
     999902    2    1    2    0    0 -0.29926837553E-02 -0.93172299365E-02  0.90976506695E-02  0.10305683318E+01  0.10304817089E+01 0.  0.
     999903    2    3    3    0    0 -0.10084649924E-02  0.82321765469E-01 -0.10223232410E+00  0.13883069891E+00  0.45217527545E-01 0.  0.
         14    1    1    2    0    0  0.29926837553E-02  0.93172299365E-02 -0.90976506695E-02  0.13361668214E-01  0.00000000000E+00 0.  1.
     999901    1    3    3    0    0 -0.19842187628E-02 -0.91638995406E-01  0.11132997477E+00  0.89173763288E+00  0.88000000000E+00 0.  1.
        -11    1    4    4    0    0 -0.58194245075E-02  0.55051666654E-01 -0.33449848817E-01  0.64681567776E-01  0.51100000000E-03 0.  1.
         11    1    4    4    0    0  0.48109595150E-02  0.27270098815E-01 -0.68782475285E-01  0.74149131136E-01  0.51100000000E-03 0. -1.
</event>
<event>
 8    1  0.2077555E+004  0.1043930E+01  0.7957747E-01            NaN
         13   -1    0    0    0    0  0.00000000000E+00  0.00000000000E+00  0.74505805969E-08  0.10566000000E+00  0.10566000000E+00 0. -1.
     999900   -1    0    0    0    0 -0.00000000000E+00 -0.00000000000E+00 -0.74505805969E-08  0.93827000000E+00  0.93827000000E+00 0. -1.
     999902    2    1    2    0    0  0.14624587148E-01 -0.86816998153E-02  0.53629787490E-02  0.10260971090E+01  0.10259421353E+01 0.  0.
     999903    2    3    3    0    0 -0.92685951386E-01  0.61927464998E-01  0.61104610977E-01  0.13502565540E+00  0.45524253175E-01 0.  0.
         14    1    1    2    0    0 -0.14624587148E-01  0.86816998153E-02 -0.53629787490E-02  0.17832891016E-01  0.00000000000E+00 0. -1.
     999901    1    3    3    0    0  0.10731053853E+00 -0.70609164813E-01 -0.55741632228E-01  0.89107145359E+00  0.88000000000E+00 0.  1.
        -11    1    4    4    0    0 -0.78255367325E-01  0.29864494695E-01  0.52393080389E-01  0.98798211281E-01  0.51100000000E-03 0. -1.
         11    1    4    4    0    0 -0.14430584060E-01  0.32062970303E-01  0.87115305880E-02  0.36227444115E-01  0.51100000000E-03 0.  1.
</event>
<event>
 8    1  0.2077555E+004  0.1043930E+01  0.7957747E-01            NaN
         13   -1    0    0    0    0  0.00000000000E+00  0.00000000000E+00  0.74505805969E-08  0.10566000000E+00  0.10566000000E+00 0.  1.
     999900   -1    0    0    0    0 -0.00000000000E+00 -0.00000000000E+00 -0.74505805969E-08  0.93827000000E+00  0.93827000000E+00 0.  1.
     999902    2    1    2    0    0 -0.77964696870E-02  0.10696870133E-01 -0.48319752008E-02  0.10298390116E+01  0.10297426056E+01 0.  0.
     999903    2    3    3    0    0  0.38083962792E-01  0.12646874773E+00 -0.19357551726E-01  0.14095255421E+00  0.45256771376E-01 0.  0.
         14    1    1    2    0    0  0.77964696870E-02 -0.10696870133E-01  0.48319752008E-02  0.14090988417E-01  0.00000000000E+00 0.  1.
     999901    1    3    3    0    0 -0.45880432479E-01 -0.11577187760E+00  0.14525576525E-01  0.88888645737E+00  0.88000000000E+00 0.  1.
        -11    1    4    4    0    0  0.38260566430E-03  0.39008901448E-01  0.11774756058E-01  0.40752261048E-01  0.51100000000E-03 0.  1.
         11    1    4    4    0    0  0.37701357128E-01  0.87459846282E-01 -0.31132307784E-01  0.10020029316E+00  0.51100000000E-03 0. -1.
</event>
<event>
 8    1  0.2077555E+004  0.1043930E+01  0.7957747E-01            NaN
         13   -1    0    0    0    0  0.00000000000E+00  0.00000000000E+00  0.74505805969E-08  0.10566000000E+00  0.10566000000E+00 0. -1.
     999900   -1    0    0    0    0 -0.00000000000E+00 -0.00000000000E+00 -0.74505805969E-08  0.93827000000E+00  0.93827000000E+00 0. -1.
     999902    2    1    2    0    0  0.38580242440E-02 -0.68660125378E-02  0.11273074070E-01  0.10301783209E+01  0.10300865324E+01 0.  0.
     999903    2    3    3    0    0 -0.10948316579E+00 -0.18578750442E-01 -0.71803147438E-01  0.13895159768E+00  0.42662875641E-01 0.  0.
         14    1    1    2    0    0 -0.38580242440E-02  0.68660125378E-02 -0.11273074070E-01  0.13751679106E-01  0.00000000000E+00 0.  1.
     999901    1    3    3    0    0  0.11334119003E+00  0.11712737904E-01  0.83076221508E-01  0.89122672321E+00  0.88000000000E+00 0.  1.
        -11    1    4    4    0    0 -0.83901356806E-01 -0.54478526150E-02 -0.32259838063E-01  0.90055955077E-01  0.51100000000E-03 0. -1.
         11    1    4    4    0    0 -0.25581808980E-01 -0.13130897827E-01 -0.39543309375E-01  0.48895642605E-01  0.51100000000E-03 0.  1.
</event>
<event>
 8    1  0.2077555E+004  0.1043930E+01  0.7957747E-01            NaN
         13   -1    0    0    0    0  0.00000000000E+00  0.00000000000E+00  0.74505805969E-08  0.10566000000E+00  0.10566000000E+00 0. -1.
     999900   -1    0    0    0    0 -0.00000000000E+00 -0.00000000000E+00 -0.74505805969E-08  0.93827000000E+00  0.93827000000E+00 0. -1.
     999902    2    1    2    0    0  0.33155579317E-02 -0.11273224748E-01 -0.73609221442E-02  0.10300641536E+01  0.10299708243E+01 0.  0.
     999903    2    3    3    0    0 -0.10917279410E+00 -0.51220682799E-01  0.55436171514E-01  0.13978728450E+00  0.43875488338E-01 0.  0.
         14    1    1    2    0    0 -0.33155579317E-02  0.11273224748E-01  0.73609221442E-02  0.13865846365E-01  0.00000000000E+00 0.  1.
     999901    1    3    3    0    0  0.11248835203E+00  0.39947458052E-01 -0.62797093658E-01  0.89027686914E+00  0.88000000000E+00 0. -1.
        -11    1    4    4    0    0 -0.56923821136E-01 -0.16304291631E-01  0.54073214431E-02  0.59461345297E-01  0.51100000000E-03 0. -1.
         11    1    4    4    0    0 -0.52248972965E-01 -0.34916391168E-01  0.50028850071E-01  0.80325939201E-01  0.51100000000E-03 0.  1.
</event>
<event>
 8    1  0.2077555E+004  0.1043930E+01  0.7957747E-01            NaN
         13   -1    0    0    0    0  0.00000000000E+00  0.00000000000E+00  0.74505805969E-08  0.10566000000E+00  0.10566000000E+00 0. -1.
     999900   -1    0    0    0    0 -0.00000000000E+00 -0.00000000000E+00 -0.74505805969E-08  0.93827000000E+00  0.93827000000E+00 0.  1.
     999902    2    1    2    0    0  0.11738905518E-01  0.21198393875E-02 -0.58608343482E-02  0.10306392137E+01  0.10305535133E+01 0.  0.
     999903    2    3    3    0    0 -0.80720788911E-02 -0.11773687101E+00 -0.61652245405E-01  0.14054327072E+00  0.44992025139E-01 0.  0.
         14    1    1    2    0    0 -0.11738905518E-01 -0.21198393875E-02  0.58608343482E-02  0.13290786322E-01  0.00000000000E+00 0. -1.
     999901    1    3    3    0    0  0.19810984409E-01  0.11985671040E+00  0.55791411057E-01  0.89009594296E+00  0.88000000000E+00 0. -1.
        -11    1    4    4    0    0  0.15807132216E-01 -0.57404725080E-01 -0.17512275826E-01  0.62065359227E-01  0.51100000000E-03 0. -1.
         11    1    4    4    0    0 -0.23879211107E-01 -0.60332145934E-01 -0.44139969579E-01  0.78477911488E-01  0.51100000000E-03 0.  1.
</event>
<event>
 8    1  0.2077555E+004  0.1043930E+01  0.7957747E-01            NaN
         13   -1    0    0    0    0  0.00000000000E+00  0.00000000000E+00  0.74505805969E-08  0.10566000000E+00  0.10566000000E+00 0. -1.
     999900   -1    0    0    0    0 -0.00000000000E+00 -0.00000000000E+00 -0.74505805969E-08  0.93827000000E+00  0.93827000000E+00 0. -1.
     999902    2    1    2    0    0  0.61081646845E-02  0.37073904898E-02  0.20029234764E-02  0.10365093449E+01  0.10364827813E+01 0.  0.
     999903    2    3    3    0    0  0.72992446791E-01 -0.33317359135E-01  0.11408952531E+00  0.14611182377E+00  0.43523574672E-01 0.  0.
         14    1    1    2    0    0 -0.61081646845E-02 -0.37073904898E-02 -0.20029234764E-02  0.74206551266E-02  0.00000000000E+00 0. -1.
     999901    1    3    3    0    0 -0.66884282107E-01  0.37024749625E-01 -0.11208660183E+00  0.89039752110E+00  0.88000000000E+00 0. -1.
        -11    1    4    4    0    0  0.50191784509E-01 -0.38058408774E-01  0.59030366602E-01  0.86327880854E-01  0.51100000000E-03 0.  1.
         11    1    4    4    0    0  0.22800662282E-01  0.47410496394E-02  0.55059158705E-01  0.59783942915E-01  0.51100000000E-03 0. -1.
</event>
<event>
 8    1  0.2077555E+004  0.1043930E+01  0.7957747E-01            NaN
         13   -1    0    0    0    0  0.00000000000E+00  0.00000000000E+00  0.74505805969E-08  0.10566000000E+00  0.10566000000E+00 0. -1.
     999900   -1    0    0    0    0 -0.00000000000E+00 -0.00000000000E+00 -0.74505805969E-08  0.93827000000E+00  0.93827000000E+00 0.  1.
     999902    2    1    2    0    0 -0.12313949252E-01 -0.30601259729E-02  0.74560334088E-02  0.10292129979E+01  0.10291077713E+01 0.  0.
     999903    2    3    3    0    0  0.54472633567E-01  0.10421311572E+00  0.58262692826E-01  0.13873598377E+00  0.45005449899E-01 0.  0.
         14    1    1    2    0    0  0.12313949252E-01  0.30601259729E-02 -0.74560334088E-02  0.14717002118E-01  0.00000000000E+00 0. -1.
     999901    1    3    3    0    0 -0.66786582818E-01 -0.10727324169E+00 -0.50806659417E-01  0.89047701412E+00  0.88000000000E+00 0.  1.
        -11    1    4    4    0    0  0.52015365986E-01  0.54389044724E-01  0.27501165625E-01  0.80127034866E-01  0.51100000000E-03 0.  1.
         11    1    4    4    0    0  0.24572675811E-02  0.49824070995E-01  0.30761527201E-01  0.58608948901E-01  0.51100000000E-03 0. -1.
</event>
<event>
 8    1  0.2077555E+004  0.1043930E+01  0.7957747E-01            NaN
         13   -1    0    0    0    0  0.00000000000E+00  0.00000000000E+00  0.74505805969E-08  0.10566000000E+00  0.10566000000E+00 0. -1.
     999900   -1    0    0    0    0 -0.00000000000E+00 -0.00000000000E+00 -0.74505805969E-08  0.93827000000E+00  0.93827000000E+00 0. -1.
     999902    2    1    2    0    0  0.61363422421E-02 -0.19375017418E-01  0.55868673532E-02  0.10228525456E+01  0.10226353558E+01 0.  0.
     999903    2    3    3    0    0  0.35165839687E-01  0.11692597449E+00  0.16321172292E-01  0.13182173953E+00  0.46928355570E-01 0.  0.
         14    1    1    2    0    0 -0.61363422421E-02  0.19375017418E-01 -0.55868673532E-02  0.21077454373E-01  0.00000000000E+00 0.  1.
     999901    1    3    3    0    0 -0.29029497445E-01 -0.13630099190E+00 -0.10734304939E-01  0.89103080610E+00  0.88000000000E+00 0. -1.
        -11    1    4    4    0    0  0.23658812761E-01  0.10974584267E+00  0.22780130208E-02  0.11229131698E+00  0.51100000000E-03 0. -1.
         11    1    4    4    0    0  0.11507026927E-01  0.71801318161E-02  0.14043159271E-01  0.19530422548E-01  0.51100000000E-03 0.  1.
</event>
<event>
 8    1  0.2077555E+004  0.1043930E+01  0.7957747E-01            NaN
         13   -1    0    0    0    0  0.00000000000E+00  0.00000000000E+00  0.74505805969E-08  0.10566000000E+00  0.10566000000E+00 0. -1.
     999900   -1    0    0    0    0 -0.00000000000E+00 -0.00000000000E+00 -0.74505805969E-08  0.93827000000E+00  0.93827000000E+00 0. -1.
     999902    2    1    2    0    0  0.32861968617E-02 -0.12563417529E-01  0.37031778169E-02  0.10304262199E+01  0.10303377323E+01 0.  0.
     999903    2    3    3    0    0  0.54132385935E-01 -0.77887546117E-02  0.12196711885E+00  0.14104750865E+00  0.45027121959E-01 0.  0.
         14    1    1    2    0    0 -0.32861968617E-02  0.12563417529E-01 -0.37031778169E-02  0.13503780055E-01  0.00000000000E+00 0. -1.
     999901    1    3    3    0    0 -0.50846189073E-01 -0.47746629177E-02 -0.11826394103E+00  0.88937871129E+00  0.88000000000E+00 0. -1.
        -11    1    4    4    0    0  0.41416960394E-02  0.15172325418E-01  0.24239580529E-01  0.28899333727E-01  0.51100000000E-03 0.  1.
         11    1    4    4    0    0  0.49990689895E-01 -0.22961080030E-01  0.97727538320E-01  0.11214817493E+00  0.51100000000E-03 0. -1.
</event>
<event>
 8    1  0.2077555E+004  0.1043930E+01  0.7957747E-01            NaN
         13   -1    0    0    0    0  0.00000000000E+00  0.00000000000E+00  0.74505805969E-08  0.10566000000E+00  0.10566000000E+00 0.  1.
     999900   -1    0    0    0    0 -0.00000000000E+00 -0.00000000000E+00 -0.74505805969E-08  0.93827000000E+00  0.93827000000E+00 0.  1.
     999902    2    1    2    0    0  0.34650857215E-02 -0.11956587468E-01  0.58040499697E-02  0.10301948699E+01  0.10301033036E+01 0.  0.
     999903    2    3    3    0    0 -0.26980611121E-01 -0.11147718444E+00 -0.68452621029E-01  0.14095623889E+00  0.45030921935E-01 0.  0.
         14    1    1    2    0    0 -0.34650857215E-02  0.11956587468E-01 -0.58040499697E-02  0.13735130104E-01  0.00000000000E+00 0. -1.
     999901    1    3    3    0    0  0.30445696843E-01  0.99520596972E-01  0.74256670999E-01  0.88923863100E+00  0.88000000000E+00 0. -1.
        -11    1    4    4    0    0 -0.18917436127E-02 -0.77929481493E-01 -0.28314589279E-01  0.82937083785E-01  0.51100000000E-03 0. -1.
         11    1    4    4    0    0 -0.25088867508E-01 -0.33547702947E-01 -0.40138031750E-01  0.58019155110E-01  0.51100000000E-03 0.  1.
</event>
<event>
 8    1  0.2077555E+004  0.1043930E+01  0.7957747E-01            NaN
         13   -1    0    0    0    0  0.00000000000E+00  0.00000000000E+00  0.74505805969E-08  0.10566000000E+00  0.10566000000E+00 0.  1.
     999900   -1    0    0    0    0 -0.00000000000E+00 -0.00000000000E+00 -0.74505805969E-08  0.93827000000E+00  0.93827000000E+00 0.  1.
     999902    2    1    2    0    0  0.16520734857E-02  0.92313454175E-02  0.73423157871E-02  0.10320196395E+01  0.10319509096E+01 0.  0.
     999903    2    3    3    0    0  0.50634429317E-03 -0.12132024171E+00  0.57167529630E-01  0.14099349990E+00  0.43499231456E-01 0.  0.
         14    1    1    2    0    0 -0.16520734857E-02 -0.92313454175E-02 -0.73423157871E-02  0.11910360454E-01  0.00000000000E+00 0.  1.
     999901    1    3    3    0    0  0.11457291925E-02  0.13055158713E+00 -0.49825213843E-01  0.89102613965E+00  0.88000000000E+00 0.  1.
        -11    1    4    4    0    0 -0.14504071695E-01 -0.97532420389E-01  0.54677212983E-01  0.11275105260E+00  0.51100000000E-03 0. -1.
         11    1    4    4    0    0  0.15010415989E-01 -0.23787821321E-01  0.24903166472E-02  0.28242447297E-01  0.51100000000E-03 0.  1.
</event>
<event>
 8    1  0.2077555E+004  0.1043930E+01  0.7957747E-01            NaN
         13   -1    0    0    0    0  0.00000000000E+00  0.00000000000E+00  0.74505805969E-08  0.10566000000E+00  0.10566000000E+00 0. -1.
     999900   -1    0    0    0    0 -0.00000000000E+00 -0.00000000000E+00 -0.74505805969E-08  0.93827000000E+00  0.93827000000E+00 0. -1.
     999902    2    1    2    0    0 -0.96326421065E-02  0.66746401407E-02 -0.28544132785E-02  0.10318682302E+01  0.10317977313E+01 0.  0.
     999903    2    3    3    0    0 -0.48948497712E-01  0.12281201904E+00 -0.28684747272E-01  0.14299206707E+00  0.46315969921E-01 0.  0.
         14    1    1    2    0    0  0.96326421065E-02 -0.66746401407E-02  0.28544132785E-02  0.12061769776E-01  0.00000000000E+00 0. -1.
     999901    1    3    3    0    0  0.39315855605E-01 -0.11613737889E+00  0.25830333994E-01  0.88887616316E+00  0.88000000000E+00 0.  1.
        -11    1    4    4    0    0 -0.49273307248E-01  0.89545782352E-01 -0.36995799319E-01  0.10869800473E+00  0.51100000000E-03 0. -1.
         11    1    4    4    0    0  0.32480953610E-03  0.33266236683E-01  0.83110520461E-02  0.34294062335E-01  0.51100000000E-03 0.  1.
</event>
<event>
 8    1  0.2077555E+004  0.1043930E+01  0.7957747E-01            NaN
         13   -1    0    0    0    0  0.00000000000E+00  0.00000000000E+00  0.74505805969E-08  0.10566000000E+00  0.10566000000E+00 0.  1.
     999900   -1    0    0    0    0 -0.00000000000E+00 -0.00000000000E+00 -0.74505805969E-08  0.93827000000E+00  0.93827000000E+00 0.  1.
     999902    2    1    2    0    0 -0.51838745333E-02 -0.82089302252E-02 -0.95323873535E-02  0.10303239168E+01  0.10302340744E+01 0.  0.
     999903    2    3    3    0    0  0.90526195350E-01  0.51837599186E-01 -0.81784758362E-01  0.14016302784E+00  0.45549960905E-01 0.  0.
         14    1    1    2    0    0  0.51838745333E-02  0.82089302252E-02  0.95323873535E-02  0.13606083172E-01  0.00000000000E+00 0.  1.
     999901    1    3    3    0    0 -0.95710069884E-01 -0.60046529411E-01  0.72252371009E-01  0.89016088899E+00  0.88000000000E+00 0. -1.
        -11    1    4    4    0    0  0.25253527465E-01  0.36764071133E-01 -0.19469623306E-01  0.48668931860E-01  0.51100000000E-03 0.  1.
         11    1    4    4    0    0  0.65272667885E-01  0.15073528053E-01 -0.62315135055E-01  0.91494095978E-01  0.51100000000E-03 0. -1.
</event>
<event>
 8    1  0.2263335E+004  0.1043930E+01  0.7957747E-01            NaN
         13   -1    0    0    0    0  0.00000000000E+00  0.00000000000E+00  0.74505805969E-08  0.10566000000E+00  0.10566000000E+00 0.  1.
     999900   -1    0    0    0    0 -0.00000000000E+00 -0.00000000000E+00 -0.74505805969E-08  0.93827000000E+00  0.93827000000E+00 0. -1.
     999902    2    1    2    0    0  0.56128824897E-02  0.27675578421E-02  0.13768149285E-01  0.10288063179E+01  0.10286951511E+01 0.  0.
     999903    2    3    3    0    0 -0.12387299937E+00 -0.56216563421E-02  0.41283292040E-01  0.13886583919E+00  0.46939195771E-01 0.  0.
         14    1    1    2    0    0 -0.56128824897E-02 -0.27675578421E-02 -0.13768149285E-01  0.15123682124E-01  0.00000000000E+00 0. -1.
     999901    1    3    3    0    0  0.12948588186E+00  0.83892141842E-02 -0.27515142755E-01  0.88994047868E+00  0.88000000000E+00 0. -1.
        -11    1    4    4    0    0 -0.65610347335E-01 -0.10759839890E-01  0.44954136663E-01  0.80259749290E-01  0.51100000000E-03 0.  1.
         11    1    4    4    0    0 -0.58262652038E-01  0.51381835482E-02 -0.36708446222E-02  0.58606089904E-01  0.51100000000E-03 0. -1.
</event>
<event>
 8    1  0.2077555E+004  0.1043930E+01  0.7957747E-01            NaN
         13   -1    0    0    0    0  0.00000000000E+00  0.00000000000E+00  0.74505805969E-08  0.10566000000E+00  0.10566000000E+00 0. -1.
     999900   -1    0    0    0    0 -0.00000000000E+00 -0.00000000000E+00 -0.74505805969E-08  0.93827000000E+00  0.93827000000E+00 0.  1.
     999902    2    1    2    0    0 -0.12003436346E-01  0.31431894781E-02 -0.46345522753E-02  0.10306845782E+01  0.10305994656E+01 0.  0.
     999903    2    3    3    0    0  0.48390627179E-01 -0.93020138630E-01  0.79845967166E-01  0.13937554831E+00  0.45340555837E-01 0.  0.
         14    1    1    2    0    0  0.12003436346E-01 -0.31431894781E-02  0.46345522753E-02  0.13245421813E-01  0.00000000000E+00 0.  1.
     999901    1    3    3    0    0 -0.60394063525E-01  0.96163328108E-01 -0.84480519441E-01  0.89130902988E+00  0.88000000000E+00 0. -1.
        -11    1    4    4    0    0  0.11099500538E-01 -0.25773201131E-01  0.49109732345E-01  0.56563979181E-01  0.51100000000E-03 0.  1.
         11    1    4    4    0    0  0.37291126642E-01 -0.67246937498E-01  0.30736234820E-01  0.82811569126E-01  0.51100000000E-03 0. -1.
</event>
<event>
 8    1  0.2077555E+004  0.1043930E+01  0.7957747E-01            NaN
         13   -1    0    0    0    0  0.00000000000E+00  0.00000000000E+00  0.74505805969E-08  0.10566000000E+00  0.10566000000E+00 0.  1.
     999900   -1    0    0    0    0 -0.00000000000E+00 -0.00000000000E+00 -0.74505805969E-08  0.93827000000E+00  0.93827000000E+00 0.  1.
     999902    2    1    2    0    0  0.11253683017E-04  0.10588258785E-01  0.62970374595E-02  0.10316107455E+01  0.10315371860E+01 0.  0.
     999903    2    3    3    0    0  0.24018072109E-01 -0.12848178206E+00 -0.22222553817E-01  0.13991002739E+00  0.44682633731E-01 0.  0.
         14    1    1    2    0    0 -0.11253683017E-04 -0.10588258785E-01 -0.62970374595E-02  0.12319254503E-01  0.00000000000E+00 0. -1.
     999901    1    3    3    0    0 -0.24006818426E-01  0.13907004084E+00  0.28519591276E-01  0.89170071811E+00  0.88000000000E+00 0.  1.
        -11    1    4    4    0    0  0.22269369354E-01 -0.87828715105E-01  0.53299206148E-02  0.90766057440E-01  0.51100000000E-03 0. -1.
         11    1    4    4    0    0  0.17487027545E-02 -0.40653066951E-01 -0.27552474432E-01  0.49143969947E-01  0.51100000000E-03 0.  1.
</event>
<event>
 8    1  0.2077555E+004  0.1043930E+01  0.7957747E-01            NaN
         13   -1    0    0    0    0  0.00000000000E+00  0.00000000000E+00  0.74505805969E-08  0.10566000000E+00  0.10566000000E+00 0. -1.
     999900   -1    0    0    0    0 -0.00000000000E+00 -0.00000000000E+00 -0.74505805969E-08  0.93827000000E+00  0.93827000000E+00 0.  1.
     999902    2    1    2    0    0 -0.59302229312E-02  0.10818862570E-01 -0.63264064147E-02  0.10300649811E+01  0.10299716630E+01 0.  0.
     999903    2    3    3    0    0  0.33811447209E-01 -0.12728141272E+00 -0.14433294933E-01  0.13837175580E+00  0.39933079203E-01 0.  0.
         14    1    1    2    0    0  0.59302229312E-02 -0.10818862570E-01  0.63264064147E-02  0.13865018912E-01  0.00000000000E+00 0. -1.
     999901    1    3    3    0    0 -0.39741670140E-01  0.13810027529E+00  0.81068885180E-02  0.89169322529E+00  0.88000000000E+00 0. -1.
        -11    1    4    4    0    0  0.18117494227E-01 -0.19681032989E-01  0.67360173452E-02  0.27590246596E-01  0.51100000000E-03 0. -1.
         11    1    4    4    0    0  0.15693952982E-01 -0.10760037973E+00 -0.21169312278E-01  0.11078150920E+00  0.51100000000E-03 0.  1.
</event>
<event>
 8    1  0.2077555E+004  0.1043930E+01  0.7957747E-01            NaN
         13   -1    0    0    0    0  0.00000000000E+00  0.00000000000E+00  0.74505805969E-08  0.10566000000E+00  0.10566000000E+00 0. -1.
     999900   -1    0    0    0    0 -0.00000000000E+00 -0.00000000000E+00 -0.74505805969E-08  0.93827000000E+00  0.93827000000E+00 0. -1.
     999902    2    1    2    0    0  0.89328812319E-02  0.31799622562E-02  0.10884091777E-01  0.10294949045E+01  0.10293936985E+01 0.  0.
     999903    2    3    3    0    0  0.34355213018E-01  0.89528821509E-01 -0.90496046106E-01  0.13911276590E+00  0.44352415205E-01 0.  0.
         14    1    1    2    0    0 -0.89328812319E-02 -0.31799622562E-02 -0.10884091777E-01  0.14435095457E-01  0.00000000000E+00 0.  1.
     999901    1    3    3    0    0 -0.25422331786E-01 -0.86348859253E-01  0.10138013788E+00  0.89038213864E+00  0.88000000000E+00 0.  1.
        -11    1    4    4    0    0  0.20210412850E-01  0.35592412880E-01 -0.67187567371E-01  0.78674716221E-01  0.51100000000E-03 0.  1.
         11    1    4    4    0    0  0.14144800168E-01  0.53936408630E-01 -0.23308478735E-01  0.60438049684E-01  0.51100000000E-03 0. -1.
</event>
<event>
 8    1  0.2077555E+004  0.1043930E+01  0.7957747E-01            NaN
         13   -1    0    0    0    0  0.00000000000E+00  0.00000000000E+00  0.74505805969E-08  0.10566000000E+00  0.10566000000E+00 0. -1.
     999900   -1    0    0    0    0 -0.00000000000E+00 -0.00000000000E+00 -0.74505805969E-08  0.93827000000E+00  0.93827000000E+00 0. -1.
     999902    2    1    2    0    0 -0.12899937695E-02 -0.90104956742E-02 -0.10657808178E-01  0.10299142235E+01  0.10298188509E+01 0.  0.
     999903    2    3    3    0    0 -0.19601385207E-01 -0.43835961652E-01 -0.12529393388E+00  0.14160709109E+00  0.45256961298E-01 0.  0.
         14    1    1    2    0    0  0.12899937695E-02  0.90104956742E-02  0.10657808178E-01  0.14015776517E-01  0.00000000000E+00 0. -1.
     999901    1    3    3    0    0  0.18311391438E-01  0.34825465978E-01  0.11463612570E+00  0.88830713239E+00  0.88000000000E+00 0.  1.
        -11    1    4    4    0    0 -0.31277976514E-01 -0.15482149993E-01 -0.58751421080E-01  0.68337393740E-01  0.51100000000E-03 0.  1.
         11    1    4    4    0    0  0.11676591307E-01 -0.28353811659E-01 -0.66542512797E-01  0.73269697355E-01  0.51100000000E-03 0. -1.
</event>
<event>
 8    1  0.2077555E+004  0.1043930E+01  0.7957747E-01            NaN
         13   -1    0    0    0    0  0.00000000000E+00  0.00000000000E+00  0.74505805969E-08  0.10566000000E+00  0.10566000000E+00 0.  1.
     999900   -1    0    0    0    0 -0.00000000000E+00 -0.00000000000E+00 -0.74505805969E-08  0.93827000000E+00  0.93827000000E+00 0. -1.
     999902    2    1    2    0    0  0.84190541130E-02  0.20016292373E-02 -0.10553617992E-01  0.10302820755E+01  0.10301916759E+01 0.  0.
     999903    2    3    3    0    0  0.85635596449E-01 -0.94297684605E-01  0.38076456681E-01  0.14033778707E+00  0.44937392289E-01 0.  0.
         14    1    1    2    0    0 -0.84190541130E-02 -0.20016292373E-02  0.10553617992E-01  0.13647924549E-01  0.00000000000E+00 0.  1.
     999901    1    3    3    0    0 -0.77216542336E-01  0.96299313843E-01 -0.48630074673E-01  0.88994428838E+00  0.88000000000E+00 0. -1.
        -11    1    4    4    0    0  0.52617211688E-01 -0.25099733483E-01  0.19132740754E-01  0.61358703347E-01  0.51100000000E-03 0. -1.
         11    1    4    4    0    0  0.33018384761E-01 -0.69197951123E-01  0.18943715927E-01  0.78979083724E-01  0.51100000000E-03 0.  1.
</event>
<event>
 8    1  0.2077555E+004  0.1043930E+01  0.7957747E-01            NaN
         13   -1    0    0    0    0  0.00000000000E+00  0.00000000000E+00  0.74505805969E-08  0.10566000000E+00  0.10566000000E+00 0. -1.
     999900   -1    0    0    0    0 -0.00000000000E+00 -0.00000000000E+00 -0.74505805969E-08  0.93827000000E+00  0.93827000000E+00 0. -1.
     999902    2    1    2    0    0  0.92817010174E-02 -0.98041308825E-02  0.25629988397E-02  0.10301880962E+01  0.10300964390E+01 0.  0.
     999903    2    3    3    0    0 -0.55000722222E-01 -0.65424864710E-01  0.10223745883E+00  0.14049101635E+00  0.44494216716E-01 0.  0.
         14    1    1    2    0    0 -0.92817010174E-02  0.98041308825E-02 -0.25629988397E-02  0.13741903769E-01  0.00000000000E+00 0. -1.
     999901    1    3    3    0    0  0.64282423240E-01  0.55620733828E-01 -0.99674459988E-01  0.88969707988E+00  0.88000000000E+00 0. -1.
        -11    1    4    4    0    0 -0.13383618842E-01  0.50253999189E-02  0.11932523630E-01  0.18628530238E-01  0.51100000000E-03 0.  1.
         11    1    4    4    0    0 -0.41617103380E-01 -0.70450264629E-01  0.90304935198E-01  0.12186248612E+00  0.51100000000E-03 0. -1.
</event>
<event>
 8    1  0.2077555E+004  0.1043930E+01  0.7957747E-01            NaN
         13   -1    0    0    0    0  0.00000000000E+00  0.00000000000E+00  0.74505805969E-08  0.10566000000E+00  0.10566000000E+00 0.  1.
     999900   -1    0    0    0    0 -0.00000000000E+00 -0.00000000000E+00 -0.74505805969E-08  0.93827000000E+00  0.93827000000E+00 0.  1.
     999902    2    1    2    0    0 -0.13590184034E-01 -0.18354571521E-02 -0.49146961425E-04  0.10302163418E+01  0.10301250635E+01 0.  0.
     999903    2    3    3    0    0  0.98214048101E-01 -0.84221503212E-01 -0.25220449048E-01  0.13896932705E+00  0.44012974927E-01 0.  0.
         14    1    1    2    0    0  0.13590184034E-01  0.18354571521E-02  0.49146961425E-04  0.13713658172E-01  0.00000000000E+00 0.  1.
     999901    1    3    3    0    0 -0.11180423213E+00  0.82386046059E-01  0.25171302087E-01  0.89124701478E+00  0.88000000000E+00 0.  1.
        -11    1    4    4    0    0  0.31750159682E-01 -0.44207338370E-01 -0.28259144943E-01  0.61328637679E-01  0.51100000000E-03 0.  1.
         11    1    4    4    0    0  0.66463888419E-01 -0.40014164842E-01  0.30386958951E-02  0.77640689368E-01  0.51100000000E-03 0. -1.
</event>
<event>
 8    1  0.2077555E+004  0.1043930E+01  0.7957747E-01            NaN
         13   -1    0    0    0    0  0.00000000000E+00  0.00000000000E+00  0.74505805969E-08  0.10566000000E+00  0.10566000000E+00 0. -1.
     999900   -1    0    0    0    0 -0.00000000000E+00 -0.00000000000E+00 -0.74505805969E-08  0.93827000000E+00  0.93827000000E+00 0. -1.
     999902    2    1    2    0    0 -0.56008102382E-02 -0.67580111136E-02  0.11227008463E-01  0.10296791927E+01  0.10295805721E+01 0.  0.
     999903    2    3    3    0    0 -0.56186231064E-01  0.11744065288E+00 -0.19452817158E-01  0.13899100673E+00  0.44619371862E-01 0.  0.
         14    1    1    2    0    0  0.56008102382E-02  0.67580111136E-02 -0.11227008463E-01  0.14250807295E-01  0.00000000000E+00 0.  1.
     999901    1    3    3    0    0  0.50585420826E-01 -0.12419866400E+00  0.30679825621E-01  0.89068818598E+00  0.88000000000E+00 0. -1.
        -11    1    4    4    0    0 -0.45206867884E-01  0.83000487213E-01 -0.33399790245E-01  0.10024245054E+00  0.51100000000E-03 0. -1.
         11    1    4    4    0    0 -0.10979363180E-01  0.34440165668E-01  0.13946973087E-01  0.38748556184E-01  0.51100000000E-03 0.  1.
</event>
<event>
 8    1  0.2077555E+004  0.1043930E+01  0.7957747E-01            NaN
         13   -1    0    0    0    0  0.00000000000E+00  0.00000000000E+00  0.74505805969E-08  0.10566000000E+00  0.10566000000E+00 0. -1.
     999900   -1    0    0    0    0 -0.00000000000E+00 -0.00000000000E+00 -0.74505805969E-08  0.93827000000E+00  0.93827000000E+00 0. -1.
     999902    2    1    2    0    0  0.10702033948E-01  0.72846121761E-02 -0.56565656526E-02  0.10298021608E+01  0.10297052465E+01 0.  0.
     999903    2    3    3    0    0 -0.11719577950E+00  0.18945213841E-02 -0.58503490492E-01  0.13897125585E+00  0.46388701322E-01 0.  0.
         14    1    1    2    0    0 -0.10702033948E-01 -0.72846121761E-02  0.56565656526E-02  0.14127839190E-01  0.00000000000E+00 0. -1.
     999901    1    3    3    0    0  0.12789781345E+00  0.53900907919E-02  0.52846924839E-01  0.89083090496E+00  0.88000000000E+00 0.  1.
        -11    1    4    4    0    0 -0.80849718757E-01  0.22359405630E-01 -0.33436340904E-01  0.90304319151E-01  0.51100000000E-03 0. -1.
         11    1    4    4    0    0 -0.36346060740E-01 -0.20464884246E-01 -0.25067149588E-01  0.48666936702E-01  0.51100000000E-03 0.  1.
</event>
<event>
 8    1  0.2077555E+004  0.1043930E+01  0.7957747E-01            NaN
         13   -1    0    0    0    0  0.00000000000E+00  0.00000000000E+00  0.74505805969E-08  0.10566000000E+00  0.10566000000E+00 0.  1.
     999900   -1    0    0    0    0 -0.00000000000E+00 -0.00000000000E+00 -0.74505805969E-08  0.93827000000E+00  0.93827000000E+00 0. -1.
     999902    2    1    2    0    0 -0.13140022214E-01  0.25485650619E-02  0.59784864359E-02  0.10292706116E+01  0.10291662131E+01 0.  0.
     999903    2    3    3    0    0  0.45672201108E-01  0.10096167958E+00  0.73973240625E-01  0.13923280044E+00  0.40429218299E-01 0.  0.
         14    1    1    2    0    0  0.13140022214E-01 -0.25485650619E-02 -0.59784864359E-02  0.14659388382E-01  0.00000000000E+00 0.  1.
     999901    1    3    3    0    0 -0.58812223322E-01 -0.98413114523E-01 -0.67994754189E-01  0.89003781117E+00  0.88000000000E+00 0. -1.
        -11    1    4    4    0    0  0.17209599231E-01  0.74714247745E-02  0.20645768528E-01  0.27901637460E-01  0.51100000000E-03 0. -1.
         11    1    4    4    0    0  0.28462601878E-01  0.93490254810E-01  0.53327472097E-01  0.11133116298E+00  0.51100000000E-03 0.  1.
</event>
<event>
 8    1  0.2077555E+004  0.1043930E+01  0.7957747E-01            NaN
         13   -1    0    0    0    0  0.00000000000E+00  0.00000000000E+00  0.74505805969E-08  0.10566000000E+00  0.10566000000E+00 0.  1.
     999900   -1    0    0    0    0 -0.00000000000E+00 -0.00000000000E+00 -0.74505805969E-08  0.93827000000E+00  0.93827000000E+00 0. -1.
     999902    2    1    2    0    0  0.73432021178E-02  0.11181724989E-01  0.23792112262E-02  0.10303427178E+01  0.10302531252E+01 0.  0.
     999903    2    3    3    0    0  0.35673982519E-01 -0.93113537771E-01  0.86708177166E-01  0.13972972136E+00  0.45423816441E-01 0.  0.
         14    1    1    2    0    0 -0.73432021178E-02 -0.11181724989E-01 -0.23792112262E-02  0.13587282184E-01  0.00000000000E+00 0. -1.
     999901    1    3    3    0    0 -0.28330780401E-01  0.10429526276E+00 -0.84328965940E-01  0.89061299645E+00  0.88000000000E+00 0. -1.
        -11    1    4    4    0    0  0.24136466457E-01 -0.30777068403E-01  0.58423413894E-01  0.70308984949E-01  0.51100000000E-03 0. -1.
         11    1    4    4    0    0  0.11537516062E-01 -0.62336469368E-01  0.28284763273E-01  0.69420736416E-01  0.51100000000E-03 0.  1.
</event>
<event>
 8    1  0.2077555E+004  0.1043930E+01  0.7957747E-01            NaN
         13   -1    0    0    0    0  0.00000000000E+00  0.00000000000E+00  0.74505805969E-08  0.10566000000E+00  0.10566000000E+00 0.  1.
     999900   -1    0    0    0    0 -0.00000000000E+00 -0.00000000000E+00 -0.74505805969E-08  0.93827000000E+00  0.93827000000E+00 0.  1.
     999902    2    1    2    0    0 -0.53216054749E-02  0.10407893436E-02 -0.11599524722E-01  0.10311256374E+01  0.10310461330E+01 0.  0.
     999903    2    3    3    0    0  0.10465567226E+00  0.66786402030E-01 -0.49918425105E-01  0.14102124729E+00  0.44518645411E-01 0.  0.
         14    1    1    2    0    0  0.53216054749E-02 -0.10407893436E-02  0.11599524722E-01  0.12804362580E-01  0.00000000000E+00 0.  1.
     999901    1    3    3    0    0 -0.10997727774E+00 -0.65745612686E-01  0.38318900383E-01  0.89010439013E+00  0.88000000000E+00 0. -1.
        -11    1    4    4    0    0  0.27723346139E-01  0.23132837922E-01  0.56634744427E-02  0.36551992767E-01  0.51100000000E-03 0. -1.
         11    1    4    4    0    0  0.76932326122E-01  0.43653564108E-01 -0.55581899548E-01  0.10446925452E+00  0.51100000000E-03 0.  1.
</event>
<event>
 8    1  0.2077555E+004  0.1043930E+01  0.7957747E-01            NaN
         13   -1    0    0    0    0  0.00000000000E+00  0.00000000000E+00  0.74505805969E-08  0.10566000000E+00  0.10566000000E+00 0. -1.
     999900   -1    0    0    0    0 -0.00000000000E+00 -0.00000000000E+00 -0.74505805969E-08  0.93827000000E+00  0.93827000000E+00 0. -1.
     999902    2    1    2    0    0  0.14445879730E-01 -0.16327480661E-02 -0.13458633772E-02  0.10293299775E+01  0.10292264289E+01 0.  0.
     999903    2    3    3    0    0 -0.74252838392E-02 -0.10165033728E+00 -0.84428449959E-01  0.13950719623E+00  0.44115402410E-01 0.  0.
         14    1    1    2    0    0 -0.14445879730E-01  0.16327480661E-02  0.13458633772E-02  0.14600022454E-01  0.00000000000E+00 0.  1.
     999901    1    3    3    0    0  0.21871163569E-01  0.10001758921E+00  0.83082586581E-01  0.88982278131E+00  0.88000000000E+00 0. -1.
        -11    1    4    4    0    0 -0.22999934861E-01 -0.33358122736E-01 -0.37347610367E-01  0.55107771478E-01  0.51100000000E-03 0. -1.
         11    1    4    4    0    0  0.15574651022E-01 -0.68292214543E-01 -0.47080839591E-01  0.84399424757E-01  0.51100000000E-03 0.  1.
</event>
<event>
 7    1  0.2077555E+004  0.1043930E+01  0.7957747E-01            NaN
         13   -1    0    0    0    0  0.00000000000E+00  0.00000000000E+00  0.74505805969E-08  0.10566000000E+00  0.10566000000E+00 0.  1.
     999900   -1    0    0    0    0 -0.00000000000E+00 -0.00000000000E+00 -0.74505805969E-08  0.93827000000E+00  0.93827000000E+00 0.  1.
     999903    2    1    2    0    0 -0.34544551439E-01  0.38986706615E-01  0.64629947949E-01  0.94353056620E-01  0.44857327102E-01 0.  0.
         14    1    1    2    0    0  0.11048696453E-01  0.52433485331E-01  0.26628532925E-01  0.59836634623E-01  0.00000000000E+00 0. -1.
     999901    1    1    2    0    0  0.23495854986E-01 -0.91420191946E-01 -0.91258480874E-01  0.88974030876E+00  0.88000000000E+00 0.  1.
        -11    1    3    3    0    0 -0.21430464936E-01  0.21990371829E-01  0.51799895089E-02  0.31143774544E-01  0.51100000000E-03 0.  1.
         11    1    3    3    0    0 -0.13114086504E-01  0.16996334786E-01  0.59449958440E-01  0.63209282076E-01  0.51100000000E-03 0. -1.
</event>
<event>
 8    1  0.2077555E+004  0.1043930E+01  0.7957747E-01            NaN
         13   -1    0    0    0    0  0.00000000000E+00  0.00000000000E+00  0.74505805969E-08  0.10566000000E+00  0.10566000000E+00 0.  1.
     999900   -1    0    0    0    0 -0.00000000000E+00 -0.00000000000E+00 -0.74505805969E-08  0.93827000000E+00  0.93827000000E+00 0.  1.
     999902    2    1    2    0    0  0.11953685511E-02 -0.13152725177E-01  0.43162551014E-02  0.10300356435E+01  0.10299419273E+01 0.  0.
     999903    2    3    3    0    0 -0.11479260633E+00  0.13287444182E-01  0.70366533079E-01  0.13957793414E+00  0.34302362606E-01 0.  0.
         14    1    1    2    0    0 -0.11953685511E-02  0.13152725177E-01 -0.43162551014E-02  0.13894356539E-01  0.00000000000E+00 0. -1.
     999901    1    3    3    0    0  0.11598797488E+00 -0.26440169359E-01 -0.66050277978E-01  0.89045770932E+00  0.88000000000E+00 0.  1.
        -11    1    4    4    0    0 -0.78979296884E-01  0.47882282123E-02  0.29171806354E-01  0.84332152069E-01  0.51100000000E-03 0.  1.
         11    1    4    4    0    0 -0.35813309443E-01  0.84992159697E-02  0.41194726726E-01  0.55245782068E-01  0.51100000000E-03 0. -1.
</event>
<event>
 8    1  0.2077555E+004  0.1043930E+01  0.7957747E-01            NaN
         13   -1    0    0    0    0  0.00000000000E+00  0.00000000000E+00  0.74505805969E-08  0.10566000000E+00  0.10566000000E+00 0.  1.
     999900   -1    0    0    0    0 -0.00000000000E+00 -0.00000000000E+00 -0.74505805969E-08  0.93827000000E+00  0.93827000000E+00 0. -1.
     999902    2    1    2    0    0 -0.11942516626E-01  0.35791333670E-02 -0.31429651014E-02  0.10310726236E+01  0.10309924553E+01 0.  0.
     999903    2    3    3    0    0  0.22205116518E-01 -0.10939719763E+00  0.70990763383E-01  0.14010375660E+00  0.46136320595E-01 0.  0.
         14    1    1    2    0    0  0.11942516626E-01 -0.35791333670E-02  0.31429651014E-02  0.12857376429E-01  0.00000000000E+00 0.  1.
     999901    1    3    3    0    0 -0.34147633144E-01  0.11297633100E+00 -0.74133728484E-01  0.89096886697E+00  0.88000000000E+00 0. -1.
        -11    1    4    4    0    0 -0.14244960234E-01 -0.26840964183E-01  0.14905443183E-01  0.33849514144E-01  0.51100000000E-03 0. -1.
         11    1    4    4    0    0  0.36450076752E-01 -0.82556233449E-01  0.56085320200E-01  0.10625424245E+00  0.51100000000E-03 0.  1.
</event>
<event>
 8    1  0.2077555E+004  0.1043930E+01  0.7957747E-01            NaN
         13   -1    0    0    0    0  0.00000000000E+00  0.00000000000E+00  0.74505805969E-08  0.10566000000E+00  0.10566000000E+00 0. -1.
     999900   -1    0    0    0    0 -0.00000000000E+00 -0.00000000000E+00 -0.74505805969E-08  0.93827000000E+00  0.93827000000E+00 0.  1.
     999902    2    1    2    0    0  0.38272530653E-02  0.58579395690E-02 -0.13941784570E-01  0.10283307475E+01  0.10282124243E+01 0.  0.
     999903    2    3    3    0    0 -0.36397982749E-01  0.12452673919E+00 -0.23878903538E-01  0.13939931035E+00  0.45058226446E-01 0.  0.
         14    1    1    2    0    0 -0.38272530653E-02 -0.58579395690E-02  0.13941784570E-01  0.15599252515E-01  0.00000000000E+00 0. -1.
     999901    1    3    3    0    0  0.40225235815E-01 -0.11866879962E+00  0.99371189676E-02  0.88893143714E+00  0.88000000000E+00 0.  1.
        -11    1    4    4    0    0 -0.38936684042E-01  0.53027489330E-01 -0.10951053241E-01  0.66694577568E-01  0.51100000000E-03 0.  1.
         11    1    4    4    0    0  0.25387012926E-02  0.71499249856E-01 -0.12927850297E-01  0.72704732779E-01  0.51100000000E-03 0. -1.
</event>
<event>
 8    1  0.2077555E+004  0.1043930E+01  0.7957747E-01            NaN
         13   -1    0    0    0    0  0.00000000000E+00  0.00000000000E+00  0.74505805969E-08  0.10566000000E+00  0.10566000000E+00 0.  1.
     999900   -1    0    0    0    0 -0.00000000000E+00 -0.00000000000E+00 -0.74505805969E-08  0.93827000000E+00  0.93827000000E+00 0.  1.
     999902    2    1    2    0    0 -0.54808411046E-02 -0.11379762440E-01 -0.66363688573E-02  0.10296618535E+01  0.10295629911E+01 0.  0.
     999903    2    3    3    0    0  0.16580155100E-01 -0.43977146831E-01  0.12319910413E+00  0.13926501667E+00  0.44808867684E-01 0.  0.
         14    1    1    2    0    0  0.54808411046E-02  0.11379762440E-01  0.66363688573E-02  0.14268146481E-01  0.00000000000E+00 0.  1.
     999901    1    3    3    0    0 -0.22060996204E-01  0.32597384392E-01 -0.12983547299E+00  0.89039683685E+00  0.88000000000E+00 0.  1.
        -11    1    4    4    0    0 -0.15172514169E-01 -0.99951866320E-02  0.29339034826E-01  0.34513026925E-01  0.51100000000E-03 0.  1.
         11    1    4    4    0    0  0.31752669269E-01 -0.33981960199E-01  0.93860069305E-01  0.10475198975E+00  0.51100000000E-03 0. -1.
</event>
<event>
 8    1  0.2077555E+004  0.1043930E+01  0.7957747E-01            NaN
         13   -1    0    0    0    0  0.00000000000E+00  0.00000000000E+00  0.74505805969E-08  0.10566000000E+00  0.10566000000E+00 0. -1.
     999900   -1    0    0    0    0 -0.00000000000E+00 -0.00000000000E+00 -0.74505805969E-08  0.93827000000E+00  0.93827000000E+00 0. -1.
     999902    2    1    2    0    0 -0.59405465959E-02  0.12781013575E-01  0.22983435879E-02  0.10296497064E+01  0.10295506744E+01 0.  0.
     999903    2    3    3    0    0  0.69550944850E-01  0.11390391124E+00 -0.34962811167E-02  0.14062868113E+00  0.44190123870E-01 0.  0.
         14    1    1    2    0    0  0.59405465959E-02 -0.12781013575E-01 -0.22983435879E-02  0.14280293594E-01  0.00000000000E+00 0.  1.
     999901    1    3    3    0    0 -0.75491491446E-01 -0.10112289767E+00  0.57946247047E-02  0.88902102528E+00  0.88000000000E+00 0. -1.
        -11    1    4    4    0    0  0.51920706317E-01  0.82160278320E-01 -0.22324720755E-01  0.99723243809E-01  0.51100000000E-03 0.  1.
         11    1    4    4    0    0  0.17630238533E-01  0.31743632924E-01  0.18828439638E-01  0.40905437318E-01  0.51100000000E-03 0. -1.
</event>
<event>
 8    1  0.2077555E+004  0.1043930E+01  0.7957747E-01            NaN
         13   -1    0    0    0    0  0.00000000000E+00  0.00000000000E+00  0.74505805969E-08  0.10566000000E+00  0.10566000000E+00 0. -1.
     999900   -1    0    0    0    0 -0.00000000000E+00 -0.00000000000E+00 -0.74505805969E-08  0.93827000000E+00  0.93827000000E+00 0.  1.
     999902    2    1    2    0    0  0.51876843881E-02 -0.13388940328E-01  0.15351317745E-02  0.10294893483E+01  0.10293880638E+01 0.  0.
     999903    2    3    3    0    0  0.10658779654E+00  0.74207585030E-01  0.16006976198E-01  0.13922839313E+00  0.47545747629E-01 0.  0.
         14    1    1    2    0    0 -0.51876843881E-02  0.13388940328E-01 -0.15351317745E-02  0.14440651716E-01  0.00000000000E+00 0.  1.
     999901    1    3    3    0    0 -0.10140011215E+00 -0.87596525358E-01 -0.14471844423E-01  0.89026095516E+00  0.88000000000E+00 0. -1.
        -11    1    4    4    0    0  0.60372505753E-01  0.13913184206E-01  0.12308477749E-01  0.63167839057E-01  0.51100000000E-03 0.  1.
         11    1    4    4    0    0  0.46215290789E-01  0.60294400824E-01  0.36984984494E-02  0.76060554068E-01  0.51100000000E-03 0. -1.
</event>
<event>
 8    1  0.2077555E+004  0.1043930E+01  0.7957747E-01            NaN
         13   -1    0    0    0    0  0.00000000000E+00  0.00000000000E+00  0.74505805969E-08  0.10566000000E+00  0.10566000000E+00 0. -1.
     999900   -1    0    0    0    0 -0.00000000000E+00 -0.00000000000E+00 -0.74505805969E-08  0.93827000000E+00  0.93827000000E+00 0. -1.
     999902    2    1    2    0    0  0.78930677948E-02 -0.42292942666E-02  0.99642269034E-02  0.10305332367E+01  0.10304461552E+01 0.  0.
     999903    2    3    3    0    0 -0.15402647163E-01 -0.33242376090E-01 -0.12675859760E+00  0.13919851843E+00  0.44341722539E-01 0.  0.
         14    1    1    2    0    0 -0.78930677948E-02  0.42292942666E-02 -0.99642269034E-02  0.13396763303E-01  0.00000000000E+00 0.  1.
     999901    1    3    3    0    0  0.23295714958E-01  0.29013081824E-01  0.13672282451E+00  0.89133471827E+00  0.88000000000E+00 0.  1.
        -11    1    4    4    0    0 -0.58080924835E-02  0.10628071319E-01 -0.34981053554E-01  0.37021953851E-01  0.51100000000E-03 0.  1.
         11    1    4    4    0    0 -0.95945546795E-02 -0.43870447409E-01 -0.91777544051E-01  0.10217656458E+00  0.51100000000E-03 0. -1.
</event>
<event>
 8    1  0.2077555E+004  0.1043930E+01  0.7957747E-01            NaN
         13   -1    0    0    0    0  0.00000000000E+00  0.00000000000E+00  0.74505805969E-08  0.10566000000E+00  0.10566000000E+00 0. -1.
     999900   -1    0    0    0    0 -0.00000000000E+00 -0.00000000000E+00 -0.74505805969E-08  0.93827000000E+00  0.93827000000E+00 0.  1.
     999902    2    1    2    0    0  0.81227869406E-02  0.81729286799E-02 -0.80781440256E-02  0.10298575858E+01  0.10297614356E+01 0.  0.
     999903    2    3    3    0    0 -0.47325640017E-01  0.24651352680E-01  0.11994222291E+00  0.13871490313E+00  0.44813860814E-01 0.  0.
         14    1    1    2    0    0 -0.81227869406E-02 -0.81729286799E-02  0.80781440256E-02  0.14072414213E-01  0.00000000000E+00 0. -1.
     999901    1    3    3    0    0  0.55448426958E-01 -0.16478424001E-01 -0.12802036693E+00  0.89114268266E+00  0.88000000000E+00 0.  1.
        -11    1    4    4    0    0 -0.21795593241E-01  0.20720647298E-01  0.21585271617E-01  0.37021320627E-01  0.51100000000E-03 0.  1.
         11    1    4    4    0    0 -0.25530046776E-01  0.39307053825E-02  0.98356951292E-01  0.10169358250E+00  0.51100000000E-03 0. -1.
</event>
<event>
 8    1  0.2077555E+004  0.1043930E+01  0.7957747E-01            NaN
         13   -1    0    0    0    0  0.00000000000E+00  0.00000000000E+00  0.74505805969E-08  0.10566000000E+00  0.10566000000E+00 0.  1.
     999900   -1    0    0    0    0 -0.00000000000E+00 -0.00000000000E+00 -0.74505805969E-08  0.93827000000E+00  0.93827000000E+00 0. -1.
     999902    2    1    2    0    0  0.99800283070E-02  0.10183242635E-01  0.15643767459E-02  0.10295861278E+01  0.10294862058E+01 0.  0.
     999903    2    3    3    0    0 -0.10247138406E+00 -0.77688219354E-01  0.21107801571E-01  0.13787504260E+00  0.45034920981E-01 0.  0.
         14    1    1    2    0    0 -0.99800283070E-02 -0.10183242635E-01 -0.15643767459E-02  0.14343872217E-01  0.00000000000E+00 0.  1.
     999901    1    3    3    0    0  0.11245141237E+00  0.87871461989E-01 -0.19543424825E-01  0.89171108518E+00  0.88000000000E+00 0.  1.
        -11    1    4    4    0    0 -0.36158938338E-01 -0.55595792878E-01  0.88309103181E-02  0.66907451794E-01  0.51100000000E-03 0.  1.
         11    1    4    4    0    0 -0.66312445725E-01 -0.22092426476E-01  0.12276891252E-01  0.70967590811E-01  0.51100000000E-03 0. -1.
</event>
<event>
 8    1  0.2375757E+004  0.1043930E+01  0.7957747E-01            NaN
         13   -1    0    0    0    0  0.00000000000E+00  0.00000000000E+00  0.74505805969E-08  0.10566000000E+00  0.10566000000E+00 0.  1.
     999900   -1    0    0    0    0 -0.00000000000E+00 -0.00000000000E+00 -0.74505805969E-08  0.93827000000E+00  0.93827000000E+00 0.  1.
     999902    2    1    2    0    0  0.26087153811E-02 -0.58351766887E-02  0.15808682487E-01  0.10268780463E+01  0.10267364574E+01 0.  0.
     999903    2    3    3    0    0  0.81542634608E-01 -0.24619486752E-01 -0.96800022446E-01  0.13599975252E+00  0.43247750840E-01 0.  0.
         14    1    1    2    0    0 -0.26087153811E-02  0.58351766887E-02 -0.15808682487E-01  0.17051953698E-01  0.00000000000E+00 0. -1.
     999901    1    3    3    0    0 -0.78933919227E-01  0.18784310064E-01  0.11260870493E+00  0.89087829378E+00  0.88000000000E+00 0.  1.
        -11    1    4    4    0    0  0.58544760588E-01 -0.62901161796E-02 -0.37513930997E-01  0.69818412282E-01  0.51100000000E-03 0.  1.
         11    1    4    4    0    0  0.22997874020E-01 -0.18329370573E-01 -0.59286091450E-01  0.66181340236E-01  0.51100000000E-03 0. -1.
</event>
<event>
 8    1  0.2077555E+004  0.1043930E+01  0.7957747E-01            NaN
         13   -1    0    0    0    0  0.00000000000E+00  0.00000000000E+00  0.74505805969E-08  0.10566000000E+00  0.10566000000E+00 0. -1.
     999900   -1    0    0    0    0 -0.00000000000E+00 -0.00000000000E+00 -0.74505805969E-08  0.93827000000E+00  0.93827000000E+00 0.  1.
     999902    2    1    2    0    0 -0.60040859836E-02 -0.11443127873E-01  0.50244812868E-02  0.10300649491E+01  0.10299716306E+01 0.  0.
     999903    2    3    3    0    0 -0.21455486834E-01 -0.11713636613E+00 -0.60495929969E-01  0.14118771873E+00  0.45748750698E-01 0.  0.
         14    1    1    2    0    0  0.60040859836E-02  0.11443127873E-01 -0.50244812868E-02  0.13865050891E-01  0.00000000000E+00 0.  1.
     999901    1    3    3    0    0  0.15451400850E-01  0.10569323826E+00  0.65520411255E-01  0.88887723038E+00  0.88000000000E+00 0. -1.
        -11    1    4    4    0    0 -0.11200270136E-01 -0.99893516016E-01 -0.30404956432E-01  0.10501848928E+00  0.51100000000E-03 0.  1.
         11    1    4    4    0    0 -0.10255216698E-01 -0.17242850116E-01 -0.30090973537E-01  0.36169229450E-01  0.51100000000E-03 0. -1.
</event>
<event>
 8    1  0.2077555E+004  0.1043930E+01  0.7957747E-01            NaN
         13   -1    0    0    0    0  0.00000000000E+00  0.00000000000E+00  0.74505805969E-08  0.10566000000E+00  0.10566000000E+00 0. -1.
     999900   -1    0    0    0    0 -0.00000000000E+00 -0.00000000000E+00 -0.74505805969E-08  0.93827000000E+00  0.93827000000E+00 0.  1.
     999902    2    1    2    0    0 -0.11522053644E-02  0.49992099964E-03  0.16628684477E-01  0.10272539499E+01  0.10271185847E+01 0.  0.
     999903    2    3    3    0    0  0.85756013856E-01 -0.96132351241E-01 -0.14208396117E-01  0.13717431297E+00  0.44937631791E-01 0.  0.
         14    1    1    2    0    0  0.11522053644E-02 -0.49992099964E-03 -0.16628684477E-01  0.16676050061E-01  0.00000000000E+00 0.  1.
     999901    1    3    3    0    0 -0.86908219221E-01  0.96632272241E-01  0.30837080594E-01  0.89007963697E+00  0.88000000000E+00 0. -1.
        -11    1    4    4    0    0  0.48083314523E-01 -0.81568220234E-01 -0.10531277094E-02  0.94692924164E-01  0.51100000000E-03 0.  1.
         11    1    4    4    0    0  0.37672699334E-01 -0.14564131007E-01 -0.13155268408E-01  0.42481388807E-01  0.51100000000E-03 0. -1.
</event>
<event>
 8    1  0.2077555E+004  0.1043930E+01  0.7957747E-01            NaN
         13   -1    0    0    0    0  0.00000000000E+00  0.00000000000E+00  0.74505805969E-08  0.10566000000E+00  0.10566000000E+00 0. -1.
     999900   -1    0    0    0    0 -0.00000000000E+00 -0.00000000000E+00 -0.74505805969E-08  0.93827000000E+00  0.93827000000E+00 0.  1.
     999902    2    1    2    0    0 -0.31454301372E-02 -0.95807028826E-02 -0.82574449074E-02  0.10308966200E+01  0.10308142277E+01 0.  0.
     999903    2    3    3    0    0  0.73776669522E-01  0.10833747110E+00  0.15224039893E-01  0.13939615150E+00  0.44938970287E-01 0.  0.
         14    1    1    2    0    0  0.31454301372E-02  0.95807028826E-02  0.82574449074E-02  0.13033380025E-01  0.00000000000E+00 0. -1.
     999901    1    3    3    0    0 -0.76922099660E-01 -0.11791817398E+00 -0.23481484801E-01  0.89150046848E+00  0.88000000000E+00 0. -1.
        -11    1    4    4    0    0  0.55307194973E-01  0.43926782507E-01 -0.21966122007E-03  0.70631136259E-01  0.51100000000E-03 0. -1.
         11    1    4    4    0    0  0.18469474550E-01  0.64410688595E-01  0.15443701113E-01  0.68765015236E-01  0.51100000000E-03 0.  1.
</event>
<event>
 8    1  0.2077555E+004  0.1043930E+01  0.7957747E-01            NaN
         13   -1    0    0    0    0  0.00000000000E+00  0.00000000000E+00  0.74505805969E-08  0.10566000000E+00  0.10566000000E+00 0. -1.
     999900   -1    0    0    0    0 -0.00000000000E+00 -0.00000000000E+00 -0.74505805969E-08  0.93827000000E+00  0.93827000000E+00 0. -1.
     999902    2    1    2    0    0  0.91265382727E-02  0.58657479791E-02  0.71521551476E-02  0.10309356157E+01  0.10308537189E+01 0.  0.
     999903    2    3    3    0    0 -0.26506269511E-01  0.31150416215E-01  0.12792651425E+00  0.14161258257E+00  0.44899885723E-01 0.  0.
         14    1    1    2    0    0 -0.91265382727E-02 -0.58657479791E-02 -0.71521551476E-02  0.12994384305E-01  0.00000000000E+00 0. -1.
     999901    1    3    3    0    0  0.35632807784E-01 -0.25284668235E-01 -0.12077435911E+00  0.88932303313E+00  0.88000000000E+00 0. -1.
        -11    1    4    4    0    0  0.51642407153E-02  0.24338267462E-01  0.79851427412E-01  0.83639298334E-01  0.51100000000E-03 0. -1.
         11    1    4    4    0    0 -0.31670510226E-01  0.68121487529E-02  0.48075086842E-01  0.57973284231E-01  0.51100000000E-03 0.  1.
</event>
<event>
 7    1  0.2077555E+004  0.1043930E+01  0.7957747E-01            NaN
         13   -1    0    0    0    0  0.00000000000E+00  0.00000000000E+00  0.74505805969E-08  0.10566000000E+00  0.10566000000E+00 0.  1.
     999900   -1    0    0    0    0 -0.00000000000E+00 -0.00000000000E+00 -0.74505805969E-08  0.93827000000E+00  0.93827000000E+00 0.  1.
     999902    2    1    2    0    0  0.71852990250E-02  0.12107352033E-01  0.50204074244E-04  0.10298509725E+01  0.10297547312E+01 0.  0.
         14    1    1    2    0    0 -0.71852990250E-02 -0.12107352033E-01 -0.50204074244E-04  0.14079027516E-01  0.00000000000E+00 0.  1.
     999901    1    3    3    0    0  0.13524139993E-01 -0.80793813397E-01  0.10091424494E+00  0.88954720363E+00  0.88000000000E+00 0. -1.
        -11    1    3    3    0    0 -0.15776159284E-01  0.61581782086E-01 -0.55605500174E-01  0.84459670004E-01  0.51100000000E-03 0. -1.
         11    1    3    3    0    0  0.94373183158E-02  0.31319383344E-01 -0.45258540695E-01  0.55844098854E-01  0.51100000000E-03 0.  1.
</event>
<event>
 8    1  0.2077555E+004  0.1043930E+01  0.7957747E-01            NaN
         13   -1    0    0    0    0  0.00000000000E+00  0.00000000000E+00  0.74505805969E-08  0.10566000000E+00  0.10566000000E+00 0. -1.
     999900   -1    0    0    0    0 -0.00000000000E+00 -0.00000000000E+00 -0.74505805969E-08  0.93827000000E+00  0.93827000000E+00 0. -1.
     999902    2    1    2    0    0 -0.19754921281E-02 -0.10861881696E-01 -0.78953848960E-02  0.10303572278E+01  0.10302678276E+01 0.  0.
     999903    2    3    3    0    0  0.11098820029E+00  0.61636174034E-01  0.36109578124E-01  0.13909228363E+00  0.43878960574E-01 0.  0.
         14    1    1    2    0    0  0.19754921281E-02  0.10861881696E-01  0.78953848960E-02  0.13572772221E-01  0.00000000000E+00 0.  1.
     999901    1    3    3    0    0 -0.11296369242E+00 -0.72498055729E-01 -0.44004963020E-01  0.89126494414E+00  0.88000000000E+00 0. -1.
        -11    1    4    4    0    0  0.30354158327E-01  0.41119795559E-01  0.14391643170E-01  0.53099840194E-01  0.51100000000E-03 0.  1.
         11    1    4    4    0    0  0.80634041964E-01  0.20516378475E-01  0.21717934954E-01  0.85992443441E-01  0.51100000000E-03 0. -1.
</event>
<event>
 8    1  0.2077555E+004  0.1043930E+01  0.7957747E-01            NaN
         13   -1    0    0    0    0  0.00000000000E+00  0.00000000000E+00  0.74505805969E-08  0.10566000000E+00  0.10566000000E+00 0.  1.
     999900   -1    0    0    0    0 -0.00000000000E+00 -0.00000000000E+00 -0.74505805969E-08  0.93827000000E+00  0.93827000000E+00 0.  1.
     999902    2    1    2    0    0  0.62861584018E-02  0.21707081248E-02  0.10588177451E-01  0.10314265100E+01  0.10313507203E+01 0.  0.
     999903    2    3    3    0    0 -0.11449180039E+00 -0.63123774010E-02  0.68962812261E-01  0.14122042368E+00  0.45156617742E-01 0.  0.
         14    1    1    2    0    0 -0.62861584018E-02 -0.21707081248E-02 -0.10588177451E-01  0.12503490030E-01  0.00000000000E+00 0. -1.
     999901    1    3    3    0    0  0.12077795879E+00  0.84830855258E-02 -0.58374634810E-01  0.89020608629E+00  0.88000000000E+00 0.  1.
        -11    1    4    4    0    0 -0.77767766908E-01  0.39637956955E-03  0.68875670743E-01  0.10388504141E+00  0.51100000000E-03 0.  1.
         11    1    4    4    0    0 -0.36724033482E-01 -0.67087569705E-02  0.87141517505E-04  0.37335382279E-01  0.51100000000E-03 0. -1.
</event>
<event>
 8    1  0.2077555E+004  0.1043930E+01  0.7957747E-01            NaN
         13   -1    0    0    0    0  0.00000000000E+00  0.00000000000E+00  0.74505805969E-08  0.10566000000E+00  0.10566000000E+00 0. -1.
     999900   -1    0    0    0    0 -0.00000000000E+00 -0.00000000000E+00 -0.74505805969E-08  0.93827000000E+00  0.93827000000E+00 0. -1.
     999902    2    1    2    0    0  0.23360309154E-02  0.97225017453E-02  0.25064083753E-02  0.10336214519E+01  0.10335700459E+01 0.  0.
     999903    2    3    3    0    0 -0.17815850185E-01 -0.71083485203E-01  0.11286333528E+00  0.14282722363E+00  0.47866658247E-01 0.  0.
         14    1    1    2    0    0 -0.23360309154E-02 -0.97225017453E-02 -0.25064083753E-02  0.10308548082E-01  0.00000000000E+00 0.  1.
     999901    1    3    3    0    0  0.20151881100E-01  0.80805986948E-01 -0.11035692691E+00  0.89079422829E+00  0.88000000000E+00 0. -1.
        -11    1    4    4    0    0 -0.21291456733E-01 -0.55701288504E-01  0.11216645900E+00  0.12703359916E+00  0.51100000000E-03 0.  1.
         11    1    4    4    0    0  0.34756065479E-02 -0.15382196699E-01  0.69687628181E-03  0.15793624464E-01  0.51100000000E-03 0. -1.
</event>
<event>
 8    1  0.2077555E+004  0.1043930E+01  0.7957747E-01            NaN
         13   -1    0    0    0    0  0.00000000000E+00  0.00000000000E+00  0.74505805969E-08  0.10566000000E+00  0.10566000000E+00 0.  1.
     999900   -1    0    0    0    0 -0.00000000000E+00 -0.00000000000E+00 -0.74505805969E-08  0.93827000000E+00  0.93827000000E+00 0.  1.
     999902    2    1    2    0    0 -0.12150384078E-01  0.18911660234E-02 -0.46269463666E-02  0.10307916221E+01  0.10307078884E+01 0.  0.
     999903    2    3    3    0    0 -0.37326705349E-01  0.12699668022E+00  0.20857703933E-01  0.14122166740E+00  0.44576628533E-01 0.  0.
         14    1    1    2    0    0  0.12150384078E-01 -0.18911660234E-02  0.46269463666E-02  0.13138377938E-01  0.00000000000E+00 0.  1.
     999901    1    3    3    0    0  0.25176321271E-01 -0.12510551420E+00 -0.25484650300E-01  0.88956995466E+00  0.88000000000E+00 0. -1.
        -11    1    4    4    0    0 -0.43772252080E-01  0.78880954385E-01  0.21205233580E-01  0.92672207641E-01  0.51100000000E-03 0. -1.
         11    1    4    4    0    0  0.64455467314E-02  0.48115725833E-01 -0.34752964628E-03  0.48549459760E-01  0.51100000000E-03 0.  1.
</event>
<event>
 8    1  0.2077555E+004  0.1043930E+01  0.7957747E-01            NaN
         13   -1    0    0    0    0  0.00000000000E+00  0.00000000000E+00  0.74505805969E-08  0.10566000000E+00  0.10566000000E+00 0.  1.
     999900   -1    0    0    0    0 -0.00000000000E+00 -0.00000000000E+00 -0.74505805969E-08  0.93827000000E+00  0.93827000000E+00 0. -1.
     999902    2    1    2    0    0 -0.11335008025E-01  0.33872027746E-02 -0.55301193573E-02  0.10308709889E+01  0.10307882702E+01 0.  0.
     999903    2    3    3    0    0  0.12271611407E+00  0.44505654419E-01  0.19419316274E-01  0.13942109987E+00  0.44957038574E-01 0.  0.
         14    1    1    2    0    0  0.11335008025E-01 -0.33872027746E-02  0.55301193573E-02  0.13059011052E-01  0.00000000000E+00 0. -1.
     999901    1    3    3    0    0 -0.13405112209E+00 -0.41118451645E-01 -0.24949435631E-01  0.89144988908E+00  0.88000000000E+00 0. -1.
        -11    1    4    4    0    0  0.98159770318E-01  0.37386736587E-01  0.33469158330E-01  0.11024315971E+00  0.51100000000E-03 0.  1.
         11    1    4    4    0    0  0.24556343749E-01  0.71189178328E-02 -0.14049842057E-01  0.29177940164E-01  0.51100000000E-03 0. -1.
</event>
<event>
 8    1  0.2077555E+004  0.1043930E+01  0.7957747E-01            NaN
         13   -1    0    0    0    0  0.00000000000E+00  0.00000000000E+00  0.74505805969E-08  0.10566000000E+00  0.10566000000E+00 0. -1.
     999900   -1    0    0    0    0 -0.00000000000E+00 -0.00000000000E+00 -0.74505805969E-08  0.93827000000E+00  0.93827000000E+00 0. -1.
     999902    2    1    2    0    0 -0.89819260928E-02 -0.97618414005E-02 -0.40427674962E-02  0.10300623213E+01  0.10299689671E+01 0.  0.
     999903    2    3    3    0    0  0.20034824266E-01  0.80462279643E-01 -0.10257594104E+00  0.13950566946E+00  0.45436059513E-01 0.  0.
         14    1    1    2    0    0  0.89819260928E-02  0.97618414005E-02  0.40427674962E-02  0.13867678713E-01  0.00000000000E+00 0. -1.
     999901    1    3    3    0    0 -0.29016750359E-01 -0.90224121044E-01  0.98533173540E-01  0.89055665182E+00  0.88000000000E+00 0.  1.
        -11    1    4    4    0    0  0.60904032903E-02  0.38910674556E-01 -0.16091600495E-01  0.42548023857E-01  0.51100000000E-03 0.  1.
         11    1    4    4    0    0  0.13944420976E-01  0.41551605088E-01 -0.86484340541E-01  0.96957645606E-01  0.51100000000E-03 0. -1.
</event>
<event>
 8    1  0.2077555E+004  0.1043930E+01  0.7957747E-01            NaN
         13   -1    0    0    0    0  0.00000000000E+00  0.00000000000E+00  0.74505805969E-08  0.10566000000E+00  0.10566000000E+00 0. -1.
     999900   -1    0    0    0    0 -0.00000000000E+00 -0.00000000000E+00 -0.74505805969E-08  0.93827000000E+00  0.93827000000E+00 0.  1.
     999902    2    1    2    0    0  0.89177848966E-02 -0.10132120068E-01 -0.31012577996E-02  0.10300806482E+01  0.10299875423E+01 0.  0.
     999903    2    3    3    0    0 -0.11168826994E+00 -0.69111967494E-01 -0.16162174501E-01  0.13980258470E+00  0.45086728761E-01 0.  0.
         14    1    1    2    0    0 -0.89177848966E-02  0.10132120068E-01  0.31012577996E-02  0.13849351771E-01  0.00000000000E+00 0.  1.
     999901    1    3    3    0    0  0.12060605483E+00  0.58979847426E-01  0.13060916701E-01  0.89027806353E+00  0.88000000000E+00 0. -1.
        -11    1    4    4    0    0 -0.46174308374E-01 -0.28260891015E-01 -0.29183883414E-01  0.61503698156E-01  0.51100000000E-03 0.  1.
         11    1    4    4    0    0 -0.65513961563E-01 -0.40851076479E-01  0.13021708913E-01  0.78298886539E-01  0.51100000000E-03 0. -1.
</event>
<event>
 8    1  0.2077555E+004  0.1043930E+01  0.7957747E-01            NaN
         13   -1    0    0    0    0  0.00000000000E+00  0.00000000000E+00  0.74505805969E-08  0.10566000000E+00  0.10566000000E+00 0.  1.
     999900   -1    0    0    0    0 -0.00000000000E+00 -0.00000000000E+00 -0.74505805969E-08  0.93827000000E+00  0.93827000000E+00 0. -1.
     999902    2    1    2    0    0 -0.52730113779E-02 -0.96314310645E-02  0.84720599917E-02  0.10300611531E+01  0.10299677831E+01 0.  0.
     999903    2    3    3    0    0  0.11085385760E+00  0.45253364398E-01 -0.53763668672E-01  0.13856181134E+00  0.44411696190E-01 0.  0.
         14    1    1    2    0    0  0.52730113779E-02  0.96314310645E-02 -0.84720599917E-02  0.13868846882E-01  0.00000000000E+00 0.  1.
     999901    1    3    3    0    0 -0.11612686898E+00 -0.54884795462E-01  0.62235728664E-01  0.89149934178E+00  0.88000000000E+00 0.  1.
        -11    1    4    4    0    0  0.88622665823E-01  0.18055560263E-01 -0.26973299052E-01  0.94381142908E-01  0.51100000000E-03 0. -1.
         11    1    4    4    0    0  0.22231191776E-01  0.27197804135E-01 -0.26790369620E-01  0.44180668430E-01  0.51100000000E-03 0.  1.
</event>
<event>
 8    1  0.2077555E+004  0.1043930E+01  0.7957747E-01            NaN
         13   -1    0    0    0    0  0.00000000000E+00  0.00000000000E+00  0.74505805969E-08  0.10566000000E+00  0.10566000000E+00 0.  1.
     999900   -1    0    0    0    0 -0.00000000000E+00 -0.00000000000E+00 -0.74505805969E-08  0.93827000000E+00  0.93827000000E+00 0.  1.
     999902    2    1    2    0    0  0.40054515952E-02  0.11176358952E-01 -0.69150889407E-02  0.10301905278E+01  0.10300989032E+01 0.  0.
     999903    2    3    3    0    0 -0.65233572581E-02 -0.12086562833E+00 -0.52357682969E-01  0.13911759497E+00  0.44286837381E-01 0.  0.
         14    1    1    2    0    0 -0.40054515952E-02 -0.11176358952E-01  0.69150889407E-02  0.13739472223E-01  0.00000000000E+00 0.  1.
     999901    1    3    3    0    0  0.10528808853E-01  0.13204198728E+00  0.45442594028E-01  0.89107293280E+00  0.88000000000E+00 0. -1.
        -11    1    4    4    0    0  0.16268107686E-01 -0.34361067149E-01 -0.64376708036E-02  0.38562144516E-01  0.51100000000E-03 0. -1.
         11    1    4    4    0    0 -0.22791464944E-01 -0.86504561177E-01 -0.45920012165E-01  0.10055545046E+00  0.51100000000E-03 0.  1.
</event>
<event>
 8    1  0.2077555E+004  0.1043930E+01  0.7957747E-01            NaN
         13   -1    0    0    0    0  0.00000000000E+00  0.00000000000E+00  0.74505805969E-08  0.10566000000E+00  0.10566000000E+00 0.  1.
     999900   -1    0    0    0    0 -0.00000000000E+00 -0.00000000000E+00 -0.74505805969E-08  0.93827000000E+00  0.93827000000E+00 0.  1.
     999902    2    1    2    0    0 -0.29101028053E-02 -0.35034088158E-02 -0.12881888107E-01  0.10302667056E+01  0.10301761010E+01 0.  0.
     999903    2    3    3    0    0 -0.11049862345E+00 -0.69858384487E-01 -0.28097674980E-01  0.14110429486E+00  0.45064431877E-01 0.  0.
         14    1    1    2    0    0  0.29101028053E-02  0.35034088158E-02  0.12881888107E-01  0.13663294363E-01  0.00000000000E+00 0.  1.
     999901    1    3    3    0    0  0.10758852065E+00  0.66354975671E-01  0.15215786873E-01  0.88916241078E+00  0.88000000000E+00 0.  1.
        -11    1    4    4    0    0 -0.73729351784E-01 -0.59828496389E-01 -0.21150479401E-02  0.94974737922E-01  0.51100000000E-03 0. -1.
         11    1    4    4    0    0 -0.36769271667E-01 -0.10029888098E-01 -0.25982627040E-01  0.46129556936E-01  0.51100000000E-03 0.  1.
</event>
<event>
 8    1  0.2077555E+004  0.1043930E+01  0.7957747E-01            NaN
         13   -1    0    0    0    0  0.00000000000E+00  0.00000000000E+00  0.74505805969E-08  0.10566000000E+00  0.10566000000E+00 0.  1.
     999900   -1    0    0    0    0 -0.00000000000E+00 -0.00000000000E+00 -0.74505805969E-08  0.93827000000E+00  0.93827000000E+00 0.  1.
     999902    2    1    2    0    0  0.51608905115E-02 -0.53456472591E-02  0.12112708477E-01  0.10297198472E+01  0.10296217924E+01 0.  0.
     999903    2    3    3    0    0 -0.12213808594E+00 -0.19969746369E-01 -0.43067732581E-01  0.13872951351E+00  0.45547179097E-01 0.  0.
         14    1    1    2    0    0 -0.51608905115E-02  0.53456472591E-02 -0.12112708477E-01  0.14210152783E-01  0.00000000000E+00 0. -1.
     999901    1    3    3    0    0  0.12729897645E+00  0.14624099110E-01  0.55180441057E-01  0.89099033370E+00  0.88000000000E+00 0. -1.
        -11    1    4    4    0    0 -0.10357688659E+00 -0.38113901564E-03 -0.25989752593E-01  0.10678972358E+00  0.51100000000E-03 0. -1.
         11    1    4    4    0    0 -0.18561199349E-01 -0.19588607354E-01 -0.17077979988E-01  0.31939789930E-01  0.51100000000E-03 0.  1.
</event>
<event>
 8    1  0.2077555E+004  0.1043930E+01  0.7957747E-01            NaN
         13   -1    0    0    0    0  0.00000000000E+00  0.00000000000E+00  0.74505805969E-08  0.10566000000E+00  0.10566000000E+00 0.  1.
     999900   -1    0    0    0    0 -0.00000000000E+00 -0.00000000000E+00 -0.74505805969E-08  0.93827000000E+00  0.93827000000E+00 0. -1.
     999902    2    1    2    0    0 -0.77682248612E-02  0.10610180516E-01 -0.26894915112E-02  0.10305078313E+01  0.10304204170E+01 0.  0.
     999903    2    3    3    0    0 -0.43922142724E-01  0.26266169463E-01  0.12317724697E+00  0.14067939187E+00  0.44710075419E-01 0.  0.
         14    1    1    2    0    0  0.77682248612E-02 -0.10610180516E-01  0.26894915112E-02  0.13422168702E-01  0.00000000000E+00 0.  1.
     999901    1    3    3    0    0  0.36153917863E-01 -0.15655988947E-01 -0.12586673848E+00  0.88982843943E+00  0.88000000000E+00 0. -1.
        -11    1    4    4    0    0 -0.36091294902E-01  0.33700385921E-01  0.65670688192E-01  0.82165674022E-01  0.51100000000E-03 0.  1.
         11    1    4    4    0    0 -0.78308478218E-02 -0.74342164583E-02  0.57506558781E-01  0.58513717843E-01  0.51100000000E-03 0. -1.
</event>
<event>
 8    1  0.2077555E+004  0.1043930E+01  0.7957747E-01            NaN
         13   -1    0    0    0    0  0.00000000000E+00  0.00000000000E+00  0.74505805969E-08  0.10566000000E+00  0.10566000000E+00 0.  1.
     999900   -1    0    0    0    0 -0.00000000000E+00 -0.00000000000E+00 -0.74505805969E-08  0.93827000000E+00  0.93827000000E+00 0.  1.
     999902    2    1    2    0    0 -0.48073022844E-02  0.10322616680E-01  0.65397757737E-02  0.10307985402E+01  0.10307148952E+01 0.  0.
     999903    2    3    3    0    0  0.37203361095E-01  0.51378203462E-01  0.11803238434E+00  0.14182100456E+00  0.46451520028E-01 0.  0.
         14    1    1    2    0    0  0.48073022844E-02 -0.10322616680E-01 -0.65397757737E-02  0.13131459841E-01  0.00000000000E+00 0. -1.
     999901    1    3    3    0    0 -0.42010663379E-01 -0.41055586782E-01 -0.11149260856E+00  0.88897753560E+00  0.88000000000E+00 0. -1.
        -11    1    4    4    0    0 -0.37013844669E-03  0.37003858180E-01  0.43417419063E-01  0.57050468200E-01  0.51100000000E-03 0.  1.
         11    1    4    4    0    0  0.37573499541E-01  0.14374345281E-01  0.74614965275E-01  0.84770536356E-01  0.51100000000E-03 0. -1.
</event>
<event>
 8    1  0.2077555E+004  0.1043930E+01  0.7957747E-01            NaN
         13   -1    0    0    0    0  0.00000000000E+00  0.00000000000E+00  0.74505805969E-08  0.10566000000E+00  0.10566000000E+00 0. -1.
     999900   -1    0    0    0    0 -0.00000000000E+00 -0.00000000000E+00 -0.74505805969E-08  0.93827000000E+00  0.93827000000E+00 0.  1.
     999902    2    1    2    0    0  0.36327609699E-03  0.87993613663E-02  0.91674933491E-02  0.10312176570E+01  0.10311392983E+01 0.  0.
     999903    2    3    3    0    0  0.82195362591E-01  0.64916115599E-01  0.84877419745E-01  0.14241083129E+00  0.45896500862E-01 0.  0.
         14    1    1    2    0    0 -0.36327609699E-03 -0.87993613663E-02 -0.91674933491E-02  0.12712342990E-01  0.00000000000E+00 0.  1.
     999901    1    3    3    0    0 -0.81832086494E-01 -0.56116754232E-01 -0.75709926396E-01  0.88880682572E+00  0.88000000000E+00 0.  1.
        -11    1    4    4    0    0  0.37353631570E-01  0.47116231163E-02  0.40068253090E-01  0.54983808621E-01  0.51100000000E-03 0.  1.
         11    1    4    4    0    0  0.44841731021E-01  0.60204492482E-01  0.44809166655E-01  0.87427022673E-01  0.51100000000E-03 0. -1.
</event>
<event>
 8    1  0.2077555E+004  0.1043930E+01  0.7957747E-01            NaN
         13   -1    0    0    0    0  0.00000000000E+00  0.00000000000E+00  0.74505805969E-08  0.10566000000E+00  0.10566000000E+00 0.  1.
     999900   -1    0    0    0    0 -0.00000000000E+00 -0.00000000000E+00 -0.74505805969E-08  0.93827000000E+00  0.93827000000E+00 0. -1.
     999902    2    1    2    0    0  0.12851514559E-01 -0.35927884177E-02  0.31339980826E-02  0.10302226480E+01  0.10301314542E+01 0.  0.
     999903    2    3    3    0    0 -0.26760957001E-01 -0.12397234197E+00 -0.23599227820E-01  0.14074243451E+00  0.56269164937E-01 0.  0.
         14    1    1    2    0    0 -0.12851514559E-01  0.35927884177E-02 -0.31339980826E-02  0.13707352008E-01  0.00000000000E+00 0. -1.
     999901    1    3    3    0    0  0.39612471560E-01  0.12037955356E+00  0.26733225903E-01  0.88948021349E+00  0.88000000000E+00 0.  1.
        -11    1    4    4    0    0 -0.20922453144E-01 -0.43612489829E-01  0.16016594771E-01  0.50956753661E-01  0.51100000000E-03 0. -1.
         11    1    4    4    0    0 -0.58385038570E-02 -0.80359852145E-01 -0.39615822592E-01  0.89785680844E-01  0.51100000000E-03 0.  1.
</event>
<event>
 7    1  0.4129841E+004  0.1043930E+01  0.7957747E-01            NaN
         13   -1    0    0    0    0  0.00000000000E+00  0.00000000000E+00  0.74505805969E-08  0.10566000000E+00  0.10566000000E+00 0.  1.
     999900   -1    0    0    0    0 -0.00000000000E+00 -0.00000000000E+00 -0.74505805969E-08  0.93827000000E+00  0.93827000000E+00 0.  1.
     999903    2    1    2    0    0 -0.69812126051E-01  0.66566557331E-01 -0.18825387526E-01  0.10803967096E+00  0.44870210458E-01 0.  0.
         14    1    1    2    0    0 -0.79241736481E-03  0.44953433240E-01 -0.78815038127E-02  0.45645998595E-01  0.00000000000E+00 0.  1.
     999901    1    1    2    0    0  0.70604543416E-01 -0.11151999057E+00  0.26706891339E-01  0.89024433045E+00  0.88000000000E+00 0.  1.
        -11    1    3    3    0    0 -0.33700962296E-01  0.12350569841E-01  0.93039696810E-02  0.37082562046E-01  0.51100000000E-03 0.  1.
         11    1    3    3    0    0 -0.36111163755E-01  0.54215987490E-01 -0.28129357207E-01  0.70957108912E-01  0.51100000000E-03 0. -1.
</event>
<event>
 8    1  0.2077555E+004  0.1043930E+01  0.7957747E-01            NaN
         13   -1    0    0    0    0  0.00000000000E+00  0.00000000000E+00  0.74505805969E-08  0.10566000000E+00  0.10566000000E+00 0. -1.
     999900   -1    0    0    0    0 -0.00000000000E+00 -0.00000000000E+00 -0.74505805969E-08  0.93827000000E+00  0.93827000000E+00 0. -1.
     999902    2    1    2    0    0 -0.15205556528E-02  0.25744052203E-02 -0.13926903999E-01  0.10296857623E+01  0.10295872332E+01 0.  0.
     999903    2    3    3    0    0  0.12037683834E+00  0.46915488212E-01  0.26379365513E-01  0.13926468123E+00  0.44801052120E-01 0.  0.
         14    1    1    2    0    0  0.15205556528E-02 -0.25744052203E-02  0.13926903999E-01  0.14244237668E-01  0.00000000000E+00 0. -1.
     999901    1    3    3    0    0 -0.12189739399E+00 -0.44341082991E-01 -0.40306269513E-01  0.89042108110E+00  0.88000000000E+00 0. -1.
        -11    1    4    4    0    0  0.26127647709E-01  0.31875917212E-01  0.10172252342E-01  0.42455434418E-01  0.51100000000E-03 0.  1.
         11    1    4    4    0    0  0.94249190632E-01  0.15039571000E-01  0.16207113172E-01  0.96809246815E-01  0.51100000000E-03 0. -1.
</event>
<event>
 8    1  0.2077555E+004  0.1043930E+01  0.7957747E-01            NaN
         13   -1    0    0    0    0  0.00000000000E+00  0.00000000000E+00  0.74505805969E-08  0.10566000000E+00  0.10566000000E+00 0. -1.
     999900   -1    0    0    0    0 -0.00000000000E+00 -0.00000000000E+00 -0.74505805969E-08  0.93827000000E+00  0.93827000000E+00 0. -1.
     999902    2    1    2    0    0 -0.38203399917E-02  0.22664764485E-02 -0.18317160348E-02  0.10391250966E+01  0.10391139876E+01 0.  0.
     999903    2    3    3    0    0  0.91717137139E-02 -0.93775079553E-01 -0.10476190794E+00  0.14784096774E+00  0.44766153615E-01 0.  0.
         14    1    1    2    0    0  0.38203399917E-02 -0.22664764485E-02  0.18317160348E-02  0.48049034096E-02  0.00000000000E+00 0. -1.
     999901    1    3    3    0    0 -0.12992053706E-01  0.96041556002E-01  0.10293019190E+00  0.89128412885E+00  0.88000000000E+00 0.  1.
        -11    1    4    4    0    0  0.11516754732E-01 -0.29766852784E-01 -0.99797345738E-02  0.33444840968E-01  0.51100000000E-03 0.  1.
         11    1    4    4    0    0 -0.23450410182E-02 -0.64008226769E-01 -0.94782173363E-01  0.11439612677E+00  0.51100000000E-03 0. -1.
</event>
<event>
 8    1  0.2077555E+004  0.1043930E+01  0.7957747E-01            NaN
         13   -1    0    0    0    0  0.00000000000E+00  0.00000000000E+00  0.74505805969E-08  0.10566000000E+00  0.10566000000E+00 0.  1.
     999900   -1    0    0    0    0 -0.00000000000E+00 -0.00000000000E+00 -0.74505805969E-08  0.93827000000E+00  0.93827000000E+00 0.  1.
     999902    2    1    2    0    0 -0.64941963301E-02  0.39699555930E-02  0.10346221347E-01  0.10310855682E+01  0.10310055623E+01 0.  0.
     999903    2    3    3    0    0 -0.27231310472E-01  0.99629908087E-02  0.13199451497E+00  0.14245501966E+00  0.45056355671E-01 0.  0.
         14    1    1    2    0    0  0.64941963301E-02 -0.39699555930E-02 -0.10346221347E-01  0.12844431850E-01  0.00000000000E+00 0. -1.
     999901    1    3    3    0    0  0.20737114142E-01 -0.59930352158E-02 -0.12164829363E+00  0.88863054849E+00  0.88000000000E+00 0.  1.
        -11    1    4    4    0    0 -0.12057726521E-01  0.27404139310E-01  0.64562308513E-01  0.71168310516E-01  0.51100000000E-03 0.  1.
         11    1    4    4    0    0 -0.15173583951E-01 -0.17441148501E-01  0.67432206461E-01  0.71286709141E-01  0.51100000000E-03 0. -1.
</event>
<event>
 8    1  0.2077555E+004  0.1043930E+01  0.7957747E-01            NaN
         13   -1    0    0    0    0  0.00000000000E+00  0.00000000000E+00  0.74505805969E-08  0.10566000000E+00  0.10566000000E+00 0. -1.
     999900   -1    0    0    0    0 -0.00000000000E+00 -0.00000000000E+00 -0.74505805969E-08  0.93827000000E+00  0.93827000000E+00 0. -1.
     999902    2    1    2    0    0  0.14822762816E-01 -0.10106715926E-01 -0.21118686921E-01  0.10162197322E+01  0.10158418603E+01 0.  0.
     999903    2    3    3    0    0  0.10848609324E+00 -0.52992170041E-01 -0.17130894375E-01  0.13020173908E+00  0.45624804705E-01 0.  0.
         14    1    1    2    0    0 -0.14822762816E-01  0.10106715926E-01  0.21118686921E-01  0.27710267801E-01  0.00000000000E+00 0.  1.
     999901    1    3    3    0    0 -0.93663330428E-01  0.42885454116E-01 -0.39877925467E-02  0.88601799312E+00  0.88000000000E+00 0. -1.
        -11    1    4    4    0    0  0.16169595620E-02  0.40274398375E-03  0.79431237655E-02  0.81321028704E-02  0.51100000000E-03 0. -1.
         11    1    4    4    0    0  0.10686913368E+00 -0.53394914025E-01 -0.25074018140E-01  0.12206963621E+00  0.51100000000E-03 0.  1.
</event>
<event>
 8    1  0.2077555E+004  0.1043930E+01  0.7957747E-01            NaN
         13   -1    0    0    0    0  0.00000000000E+00  0.00000000000E+00  0.74505805969E-08  0.10566000000E+00  0.10566000000E+00 0.  1.
     999900   -1    0    0    0    0 -0.00000000000E+00 -0.00000000000E+00 -0.74505805969E-08  0.93827000000E+00  0.93827000000E+00 0. -1.
     999902    2    1    2    0    0 -0.69288326547E-02  0.23054552093E-02 -0.83359315670E-02  0.10328479604E+01  0.10327885058E+01 0.  0.
     999903    2    3    3    0    0 -0.10450153300E+00  0.56718283146E-01  0.65040604690E-01  0.14275509800E+00  0.44846445823E-01 0.  0.
         14    1    1    2    0    0  0.69288326547E-02 -0.23054552093E-02  0.83359315670E-02  0.11082039558E-01  0.00000000000E+00 0.  1.
     999901    1    3    3    0    0  0.97572700350E-01 -0.54412827937E-01 -0.73376536257E-01  0.89009286244E+00  0.88000000000E+00 0. -1.
        -11    1    4    4    0    0 -0.49644932177E-01  0.29199456622E-01  0.56688734522E-01  0.80815229386E-01  0.51100000000E-03 0. -1.
         11    1    4    4    0    0 -0.54856600828E-01  0.27518826524E-01  0.83518701680E-02  0.61939868614E-01  0.51100000000E-03 0.  1.
</event>
<event>
 8    1  0.2077555E+004  0.1043930E+01  0.7957747E-01            NaN
         13   -1    0    0    0    0  0.00000000000E+00  0.00000000000E+00  0.74505805969E-08  0.10566000000E+00  0.10566000000E+00 0. -1.
     999900   -1    0    0    0    0 -0.00000000000E+00 -0.00000000000E+00 -0.74505805969E-08  0.93827000000E+00  0.93827000000E+00 0. -1.
     999902    2    1    2    0    0 -0.12417048976E-01  0.57022379770E-02  0.19921339551E-02  0.10301217698E+01  0.10300292197E+01 0.  0.
     999903    2    3    3    0    0  0.13914184245E-01 -0.12420281343E+00  0.41983826541E-01  0.13929743713E+00  0.44957656876E-01 0.  0.
         14    1    1    2    0    0  0.12417048976E-01 -0.57022379770E-02 -0.19921339551E-02  0.13808230188E-01  0.00000000000E+00 0. -1.
     999901    1    3    3    0    0 -0.26331233221E-01  0.12990505141E+00 -0.39991692586E-01  0.89082433268E+00  0.88000000000E+00 0. -1.
        -11    1    4    4    0    0  0.28439963626E-01 -0.60021430947E-01  0.27662339872E-01  0.71950468186E-01  0.51100000000E-03 0. -1.
         11    1    4    4    0    0 -0.14525779381E-01 -0.64181382486E-01  0.14321486669E-01  0.67346968943E-01  0.51100000000E-03 0.  1.
</event>
<event>
 8    1  0.2077555E+004  0.1043930E+01  0.7957747E-01            NaN
         13   -1    0    0    0    0  0.00000000000E+00  0.00000000000E+00  0.74505805969E-08  0.10566000000E+00  0.10566000000E+00 0.  1.
     999900   -1    0    0    0    0 -0.00000000000E+00 -0.00000000000E+00 -0.74505805969E-08  0.93827000000E+00  0.93827000000E+00 0. -1.
     999902    2    1    2    0    0 -0.45741008099E-02  0.57065478499E-02  0.11788216941E-01  0.10300573959E+01  0.10299639749E+01 0.  0.
     999903    2    3    3    0    0 -0.93841978692E-01  0.29954511317E-01  0.90833669812E-01  0.14168534466E+00  0.46047710124E-01 0.  0.
         14    1    1    2    0    0  0.45741008099E-02 -0.57065478499E-02 -0.11788216941E-01  0.13872604126E-01  0.00000000000E+00 0. -1.
     999901    1    3    3    0    0  0.89267877882E-01 -0.24247963467E-01 -0.79045452872E-01  0.88837205121E+00  0.88000000000E+00 0. -1.
        -11    1    4    4    0    0 -0.45339207371E-01 -0.47453975489E-02  0.22036134036E-01  0.50636102211E-01  0.51100000000E-03 0.  1.
         11    1    4    4    0    0 -0.48502771321E-01  0.34699908866E-01  0.68797535777E-01  0.91049242452E-01  0.51100000000E-03 0. -1.
</event>
<event>
 8    1  0.2480239E+004  0.1043930E+01  0.7957747E-01            NaN
         13   -1    0    0    0    0  0.00000000000E+00  0.00000000000E+00  0.74505805969E-08  0.10566000000E+00  0.10566000000E+00 0. -1.
     999900   -1    0    0    0    0 -0.00000000000E+00 -0.00000000000E+00 -0.74505805969E-08  0.93827000000E+00  0.93827000000E+00 0.  1.
     999902    2    1    2    0    0  0.16804804664E-02 -0.91723198546E-02 -0.12874827387E-01  0.10280329359E+01  0.10279100159E+01 0.  0.
     999903    2    3    3    0    0  0.51200557607E-01 -0.36873130307E-01  0.11330927241E+00  0.13722319193E+00  0.44834008887E-01 0.  0.
         14    1    1    2    0    0 -0.16804804664E-02  0.91723198546E-02  0.12874827387E-01  0.15897064080E-01  0.00000000000E+00 0. -1.
     999901    1    3    3    0    0 -0.49520077141E-01  0.27700810453E-01 -0.12618409980E+00  0.89080974399E+00  0.88000000000E+00 0.  1.
        -11    1    4    4    0    0  0.33180309107E-01 -0.43554794845E-01  0.63589412756E-01  0.83915598085E-01  0.51100000000E-03 0.  1.
         11    1    4    4    0    0  0.18020248501E-01  0.66816645381E-02  0.49719859652E-01  0.53307593848E-01  0.51100000000E-03 0. -1.
</event>
<event>
 8    1  0.2077555E+004  0.1043930E+01  0.7957747E-01            NaN
         13   -1    0    0    0    0  0.00000000000E+00  0.00000000000E+00  0.74505805969E-08  0.10566000000E+00  0.10566000000E+00 0. -1.
     999900   -1    0    0    0    0 -0.00000000000E+00 -0.00000000000E+00 -0.74505805969E-08  0.93827000000E+00  0.93827000000E+00 0.  1.
     999902    2    1    2    0    0 -0.60899746051E-02 -0.11778459967E-01 -0.30655501585E-02  0.10303205361E+01  0.10302306487E+01 0.  0.
     999903    2    3    3    0    0  0.12217721135E+00 -0.33734398597E-01 -0.40780630246E-01  0.13995153310E+00  0.43105581908E-01 0.  0.
         14    1    1    2    0    0  0.60899746051E-02  0.11778459967E-01  0.30655501585E-02  0.13609463901E-01  0.00000000000E+00 0.  1.
     999901    1    3    3    0    0 -0.12826718596E+00  0.21955938630E-01  0.37715080087E-01  0.89036900300E+00  0.88000000000E+00 0. -1.
        -11    1    4    4    0    0  0.49215029100E-01 -0.31744473511E-01 -0.31126982583E-01  0.66324813256E-01  0.51100000000E-03 0.  1.
         11    1    4    4    0    0  0.72962182252E-01 -0.19899250860E-02 -0.96536476626E-02  0.73626719844E-01  0.51100000000E-03 0. -1.
</event>
<event>
 8    1  0.2077555E+004  0.1043930E+01  0.7957747E-01            NaN
         13   -1    0    0    0    0  0.00000000000E+00  0.00000000000E+00  0.74505805969E-08  0.10566000000E+00  0.10566000000E+00 0. -1.
     999900   -1    0    0    0    0 -0.00000000000E+00 -0.00000000000E+00 -0.74505805969E-08  0.93827000000E+00  0.93827000000E+00 0.  1.
     999902    2    1    2    0    0  0.10932917136E-01 -0.60121090557E-02  0.48926985167E-02  0.10305280363E+01  0.10304408867E+01 0.  0.
     999903    2    3    3    0    0  0.64553067242E-01  0.10956027793E+00  0.37716892823E-01  0.14074743139E+00  0.47082082034E-01 0.  0.
         14    1    1    2    0    0 -0.10932917136E-01  0.60121090557E-02 -0.48926985167E-02  0.13401963706E-01  0.00000000000E+00 0.  1.
     999901    1    3    3    0    0 -0.53620150107E-01 -0.11557238698E+00 -0.32824194306E-01  0.88978060490E+00  0.88000000000E+00 0. -1.
        -11    1    4    4    0    0  0.35264979290E-01  0.67393078816E-01  0.45775592288E-01  0.88775626198E-01  0.51100000000E-03 0. -1.
         11    1    4    4    0    0  0.29288087952E-01  0.42167199113E-01 -0.80586994645E-02  0.51971805192E-01  0.51100000000E-03 0.  1.
</event>
<event>
 8    1  0.2077555E+004  0.1043930E+01  0.7957747E-01            NaN
         13   -1    0    0    0    0  0.00000000000E+00  0.00000000000E+00  0.74505805969E-08  0.10566000000E+00  0.10566000000E+00 0. -1.
     999900   -1    0    0    0    0 -0.00000000000E+00 -0.00000000000E+00 -0.74505805969E-08  0.93827000000E+00  0.93827000000E+00 0.  1.
     999902    2    1    2    0    0  0.60290539971E-02  0.10113790071E-01 -0.58462002581E-02  0.10307840387E+01  0.10307002077E+01 0.  0.
     999903    2    3    3    0    0  0.98495696116E-02 -0.12689246695E+00 -0.35301843903E-01  0.13968755358E+00  0.45471752246E-01 0.  0.
         14    1    1    2    0    0 -0.60290539971E-02 -0.10113790071E-01  0.58462002581E-02  0.13145961325E-01  0.00000000000E+00 0.  1.
     999901    1    3    3    0    0 -0.38205156145E-02  0.13700625702E+00  0.29455643645E-01  0.89109648509E+00  0.88000000000E+00 0.  1.
        -11    1    4    4    0    0 -0.99902410626E-02 -0.53009701515E-01 -0.32821530958E-01  0.63145446285E-01  0.51100000000E-03 0. -1.
         11    1    4    4    0    0  0.19839810674E-01 -0.73882765436E-01 -0.24803129452E-02  0.76542107297E-01  0.51100000000E-03 0.  1.
</event>
<event>
 8    1  0.2077555E+004  0.1043930E+01  0.7957747E-01            NaN
         13   -1    0    0    0    0  0.00000000000E+00  0.00000000000E+00  0.74505805969E-08  0.10566000000E+00  0.10566000000E+00 0. -1.
     999900   -1    0    0    0    0 -0.00000000000E+00 -0.00000000000E+00 -0.74505805969E-08  0.93827000000E+00  0.93827000000E+00 0. -1.
     999902    2    1    2    0    0 -0.38730905755E-02  0.10996967899E-01  0.81723180013E-02  0.10296919905E+01  0.10295935481E+01 0.  0.
     999903    2    3    3    0    0 -0.62535702391E-01 -0.95955787733E-01  0.65089254572E-01  0.13945621742E+00  0.45751483520E-01 0.  0.
         14    1    1    2    0    0  0.38730905755E-02 -0.10996967899E-01 -0.81723180013E-02  0.14238009520E-01  0.00000000000E+00 0.  1.
     999901    1    3    3    0    0  0.58662611815E-01  0.10695275563E+00 -0.56916936570E-01  0.89023577306E+00  0.88000000000E+00 0. -1.
        -11    1    4    4    0    0 -0.27274366546E-01 -0.67080185309E-01  0.59130345334E-01  0.93489577985E-01  0.51100000000E-03 0. -1.
         11    1    4    4    0    0 -0.35261335845E-01 -0.28875602424E-01  0.59589092376E-02  0.45966639438E-01  0.51100000000E-03 0.  1.
</event>
<event>
 8    1  0.2077555E+004  0.1043930E+01  0.7957747E-01            NaN
         13   -1    0    0    0    0  0.00000000000E+00  0.00000000000E+00  0.74505805969E-08  0.10566000000E+00  0.10566000000E+00 0.  1.
     999900   -1    0    0    0    0 -0.00000000000E+00 -0.00000000000E+00 -0.74505805969E-08  0.93827000000E+00  0.93827000000E+00 0.  1.
     999902    2    1    2    0    0  0.75845288809E-05  0.94935220246E-02 -0.81761563697E-02  0.10314009717E+01  0.10313248702E+01 0.  0.
     999903    2    3    3    0    0  0.11412051154E+00  0.87995070017E-02  0.68631813619E-01  0.14071488442E+00  0.44603031042E-01 0.  0.
         14    1    1    2    0    0 -0.75845288809E-05 -0.94935220246E-02  0.81761563697E-02  0.12529028332E-01  0.00000000000E+00 0.  1.
     999901    1    3    3    0    0 -0.11411292701E+00  0.69401502290E-03 -0.76807969989E-01  0.89068608725E+00  0.88000000000E+00 0. -1.
        -11    1    4    4    0    0  0.85162237140E-01  0.82684076907E-02  0.26478064578E-01  0.89567417207E-01  0.51100000000E-03 0.  1.
         11    1    4    4    0    0  0.28958274401E-01  0.53109931101E-03  0.42153749041E-01  0.51147467210E-01  0.51100000000E-03 0. -1.
</event>
<event>
 8    1  0.2077555E+004  0.1043930E+01  0.7957747E-01            NaN
         13   -1    0    0    0    0  0.00000000000E+00  0.00000000000E+00  0.74505805969E-08  0.10566000000E+00  0.10566000000E+00 0.  1.
     999900   -1    0    0    0    0 -0.00000000000E+00 -0.00000000000E+00 -0.74505805969E-08  0.93827000000E+00  0.93827000000E+00 0.  1.
     999902    2    1    2    0    0 -0.75715818738E-02  0.85068689161E-02  0.71277934535E-02  0.10304949298E+01  0.10304073463E+01 0.  0.
     999903    2    3    3    0    0  0.91394932810E-03 -0.18412831463E-01 -0.13065254156E+00  0.13932710320E+00  0.44744691349E-01 0.  0.
         14    1    1    2    0    0  0.75715818738E-02 -0.85068689161E-02 -0.71277934535E-02  0.13435070165E-01  0.00000000000E+00 0. -1.
     999901    1    3    3    0    0 -0.84855312019E-02  0.26919700379E-01  0.13778033502E+00  0.89116782663E+00  0.88000000000E+00 0. -1.
        -11    1    4    4    0    0 -0.31374675932E-02 -0.29444547253E-01 -0.52355512180E-01  0.60151357777E-01  0.51100000000E-03 0.  1.
         11    1    4    4    0    0  0.40514169213E-02  0.11031715789E-01 -0.78297029383E-01  0.79175745425E-01  0.51100000000E-03 0. -1.
</event>
<event>
 8    1  0.2077555E+004  0.1043930E+01  0.7957747E-01            NaN
         13   -1    0    0    0    0  0.00000000000E+00  0.00000000000E+00  0.74505805969E-08  0.10566000000E+00  0.10566000000E+00 0. -1.
     999900   -1    0    0    0    0 -0.00000000000E+00 -0.00000000000E+00 -0.74505805969E-08  0.93827000000E+00  0.93827000000E+00 0. -1.
     999902    2    1    2    0    0 -0.12783812145E-02  0.63200535393E-02  0.11990943739E-01  0.10303152996E+01  0.10302253426E+01 0.  0.
     999903    2    3    3    0    0  0.37328612197E-01 -0.12138876595E+00 -0.38543552667E-01  0.13882565981E+00  0.40722236956E-01 0.  0.
         14    1    1    2    0    0  0.12783812145E-02 -0.63200535393E-02 -0.11990943739E-01  0.13614700401E-01  0.00000000000E+00 0.  1.
     999901    1    3    3    0    0 -0.38606993412E-01  0.12770881949E+00  0.50534496405E-01  0.89148963978E+00  0.88000000000E+00 0.  1.
        -11    1    4    4    0    0  0.31180989018E-01 -0.38402785584E-01 -0.76343268137E-02  0.50055689823E-01  0.51100000000E-03 0. -1.
         11    1    4    4    0    0  0.61476231796E-02 -0.82985980368E-01 -0.30909225853E-01  0.88769969991E-01  0.51100000000E-03 0.  1.
</event>
<event>
 8    1  0.2077555E+004  0.1043930E+01  0.7957747E-01            NaN
         13   -1    0    0    0    0  0.00000000000E+00  0.00000000000E+00  0.74505805969E-08  0.10566000000E+00  0.10566000000E+00 0.  1.
     999900   -1    0    0    0    0 -0.00000000000E+00 -0.00000000000E+00 -0.74505805969E-08  0.93827000000E+00  0.93827000000E+00 0. -1.
     999902    2    1    2    0    0  0.69412971080E-02 -0.10325538780E-01  0.82544325017E-02  0.10289990251E+01  0.10288906937E+01 0.  0.
     999903    2    3    3    0    0  0.12142037636E+00 -0.38948357686E-01 -0.34355928383E-01  0.14010062355E+00  0.46775768757E-01 0.  0.
         14    1    1    2    0    0 -0.69412971080E-02  0.10325538780E-01 -0.82544325017E-02  0.14930974937E-01  0.00000000000E+00 0. -1.
     999901    1    3    3    0    0 -0.11447907925E+00  0.28622818906E-01  0.42610360885E-01  0.88889840151E+00  0.88000000000E+00 0.  1.
        -11    1    4    4    0    0  0.30514958720E-01 -0.11018985019E-01 -0.31099106529E-01  0.44944368774E-01  0.51100000000E-03 0. -1.
         11    1    4    4    0    0  0.90905417643E-01 -0.27929372667E-01 -0.32568218537E-02  0.95156254781E-01  0.51100000000E-03 0.  1.
</event>
<event>
 8    1  0.2077555E+004  0.1043930E+01  0.7957747E-01            NaN
         13   -1    0    0    0    0  0.00000000000E+00  0.00000000000E+00  0.74505805969E-08  0.10566000000E+00  0.10566000000E+00 0. -1.
     999900   -1    0    0    0    0 -0.00000000000E+00 -0.00000000000E+00 -0.74505805969E-08  0.93827000000E+00  0.93827000000E+00 0.  1.
     999902    2    1    2    0    0 -0.81123404340E-02  0.21724441103E-02 -0.96609943228E-02  0.10311290472E+01  0.10310495854E+01 0.  0.
     999903    2    3    3    0    0 -0.92563951336E-01  0.68101485757E-01  0.68145068774E-01  0.14122315525E+00  0.45763869269E-01 0.  0.
         14    1    1    2    0    0  0.81123404340E-02 -0.21724441103E-02  0.96609943228E-02  0.12800952778E-01  0.00000000000E+00 0. -1.
     999901    1    3    3    0    0  0.84451610902E-01 -0.65929041647E-01 -0.77806063096E-01  0.88990589197E+00  0.88000000000E+00 0.  1.
        -11    1    4    4    0    0 -0.11653930073E-01 -0.63241690042E-02  0.11464470742E-01  0.17535803663E-01  0.51100000000E-03 0.  1.
         11    1    4    4    0    0 -0.80910021264E-01  0.74425654761E-01  0.56680598032E-01  0.12368735158E+00  0.51100000000E-03 0. -1.
</event>
<event>
 8    1  0.2568245E+004  0.1043930E+01  0.7957747E-01            NaN
         13   -1    0    0    0    0  0.00000000000E+00  0.00000000000E+00  0.74505805969E-08  0.10566000000E+00  0.10566000000E+00 0. -1.
     999900   -1    0    0    0    0 -0.00000000000E+00 -0.00000000000E+00 -0.74505805969E-08  0.93827000000E+00  0.93827000000E+00 0. -1.
     999902    2    1    2    0    0  0.98867572635E-03 -0.18454615930E-01 -0.19391907865E-01  0.10171420098E+01  0.10167891973E+01 0.  0.
     999903    2    3    3    0    0 -0.61070929696E-01 -0.10117558677E+00  0.29233698049E-01  0.12975336709E+00  0.44890637748E-01 0.  0.
         14    1    1    2    0    0 -0.98867572635E-03  0.18454615930E-01  0.19391907865E-01  0.26787990210E-01  0.00000000000E+00 0. -1.
     999901    1    3    3    0    0  0.62059605423E-01  0.82720970840E-01 -0.48625605914E-01  0.88738864270E+00  0.88000000000E+00 0.  1.
        -11    1    4    4    0    0 -0.32457448145E-01 -0.84406714785E-01  0.33227466239E-01  0.96344720014E-01  0.51100000000E-03 0. -1.
         11    1    4    4    0    0 -0.28613481552E-01 -0.16768871985E-01 -0.39937681896E-02  0.33408647077E-01  0.51100000000E-03 0.  1.
</event>
<event>
 8    1  0.2077555E+004  0.1043930E+01  0.7957747E-01            NaN
         13   -1    0    0    0    0  0.00000000000E+00  0.00000000000E+00  0.74505805969E-08  0.10566000000E+00  0.10566000000E+00 0. -1.
     999900   -1    0    0    0    0 -0.00000000000E+00 -0.00000000000E+00 -0.74505805969E-08  0.93827000000E+00  0.93827000000E+00 0. -1.
     999902    2    1    2    0    0 -0.63363103647E-02  0.12478085405E-01 -0.64077142166E-03  0.10299206448E+01  0.10298253602E+01 0.  0.
     999903    2    3    3    0    0 -0.33290243429E-01 -0.24368924844E-01  0.12575350913E+00  0.13971857179E+00  0.44780011627E-01 0.  0.
         14    1    1    2    0    0  0.63363103647E-02 -0.12478085405E-01  0.64077142166E-03  0.14009355176E-01  0.00000000000E+00 0.  1.
     999901    1    3    3    0    0  0.26953933064E-01  0.36847010250E-01 -0.12639428055E+00  0.89020207303E+00  0.88000000000E+00 0. -1.
        -11    1    4    4    0    0  0.35429033910E-02  0.64765435277E-02  0.46150135427E-01  0.46739639509E-01  0.51100000000E-03 0. -1.
         11    1    4    4    0    0 -0.36833146820E-01 -0.30845468372E-01  0.79603373698E-01  0.92978932285E-01  0.51100000000E-03 0.  1.
</event>
<event>
 8    1  0.2077555E+004  0.1043930E+01  0.7957747E-01            NaN
         13   -1    0    0    0    0  0.00000000000E+00  0.00000000000E+00  0.74505805969E-08  0.10566000000E+00  0.10566000000E+00 0. -1.
     999900   -1    0    0    0    0 -0.00000000000E+00 -0.00000000000E+00 -0.74505805969E-08  0.93827000000E+00  0.93827000000E+00 0.  1.
     999902    2    1    2    0    0 -0.43148542238E-02 -0.13095007339E-01  0.11654534180E-03  0.10301419339E+01  0.10300496557E+01 0.  0.
     999903    2    3    3    0    0  0.95967556847E-01  0.33194340938E-01  0.84405639155E-01  0.13924131257E+00  0.44183650459E-01 0.  0.
         14    1    1    2    0    0  0.43148542238E-02  0.13095007339E-01 -0.11654534180E-03  0.13788066108E-01  0.00000000000E+00 0. -1.
     999901    1    3    3    0    0 -0.10028241107E+00 -0.46289348277E-01 -0.84289093813E-01  0.89090062132E+00  0.88000000000E+00 0.  1.
        -11    1    4    4    0    0  0.28908582791E-01  0.27772321573E-01  0.48683565460E-01  0.63066303772E-01  0.51100000000E-03 0. -1.
         11    1    4    4    0    0  0.67058974057E-01  0.54220193643E-02  0.35722073695E-01  0.76175008799E-01  0.51100000000E-03 0.  1.
</event>
<event>
 8    1  0.2077555E+004  0.1043930E+01  0.7957747E-01            NaN
         13   -1    0    0    0    0  0.00000000000E+00  0.00000000000E+00  0.74505805969E-08  0.10566000000E+00  0.10566000000E+00 0. -1.
     999900   -1    0    0    0    0 -0.00000000000E+00 -0.00000000000E+00 -0.74505805969E-08  0.93827000000E+00  0.93827000000E+00 0. -1.
     999902    2    1    2    0    0 -0.94445790839E-02  0.81220974893E-02  0.60612032943E-02  0.10300769596E+01  0.10299838038E+01 0.  0.
     999903    2    3    3    0    0  0.26265986069E-01  0.86773619206E-01 -0.97388223909E-01  0.13981683456E+00  0.42950181086E-01 0.  0.
         14    1    1    2    0    0  0.94445790839E-02 -0.81220974893E-02 -0.60612032943E-02  0.13853040355E-01  0.00000000000E+00 0.  1.
     999901    1    3    3    0    0 -0.35710565153E-01 -0.78651521717E-01  0.10344942720E+00  0.89026012509E+00  0.88000000000E+00 0. -1.
        -11    1    4    4    0    0  0.39009990928E-02  0.55199098026E-01 -0.32247647324E-01  0.64049434781E-01  0.51100000000E-03 0.  1.
         11    1    4    4    0    0  0.22364986976E-01  0.31574521181E-01 -0.65140576584E-01  0.75767399777E-01  0.51100000000E-03 0. -1.
</event>
<event>
 8    1  0.2077555E+004  0.1043930E+01  0.7957747E-01            NaN
         13   -1    0    0    0    0  0.00000000000E+00  0.00000000000E+00  0.74505805969E-08  0.10566000000E+00  0.10566000000E+00 0. -1.
     999900   -1    0    0    0    0 -0.00000000000E+00 -0.00000000000E+00 -0.74505805969E-08  0.93827000000E+00  0.93827000000E+00 0.  1.
     999902    2    1    2    0    0 -0.49865421761E-02 -0.11601349592E-01 -0.88427243289E-02  0.10285140768E+01  0.10283985392E+01 0.  0.
     999903    2    3    3    0    0 -0.27076332008E-01  0.88900064429E-01 -0.92336665092E-01  0.13859288298E+00  0.45228069611E-01 0.  0.
         14    1    1    2    0    0  0.49865421761E-02  0.11601349592E-01  0.88427243289E-02  0.15415923222E-01  0.00000000000E+00 0. -1.
     999901    1    3    3    0    0  0.22089789832E-01 -0.10050141402E+00  0.83493940764E-01  0.88992119380E+00  0.88000000000E+00 0. -1.
        -11    1    4    4    0    0 -0.37265134658E-01  0.62628723176E-01 -0.52605622682E-01  0.89881365624E-01  0.51100000000E-03 0.  1.
         11    1    4    4    0    0  0.10188802650E-01  0.26271341253E-01 -0.39731042410E-01  0.48711517352E-01  0.51100000000E-03 0. -1.
</event>
<event>
 8    1  0.2077555E+004  0.1043930E+01  0.7957747E-01            NaN
         13   -1    0    0    0    0  0.00000000000E+00  0.00000000000E+00  0.74505805969E-08  0.10566000000E+00  0.10566000000E+00 0. -1.
     999900   -1    0    0    0    0 -0.00000000000E+00 -0.00000000000E+00 -0.74505805969E-08  0.93827000000E+00  0.93827000000E+00 0. -1.
     999902    2    1    2    0    0 -0.25055226234E-01 -0.23662666803E-02 -0.71650610305E-02  0.10177631951E+01  0.10174267638E+01 0.  0.
     999903    2    3    3    0    0 -0.14512818700E-01  0.44109092598E-01 -0.11309381912E+00  0.13013038634E+00  0.44581067385E-01 0.  0.
         14    1    1    2    0    0  0.25055226234E-01  0.23662666803E-02  0.71650610305E-02  0.26166804910E-01  0.00000000000E+00 0. -1.
     999901    1    3    3    0    0 -0.10542407534E-01 -0.46475359278E-01  0.10592875809E+00  0.88763280875E+00  0.88000000000E+00 0. -1.
        -11    1    4    4    0    0  0.44562885953E-02  0.32548355604E-02 -0.61042817766E-01  0.61293875587E-01  0.51100000000E-03 0. -1.
         11    1    4    4    0    0 -0.18969107295E-01  0.40854257038E-01 -0.52051001355E-01  0.68836510754E-01  0.51100000000E-03 0.  1.
</event>
<event>
 8    1  0.2077555E+004  0.1043930E+01  0.7957747E-01            NaN
         13   -1    0    0    0    0  0.00000000000E+00  0.00000000000E+00  0.74505805969E-08  0.10566000000E+00  0.10566000000E+00 0. -1.
     999900   -1    0    0    0    0 -0.00000000000E+00 -0.00000000000E+00 -0.74505805969E-08  0.93827000000E+00  0.93827000000E+00 0.  1.
     999902    2    1    2    0    0  0.45717795990E-02 -0.24975777141E-02 -0.17379790489E-01  0.10257862358E+01  0.10256257628E+01 0.  0.
     999903    2    3    3    0    0 -0.89852344144E-01 -0.63214496545E-01  0.64013721820E-01  0.13492857978E+00  0.45149183153E-01 0.  0.
         14    1    1    2    0    0 -0.45717795990E-02  0.24975777141E-02  0.17379790489E-01  0.18143764234E-01  0.00000000000E+00 0. -1.
     999901    1    3    3    0    0  0.94424123743E-01  0.60716918831E-01 -0.81393512309E-01  0.89085765598E+00  0.88000000000E+00 0. -1.
        -11    1    4    4    0    0 -0.30630846639E-01 -0.49054422829E-01  0.29239501145E-01  0.64805823142E-01  0.51100000000E-03 0. -1.
         11    1    4    4    0    0 -0.59221497505E-01 -0.14160073716E-01  0.34774220676E-01  0.70122756641E-01  0.51100000000E-03 0.  1.
</event>
<event>
 8    1  0.2077555E+004  0.1043930E+01  0.7957747E-01            NaN
         13   -1    0    0    0    0  0.00000000000E+00  0.00000000000E+00  0.74505805969E-08  0.10566000000E+00  0.10566000000E+00 0. -1.
     999900   -1    0    0    0    0 -0.00000000000E+00 -0.00000000000E+00 -0.74505805969E-08  0.93827000000E+00  0.93827000000E+00 0.  1.
     999902    2    1    2    0    0 -0.10199375307E-01  0.69956111768E-02  0.98660954693E-03  0.10315227751E+01  0.10314481549E+01 0.  0.
     999903    2    3    3    0    0 -0.54858161166E-01 -0.85196361748E-01 -0.87430579428E-01  0.14117937707E+00  0.44940765349E-01 0.  0.
         14    1    1    2    0    0  0.10199375307E-01 -0.69956111768E-02 -0.98660954693E-03  0.12407224943E-01  0.00000000000E+00 0. -1.
     999901    1    3    3    0    0  0.44658785859E-01  0.92191972925E-01  0.88417188975E-01  0.89034339798E+00  0.88000000000E+00 0.  1.
        -11    1    4    4    0    0  0.64888096910E-02 -0.21280802328E-01 -0.17311235351E-01  0.28194275825E-01  0.51100000000E-03 0.  1.
         11    1    4    4    0    0 -0.61346970857E-01 -0.63915559420E-01 -0.70119344077E-01  0.11298510125E+00  0.51100000000E-03 0. -1.
</event>
<event>
 8    1  0.2077555E+004  0.1043930E+01  0.7957747E-01            NaN
         13   -1    0    0    0    0  0.00000000000E+00  0.00000000000E+00  0.74505805969E-08  0.10566000000E+00  0.10566000000E+00 0. -1.
     999900   -1    0    0    0    0 -0.00000000000E+00 -0.00000000000E+00 -0.74505805969E-08  0.93827000000E+00  0.93827000000E+00 0. -1.
     999902    2    1    2    0    0 -0.89353718858E-02  0.16571401972E-02  0.85601914762E-02  0.10314454551E+01  0.10313698963E+01 0.  0.
     999903    2    3    3    0    0 -0.86362450987E-01 -0.10128267118E-01 -0.10184939887E+00  0.14109489149E+00  0.44423120305E-01 0.  0.
         14    1    1    2    0    0  0.89353718858E-02 -0.16571401972E-02 -0.85601914762E-02  0.12484544945E-01  0.00000000000E+00 0. -1.
     999901    1    3    3    0    0  0.77427079102E-01  0.11785407315E-01  0.11040959035E+00  0.89035056357E+00  0.88000000000E+00 0. -1.
        -11    1    4    4    0    0 -0.29258641341E-01 -0.68867305075E-02 -0.68689195947E-01  0.74979743338E-01  0.51100000000E-03 0. -1.
         11    1    4    4    0    0 -0.57103809646E-01 -0.32415366104E-02 -0.33160202927E-01  0.66115148149E-01  0.51100000000E-03 0.  1.
</event>
<event>
 8    1  0.2077555E+004  0.1043930E+01  0.7957747E-01            NaN
         13   -1    0    0    0    0  0.00000000000E+00  0.00000000000E+00  0.74505805969E-08  0.10566000000E+00  0.10566000000E+00 0. -1.
     999900   -1    0    0    0    0 -0.00000000000E+00 -0.00000000000E+00 -0.74505805969E-08  0.93827000000E+00  0.93827000000E+00 0.  1.
     999902    2    1    2    0    0 -0.11577241069E-01  0.98822998050E-02  0.61244555550E-02  0.10275226445E+01  0.10273916408E+01 0.  0.
     999903    2    3    3    0    0  0.31535472593E-01 -0.61840024434E-01 -0.10824269251E+00  0.13618508638E+00  0.44846656703E-01 0.  0.
         14    1    1    2    0    0  0.11577241069E-01 -0.98822998050E-02 -0.61244555550E-02  0.16407355547E-01  0.00000000000E+00 0. -1.
     999901    1    3    3    0    0 -0.43112713661E-01  0.71722324239E-01  0.11436714806E+00  0.89133755807E+00  0.88000000000E+00 0.  1.
        -11    1    4    4    0    0  0.22856428514E-01 -0.29757124826E-01 -0.91648001518E-01  0.99032924351E-01  0.51100000000E-03 0. -1.
         11    1    4    4    0    0  0.86790440790E-02 -0.32082899609E-01 -0.16594690991E-01  0.37152162030E-01  0.51100000000E-03 0.  1.
</event>
<event>
 8    1  0.2077555E+004  0.1043930E+01  0.7957747E-01            NaN
         13   -1    0    0    0    0  0.00000000000E+00  0.00000000000E+00  0.74505805969E-08  0.10566000000E+00  0.10566000000E+00 0. -1.
     999900   -1    0    0    0    0 -0.00000000000E+00 -0.00000000000E+00 -0.74505805969E-08  0.93827000000E+00  0.93827000000E+00 0.  1.
     999902    2    1    2    0    0  0.21406254721E-02  0.21820977978E-02  0.14763106644E-01  0.10288537556E+01  0.10287432902E+01 0.  0.
     999903    2    3    3    0    0  0.65820864881E-01  0.11180664457E+00 -0.21834517180E-01  0.13901551173E+00  0.44893811770E-01 0.  0.
         14    1    1    2    0    0 -0.21406254721E-02 -0.21820977978E-02 -0.14763106644E-01  0.15076244426E-01  0.00000000000E+00 0.  1.
     999901    1    3    3    0    0 -0.63680239409E-01 -0.10962454678E+00  0.36597623824E-01  0.88983824385E+00  0.88000000000E+00 0. -1.
        -11    1    4    4    0    0  0.53373041660E-03  0.15349429331E-01 -0.16309200637E-01  0.22408502748E-01  0.51100000000E-03 0.  1.
         11    1    4    4    0    0  0.65287134465E-01  0.96457215242E-01 -0.55253165428E-02  0.11660700898E+00  0.51100000000E-03 0. -1.
</event>
<event>
 8    1  0.2077555E+004  0.1043930E+01  0.7957747E-01            NaN
         13   -1    0    0    0    0  0.00000000000E+00  0.00000000000E+00  0.74505805969E-08  0.10566000000E+00  0.10566000000E+00 0. -1.
     999900   -1    0    0    0    0 -0.00000000000E+00 -0.00000000000E+00 -0.74505805969E-08  0.93827000000E+00  0.93827000000E+00 0. -1.
     999902    2    1    2    0    0 -0.14810806706E-04  0.13354447899E-01  0.15092459535E-02  0.10304905312E+01  0.10304028899E+01 0.  0.
     999903    2    3    3    0    0  0.32785219083E-01  0.12388383034E+00  0.43261035889E-01  0.14198853442E+00  0.43210562017E-01 0.  0.
         14    1    1    2    0    0  0.14810806706E-04 -0.13354447899E-01 -0.15092459535E-02  0.13439468791E-01  0.00000000000E+00 0.  1.
     999901    1    3    3    0    0 -0.32800029890E-01 -0.11052938244E+00 -0.41751789936E-01  0.88850199679E+00  0.88000000000E+00 0. -1.
        -11    1    4    4    0    0 -0.15204806801E-02  0.43127907351E-01 -0.21114928372E-02  0.43209348260E-01  0.51100000000E-03 0. -1.
         11    1    4    4    0    0  0.34305699763E-01  0.80755922986E-01  0.45372528727E-01  0.98779186156E-01  0.51100000000E-03 0.  1.
</event>
<event>
 8    1  0.2077555E+004  0.1043930E+01  0.7957747E-01            NaN
         13   -1    0    0    0    0  0.00000000000E+00  0.00000000000E+00  0.74505805969E-08  0.10566000000E+00  0.10566000000E+00 0. -1.
     999900   -1    0    0    0    0 -0.00000000000E+00 -0.00000000000E+00 -0.74505805969E-08  0.93827000000E+00  0.93827000000E+00 0. -1.
     999902    2    1    2    0    0 -0.19895898893E-02  0.11552598354E-01  0.78482546713E-02  0.10298226935E+01  0.10297260625E+01 0.  0.
     999903    2    3    3    0    0  0.22854530880E-01  0.12680064354E+00 -0.36767526114E-01  0.14084017948E+00  0.43397838600E-01 0.  0.
         14    1    1    2    0    0  0.19895898893E-02 -0.11552598354E-01 -0.78482546713E-02  0.14107306548E-01  0.00000000000E+00 0.  1.
     999901    1    3    3    0    0 -0.24844120769E-01 -0.11524804519E+00  0.44615780786E-01  0.88898251397E+00  0.88000000000E+00 0. -1.
        -11    1    4    4    0    0  0.28137275741E-01  0.88884842500E-01 -0.92492687311E-02  0.93691150091E-01  0.51100000000E-03 0.  1.
         11    1    4    4    0    0 -0.52827448608E-02  0.37915801039E-01 -0.27518257383E-01  0.47149029387E-01  0.51100000000E-03 0. -1.
</event>
<event>
 8    1  0.2077555E+004  0.1043930E+01  0.7957747E-01            NaN
         13   -1    0    0    0    0  0.00000000000E+00  0.00000000000E+00  0.74505805969E-08  0.10566000000E+00  0.10566000000E+00 0.  1.
     999900   -1    0    0    0    0 -0.00000000000E+00 -0.00000000000E+00 -0.74505805969E-08  0.93827000000E+00  0.93827000000E+00 0. -1.
     999902    2    1    2    0    0  0.21542131213E-02  0.13549274480E-01  0.77709482782E-02  0.10281625934E+01  0.10280416856E+01 0.  0.
     999903    2    3    3    0    0  0.45949095024E-01  0.10110963701E+00 -0.72246497007E-01  0.13912513621E+00  0.42447251591E-01 0.  0.
         14    1    1    2    0    0 -0.21542131213E-02 -0.13549274480E-01 -0.77709482782E-02  0.15767406580E-01  0.00000000000E+00 0.  1.
     999901    1    3    3    0    0 -0.43794881903E-01 -0.87560362525E-01  0.80017445285E-01  0.88903745721E+00  0.88000000000E+00 0.  1.
        -11    1    4    4    0    0  0.16525768629E-01  0.15712926633E-01  0.10042550404E-02  0.22831266748E-01  0.51100000000E-03 0. -1.
         11    1    4    4    0    0  0.29423326395E-01  0.85396710373E-01 -0.73250752048E-01  0.11629386947E+00  0.51100000000E-03 0.  1.
</event>
<event>
 8    1  0.2077555E+004  0.1043930E+01  0.7957747E-01            NaN
         13   -1    0    0    0    0  0.00000000000E+00  0.00000000000E+00  0.74505805969E-08  0.10566000000E+00  0.10566000000E+00 0. -1.
     999900   -1    0    0    0    0 -0.00000000000E+00 -0.00000000000E+00 -0.74505805969E-08  0.93827000000E+00  0.93827000000E+00 0. -1.
     999902    2    1    2    0    0 -0.99039233691E-02 -0.68479629417E-02  0.73214262807E-02  0.10298379605E+01  0.10297415401E+01 0.  0.
     999903    2    3    3    0    0 -0.29445128140E-02  0.89845045125E-01 -0.95204885238E-01  0.13859746784E+00  0.45436611103E-01 0.  0.
         14    1    1    2    0    0  0.99039233691E-02  0.68479629417E-02 -0.73214262807E-02  0.14092039502E-01  0.00000000000E+00 0.  1.
     999901    1    3    3    0    0 -0.69594105550E-02 -0.96693008067E-01  0.10252631152E+00  0.89124049266E+00  0.88000000000E+00 0.  1.
        -11    1    4    4    0    0 -0.20235886855E-01  0.35413846360E-01 -0.56168990454E-01  0.69417924490E-01  0.51100000000E-03 0. -1.
         11    1    4    4    0    0  0.17291374041E-01  0.54431198765E-01 -0.39035894784E-01  0.69179543347E-01  0.51100000000E-03 0.  1.
</event>
<event>
 8    1  0.2077555E+004  0.1043930E+01  0.7957747E-01            NaN
         13   -1    0    0    0    0  0.00000000000E+00  0.00000000000E+00  0.74505805969E-08  0.10566000000E+00  0.10566000000E+00 0.  1.
     999900   -1    0    0    0    0 -0.00000000000E+00 -0.00000000000E+00 -0.74505805969E-08  0.93827000000E+00  0.93827000000E+00 0. -1.
     999902    2    1    2    0    0  0.90794918159E-02 -0.94275354210E-02  0.34476048152E-02  0.10303948024E+01  0.10303058998E+01 0.  0.
     999903    2    3    3    0    0 -0.10850955748E+00  0.66171430441E-01 -0.33452130299E-01  0.13859663092E+00  0.44011348651E-01 0.  0.
         14    1    1    2    0    0 -0.90794918159E-02  0.94275354210E-02 -0.34476048152E-02  0.13535197624E-01  0.00000000000E+00 0. -1.
     999901    1    3    3    0    0  0.11758904930E+00 -0.75598965862E-01  0.36899735114E-01  0.89179817145E+00  0.88000000000E+00 0.  1.
        -11    1    4    4    0    0 -0.65849019144E-01  0.16690378198E-01 -0.26401053979E-01  0.72883048913E-01  0.51100000000E-03 0. -1.
         11    1    4    4    0    0 -0.42660538339E-01  0.49481052243E-01 -0.70510763204E-02  0.65713582011E-01  0.51100000000E-03 0.  1.
</event>
<event>
 8    1  0.2077555E+004  0.1043930E+01  0.7957747E-01            NaN
         13   -1    0    0    0    0  0.00000000000E+00  0.00000000000E+00  0.74505805969E-08  0.10566000000E+00  0.10566000000E+00 0. -1.
     999900   -1    0    0    0    0 -0.00000000000E+00 -0.00000000000E+00 -0.74505805969E-08  0.93827000000E+00  0.93827000000E+00 0. -1.
     999902    2    1    2    0    0 -0.17379389090E-01  0.24385909672E-02 -0.26397053275E-02  0.10261829457E+01  0.10260294733E+01 0.  0.
     999903    2    3    3    0    0 -0.12781156785E+00  0.28158673082E-01 -0.95189078717E-02  0.13888135543E+00  0.45483112596E-01 0.  0.
         14    1    1    2    0    0  0.17379389090E-01 -0.24385909672E-02  0.26397053275E-02  0.17747054270E-01  0.00000000000E+00 0. -1.
     999901    1    3    3    0    0  0.11043217876E+00 -0.25720082114E-01  0.68792025442E-02  0.88730159030E+00  0.88000000000E+00 0. -1.
        -11    1    4    4    0    0 -0.80345493555E-01 -0.22571196362E-02 -0.16556962141E-01  0.82066357541E-01  0.51100000000E-03 0. -1.
         11    1    4    4    0    0 -0.47466074296E-01  0.30415792718E-01  0.70380542693E-02  0.56814997884E-01  0.51100000000E-03 0.  1.
</event>
<event>
 8    1  0.2077555E+004  0.1043930E+01  0.7957747E-01            NaN
         13   -1    0    0    0    0  0.00000000000E+00  0.00000000000E+00  0.74505805969E-08  0.10566000000E+00  0.10566000000E+00 0.  1.
     999900   -1    0    0    0    0 -0.00000000000E+00 -0.00000000000E+00 -0.74505805969E-08  0.93827000000E+00  0.93827000000E+00 0. -1.
     999902    2    1    2    0    0 -0.30462426387E-02 -0.12059897709E-01  0.49012610058E-02  0.10305605166E+01  0.10304737917E+01 0.  0.
     999903    2    3    3    0    0  0.32168692377E-01 -0.14117675603E-01 -0.12794033481E+00  0.13989154573E+00  0.44348413274E-01 0.  0.
         14    1    1    2    0    0  0.30462426387E-02  0.12059897709E-01 -0.49012610058E-02  0.13369483401E-01  0.00000000000E+00 0. -1.
     999901    1    3    3    0    0 -0.35214935015E-01  0.20577778947E-02  0.13284159582E+00  0.89066897087E+00  0.88000000000E+00 0.  1.
        -11    1    4    4    0    0  0.35614406839E-01 -0.23967512410E-01 -0.79642302955E-01  0.90476434316E-01  0.51100000000E-03 0.  1.
         11    1    4    4    0    0 -0.34457144629E-02  0.98498368066E-02 -0.48298031858E-01  0.49415111409E-01  0.51100000000E-03 0. -1.
</event>
<event>
 8    1  0.2077555E+004  0.1043930E+01  0.7957747E-01            NaN
         13   -1    0    0    0    0  0.00000000000E+00  0.00000000000E+00  0.74505805969E-08  0.10566000000E+00  0.10566000000E+00 0. -1.
     999900   -1    0    0    0    0 -0.00000000000E+00 -0.00000000000E+00 -0.74505805969E-08  0.93827000000E+00  0.93827000000E+00 0.  1.
     999902    2    1    2    0    0  0.95259391935E-03 -0.12906157197E-01  0.37576472800E-02  0.10304542350E+01  0.10303661166E+01 0.  0.
     999903    2    3    3    0    0 -0.55466762129E-01 -0.79496781810E-01  0.93361762676E-01  0.14160871834E+00  0.44048954137E-01 0.  0.
         14    1    1    2    0    0 -0.95259391935E-03  0.12906157197E-01 -0.37576472800E-02  0.13475764982E-01  0.00000000000E+00 0. -1.
     999901    1    3    3    0    0  0.56419356048E-01  0.66590624613E-01 -0.89604115396E-01  0.88884551668E+00  0.88000000000E+00 0.  1.
        -11    1    4    4    0    0 -0.28382121554E-01 -0.79723711419E-02  0.19987264165E-01  0.35620996271E-01  0.51100000000E-03 0. -1.
         11    1    4    4    0    0 -0.27084640575E-01 -0.71524410668E-01  0.73374498511E-01  0.10598772207E+00  0.51100000000E-03 0.  1.
</event>
<event>
 8    1  0.2077555E+004  0.1043930E+01  0.7957747E-01            NaN
         13   -1    0    0    0    0  0.00000000000E+00  0.00000000000E+00  0.74505805969E-08  0.10566000000E+00  0.10566000000E+00 0.  1.
     999900   -1    0    0    0    0 -0.00000000000E+00 -0.00000000000E+00 -0.74505805969E-08  0.93827000000E+00  0.93827000000E+00 0. -1.
     999902    2    1    2    0    0  0.32576241076E-02 -0.66384912338E-02  0.12298392624E-01  0.10295796641E+01  0.10294796513E+01 0.  0.
     999903    2    3    3    0    0 -0.11319087424E+00 -0.67927977290E-01  0.62223978836E-02  0.13977430804E+00  0.45516533748E-01 0.  0.
         14    1    1    2    0    0 -0.32576241076E-02  0.66384912338E-02 -0.12298392624E-01  0.14350335948E-01  0.00000000000E+00 0. -1.
     999901    1    3    3    0    0  0.11644849835E+00  0.61289486057E-01  0.60759947404E-02  0.88980535601E+00  0.88000000000E+00 0. -1.
        -11    1    4    4    0    0 -0.63753395143E-01 -0.31027772593E-01  0.25167004875E-01  0.75238669045E-01  0.51100000000E-03 0. -1.
         11    1    4    4    0    0 -0.49437479095E-01 -0.36900204698E-01 -0.18944606991E-01  0.64535638999E-01  0.51100000000E-03 0.  1.
</event>
<event>
 8    1  0.2077555E+004  0.1043930E+01  0.7957747E-01            NaN
         13   -1    0    0    0    0  0.00000000000E+00  0.00000000000E+00  0.74505805969E-08  0.10566000000E+00  0.10566000000E+00 0. -1.
     999900   -1    0    0    0    0 -0.00000000000E+00 -0.00000000000E+00 -0.74505805969E-08  0.93827000000E+00  0.93827000000E+00 0.  1.
     999902    2    1    2    0    0 -0.12376344156E-02 -0.65539242729E-02 -0.10025398414E-01  0.10318886431E+01  0.10318183840E+01 0.  0.
     999903    2    3    3    0    0  0.20009135324E-01  0.91692386303E-01 -0.96278136116E-01  0.14197668256E+00  0.45607452195E-01 0.  0.
         14    1    1    2    0    0  0.12376344156E-02  0.65539242729E-02  0.10025398414E-01  0.12041356887E-01  0.00000000000E+00 0. -1.
     999901    1    3    3    0    0 -0.21246769740E-01 -0.98246310576E-01  0.86252737701E-01  0.88991196055E+00  0.88000000000E+00 0. -1.
        -11    1    4    4    0    0 -0.34451575016E-02  0.80936907365E-02 -0.33999963844E-01  0.35123149095E-01  0.51100000000E-03 0.  1.
         11    1    4    4    0    0  0.23454292826E-01  0.83598695566E-01 -0.62278172271E-01  0.10685353347E+00  0.51100000000E-03 0. -1.
</event>
<event>
 8    1  0.2077555E+004  0.1043930E+01  0.7957747E-01            NaN
         13   -1    0    0    0    0  0.00000000000E+00  0.00000000000E+00  0.74505805969E-08  0.10566000000E+00  0.10566000000E+00 0. -1.
     999900   -1    0    0    0    0 -0.00000000000E+00 -0.00000000000E+00 -0.74505805969E-08  0.93827000000E+00  0.93827000000E+00 0.  1.
     999902    2    1    2    0    0 -0.22596152448E-02  0.67260204400E-02 -0.11987514800E-01  0.10299999705E+01  0.10299057692E+01 0.  0.
     999903    2    3    3    0    0 -0.15274930300E-01 -0.12957781609E+00  0.16133985540E-01  0.13896744969E+00  0.45032351326E-01 0.  0.
         14    1    1    2    0    0  0.22596152448E-02 -0.67260204400E-02  0.11987514800E-01  0.13930029544E-01  0.00000000000E+00 0. -1.
     999901    1    3    3    0    0  0.13015315055E-01  0.13630383653E+00 -0.28121500339E-01  0.89103252076E+00  0.88000000000E+00 0. -1.
        -11    1    4    4    0    0 -0.60955731554E-02 -0.45611384351E-01  0.27696711020E-01  0.53711482169E-01  0.51100000000E-03 0. -1.
         11    1    4    4    0    0 -0.91793571445E-02 -0.83966431740E-01 -0.11562725480E-01  0.85255967523E-01  0.51100000000E-03 0.  1.
</event>
<event>
 8    1  0.2077555E+004  0.1043930E+01  0.7957747E-01            NaN
         13   -1    0    0    0    0  0.00000000000E+00  0.00000000000E+00  0.74505805969E-08  0.10566000000E+00  0.10566000000E+00 0. -1.
     999900   -1    0    0    0    0 -0.00000000000E+00 -0.00000000000E+00 -0.74505805969E-08  0.93827000000E+00  0.93827000000E+00 0.  1.
     999902    2    1    2    0    0  0.24513824692E-03  0.13849718349E-01  0.13329945387E-03  0.10300774710E+01  0.10299843221E+01 0.  0.
     999903    2    3    3    0    0  0.80606155992E-01  0.82018155136E-01 -0.68590942294E-01  0.14112986267E+00  0.44593616314E-01 0.  0.
         14    1    1    2    0    0 -0.24513824692E-03 -0.13849718349E-01 -0.13329945387E-03  0.13852529005E-01  0.00000000000E+00 0.  1.
     999901    1    3    3    0    0 -0.80361017745E-01 -0.68168436788E-01  0.68724241748E-01  0.88894760833E+00  0.88000000000E+00 0.  1.
        -11    1    4    4    0    0  0.32898356626E-02  0.92771731157E-02 -0.24079401990E-01  0.26018602593E-01  0.51100000000E-03 0.  1.
         11    1    4    4    0    0  0.77316320329E-01  0.72740982021E-01 -0.44511540304E-01  0.11511126007E+00  0.51100000000E-03 0. -1.
</event>
<event>
 8    1  0.2077555E+004  0.1043930E+01  0.7957747E-01            NaN
         13   -1    0    0    0    0  0.00000000000E+00  0.00000000000E+00  0.74505805969E-08  0.10566000000E+00  0.10566000000E+00 0. -1.
     999900   -1    0    0    0    0 -0.00000000000E+00 -0.00000000000E+00 -0.74505805969E-08  0.93827000000E+00  0.93827000000E+00 0.  1.
     999902    2    1    2    0    0 -0.28354057773E-02 -0.91641747818E-02 -0.92570542790E-02  0.10305990331E+01  0.10305128103E+01 0.  0.
     999903    2    3    3    0    0 -0.79938556207E-01 -0.83638326921E-01  0.66559109599E-01  0.14085784270E+00  0.45003047451E-01 0.  0.
         14    1    1    2    0    0  0.28354057773E-02  0.91641747818E-02  0.92570542790E-02  0.13330966930E-01  0.00000000000E+00 0. -1.
     999901    1    3    3    0    0  0.77103150430E-01  0.74474152139E-01 -0.75816163878E-01  0.88974119037E+00  0.88000000000E+00 0.  1.
        -11    1    4    4    0    0 -0.27380094663E-01 -0.39224210840E-01  0.51741342380E-01  0.70467268516E-01  0.51100000000E-03 0. -1.
         11    1    4    4    0    0 -0.52558461544E-01 -0.44414116080E-01  0.14817767219E-01  0.70390574181E-01  0.51100000000E-03 0.  1.
</event>
<event>
 8    1  0.2077555E+004  0.1043930E+01  0.7957747E-01            NaN
         13   -1    0    0    0    0  0.00000000000E+00  0.00000000000E+00  0.74505805969E-08  0.10566000000E+00  0.10566000000E+00 0. -1.
     999900   -1    0    0    0    0 -0.00000000000E+00 -0.00000000000E+00 -0.74505805969E-08  0.93827000000E+00  0.93827000000E+00 0. -1.
     999902    2    1    2    0    0 -0.10417978163E-01  0.70821084022E-02  0.65054825878E-02  0.10297521358E+01  0.10296545292E+01 0.  0.
     999903    2    3    3    0    0 -0.23739521806E-01  0.89934312707E-01 -0.94795455173E-01  0.13997473038E+00  0.44215396922E-01 0.  0.
         14    1    1    2    0    0  0.10417978163E-01 -0.70821084022E-02 -0.65054825878E-02  0.14177864159E-01  0.00000000000E+00 0. -1.
     999901    1    3    3    0    0  0.13321543644E-01 -0.82852204305E-01  0.10130093776E+00  0.88977740546E+00  0.88000000000E+00 0.  1.
        -11    1    4    4    0    0 -0.15858358583E-01  0.75247613293E-01 -0.48872544296E-01  0.91117932100E-01  0.51100000000E-03 0.  1.
         11    1    4    4    0    0 -0.78811632236E-02  0.14686699414E-01 -0.45922910877E-01  0.48856798277E-01  0.51100000000E-03 0. -1.
</event>
<event>
 8    1  0.2077555E+004  0.1043930E+01  0.7957747E-01            NaN
         13   -1    0    0    0    0  0.00000000000E+00  0.00000000000E+00  0.74505805969E-08  0.10566000000E+00  0.10566000000E+00 0.  1.
     999900   -1    0    0    0    0 -0.00000000000E+00 -0.00000000000E+00 -0.74505805969E-08  0.93827000000E+00  0.93827000000E+00 0.  1.
     999902    2    1    2    0    0  0.58343301070E-03 -0.11449173940E-02 -0.13256591544E-01  0.10306112745E+01  0.10305252111E+01 0.  0.
     999903    2    3    3    0    0  0.27951861103E-01 -0.77520511202E-02 -0.13178123467E+00  0.14221903223E+00  0.44928370564E-01 0.  0.
         14    1    1    2    0    0 -0.58343301070E-03  0.11449173940E-02  0.13256591544E-01  0.13318725513E-01  0.00000000000E+00 0.  1.
     999901    1    3    3    0    0 -0.27368428093E-01  0.66071337262E-02  0.11852464313E+00  0.88839224226E+00  0.88000000000E+00 0. -1.
        -11    1    4    4    0    0 -0.67168589564E-02 -0.16411188013E-01 -0.43254140932E-01  0.46750669675E-01  0.51100000000E-03 0.  1.
         11    1    4    4    0    0  0.34668720060E-01  0.86591368930E-02 -0.88527093739E-01  0.95468362556E-01  0.51100000000E-03 0. -1.
</event>
<event>
 8    1  0.2077555E+004  0.1043930E+01  0.7957747E-01            NaN
         13   -1    0    0    0    0  0.00000000000E+00  0.00000000000E+00  0.74505805969E-08  0.10566000000E+00  0.10566000000E+00 0.  1.
     999900   -1    0    0    0    0 -0.00000000000E+00 -0.00000000000E+00 -0.74505805969E-08  0.93827000000E+00  0.93827000000E+00 0.  1.
     999902    2    1    2    0    0  0.14254081282E-01 -0.11595430763E-02  0.40622060220E-03  0.10296230650E+01  0.10295236606E+01 0.  0.
     999903    2    3    3    0    0  0.74241659362E-01  0.10248058054E+00 -0.38500554386E-01  0.14066101752E+00  0.47844913940E-01 0.  0.
         14    1    1    2    0    0 -0.14254081282E-01  0.11595430763E-02 -0.40622060220E-03  0.14306934980E-01  0.00000000000E+00 0. -1.
     999901    1    3    3    0    0 -0.59987578080E-01 -0.10364012362E+00  0.38906774988E-01  0.88896204750E+00  0.88000000000E+00 0. -1.
        -11    1    4    4    0    0  0.69895796225E-01  0.91860972748E-01 -0.17533661331E-01  0.11675423352E+00  0.51100000000E-03 0. -1.
         11    1    4    4    0    0  0.43458631371E-02  0.10619607794E-01 -0.20966893054E-01  0.23906784005E-01  0.51100000000E-03 0.  1.
</event>
<event>
 8    1  0.2077555E+004  0.1043930E+01  0.7957747E-01            NaN
         13   -1    0    0    0    0  0.00000000000E+00  0.00000000000E+00  0.74505805969E-08  0.10566000000E+00  0.10566000000E+00 0.  1.
     999900   -1    0    0    0    0 -0.00000000000E+00 -0.00000000000E+00 -0.74505805969E-08  0.93827000000E+00  0.93827000000E+00 0.  1.
     999902    2    1    2    0    0  0.86332825623E-02 -0.71365203064E-02 -0.78443853665E-02  0.10302552835E+01  0.10301645263E+01 0.  0.
     999903    2    3    3    0    0  0.10432068510E+00 -0.25326419080E-01  0.79374690897E-01  0.14059573136E+00  0.44074769199E-01 0.  0.
         14    1    1    2    0    0 -0.86332825623E-02  0.71365203064E-02  0.78443853665E-02  0.13674716511E-01  0.00000000000E+00 0.  1.
     999901    1    3    3    0    0 -0.95687402537E-01  0.18189898773E-01 -0.87219076264E-01  0.88965955212E+00  0.88000000000E+00 0. -1.
        -11    1    4    4    0    0  0.42856912572E-01 -0.11022584425E-01  0.73948267200E-02  0.44868217101E-01  0.51100000000E-03 0.  1.
         11    1    4    4    0    0  0.61463772527E-01 -0.14303834655E-01  0.71979864177E-01  0.95727514264E-01  0.51100000000E-03 0. -1.
</event>
<event>
 8    1  0.2077555E+004  0.1043930E+01  0.7957747E-01            NaN
         13   -1    0    0    0    0  0.00000000000E+00  0.00000000000E+00  0.74505805969E-08  0.10566000000E+00  0.10566000000E+00 0.  1.
     999900   -1    0    0    0    0 -0.00000000000E+00 -0.00000000000E+00 -0.74505805969E-08  0.93827000000E+00  0.93827000000E+00 0.  1.
     999902    2    1    2    0    0 -0.56790163096E-02  0.60080743755E-02 -0.11243463881E-01  0.10299742247E+01  0.10298796725E+01 0.  0.
     999903    2    3    3    0    0 -0.11977354028E+00  0.52861642870E-01 -0.26196801177E-01  0.14124680892E+00  0.46090502261E-01 0.  0.
         14    1    1    2    0    0  0.56790163096E-02 -0.60080743755E-02  0.11243463881E-01  0.13955775292E-01  0.00000000000E+00 0.  1.
     999901    1    3    3    0    0  0.11409452397E+00 -0.46853568495E-01  0.14953337296E-01  0.88872741579E+00  0.88000000000E+00 0.  1.
        -11    1    4    4    0    0 -0.39418232609E-01  0.13491998932E-01 -0.30537195235E-01  0.51658615071E-01  0.51100000000E-03 0.  1.
         11    1    4    4    0    0 -0.80355307674E-01  0.39369643938E-01  0.43403940580E-02  0.89588193847E-01  0.51100000000E-03 0. -1.
</event>
<event>
 8    1  0.2077555E+004  0.1043930E+01  0.7957747E-01            NaN
         13   -1    0    0    0    0  0.00000000000E+00  0.00000000000E+00  0.74505805969E-08  0.10566000000E+00  0.10566000000E+00 0.  1.
     999900   -1    0    0    0    0 -0.00000000000E+00 -0.00000000000E+00 -0.74505805969E-08  0.93827000000E+00  0.93827000000E+00 0.  1.
     999902    2    1    2    0    0  0.10916114247E-01 -0.37701718699E-02  0.74970683583E-02  0.10301611300E+01  0.10300691103E+01 0.  0.
     999903    2    3    3    0    0  0.10600178621E+00  0.71676864265E-01 -0.37393760778E-01  0.14069571372E+00  0.44978205435E-01 0.  0.
         14    1    1    2    0    0 -0.10916114247E-01  0.37701718699E-02 -0.74970683583E-02  0.13768869967E-01  0.00000000000E+00 0.  1.
     999901    1    3    3    0    0 -0.95085671962E-01 -0.75447036135E-01  0.44890829136E-01  0.88946541631E+00  0.88000000000E+00 0.  1.
        -11    1    4    4    0    0  0.60500278807E-01  0.44418670568E-01  0.12508579112E-02  0.75067488284E-01  0.51100000000E-03 0. -1.
         11    1    4    4    0    0  0.45501507403E-01  0.27258193697E-01 -0.38644618689E-01  0.65628225438E-01  0.51100000000E-03 0.  1.
</event>
<event>
 8    1  0.2077555E+004  0.1043930E+01  0.7957747E-01            NaN
         13   -1    0    0    0    0  0.00000000000E+00  0.00000000000E+00  0.74505805969E-08  0.10566000000E+00  0.10566000000E+00 0.  1.
     999900   -1    0    0    0    0 -0.00000000000E+00 -0.00000000000E+00 -0.74505805969E-08  0.93827000000E+00  0.93827000000E+00 0. -1.
     999902    2    1    2    0    0 -0.69714949633E-03  0.94827691921E-02  0.82038434086E-02  0.10313716571E+01  0.10312951969E+01 0.  0.
     999903    2    3    3    0    0  0.68505037392E-01 -0.77485115608E-01  0.84076884199E-01  0.14114186995E+00  0.46424365464E-01 0.  0.
         14    1    1    2    0    0  0.69714949633E-03 -0.94827691921E-02 -0.82038434086E-02  0.12558342870E-01  0.00000000000E+00 0.  1.
     999901    1    3    3    0    0 -0.69202186888E-01  0.86967884800E-01 -0.75873040790E-01  0.89022978718E+00  0.88000000000E+00 0.  1.
        -11    1    4    4    0    0  0.49396473184E-01 -0.75920409014E-01  0.53945807460E-01  0.10542452908E+00  0.51100000000E-03 0. -1.
         11    1    4    4    0    0  0.19108564208E-01 -0.15647065939E-02  0.30131076738E-01  0.35717340876E-01  0.51100000000E-03 0.  1.
</event>
<event>
 8    1  0.2077555E+004  0.1043930E+01  0.7957747E-01            NaN
         13   -1    0    0    0    0  0.00000000000E+00  0.00000000000E+00  0.74505805969E-08  0.10566000000E+00  0.10566000000E+00 0. -1.
     999900   -1    0    0    0    0 -0.00000000000E+00 -0.00000000000E+00 -0.74505805969E-08  0.93827000000E+00  0.93827000000E+00 0. -1.
     999902    2    1    2    0    0 -0.20333982518E-01 -0.10576418609E-01 -0.14024562209E-01  0.10170595735E+01  0.10167045570E+01 0.  0.
     999903    2    3    3    0    0  0.52485758056E-01  0.97188675081E-01 -0.43443731278E-01  0.12701377830E+00  0.45218897897E-01 0.  0.
         14    1    1    2    0    0  0.20333982518E-01  0.10576418609E-01  0.14024562209E-01  0.26870426509E-01  0.00000000000E+00 0. -1.
     999901    1    3    3    0    0 -0.72819740574E-01 -0.10776509369E+00  0.29419169070E-01  0.89004579519E+00  0.88000000000E+00 0.  1.
        -11    1    4    4    0    0 -0.66534099272E-02  0.15925389529E-01  0.60844004569E-03  0.17277650754E-01  0.51100000000E-03 0. -1.
         11    1    4    4    0    0  0.59139167984E-01  0.81263285552E-01 -0.44052171324E-01  0.10973612754E+00  0.51100000000E-03 0.  1.
</event>
<event>
 8    1  0.2077555E+004  0.1043930E+01  0.7957747E-01            NaN
         13   -1    0    0    0    0  0.00000000000E+00  0.00000000000E+00  0.74505805969E-08  0.10566000000E+00  0.10566000000E+00 0.  1.
     999900   -1    0    0    0    0 -0.00000000000E+00 -0.00000000000E+00 -0.74505805969E-08  0.93827000000E+00  0.93827000000E+00 0. -1.
     999902    2    1    2    0    0  0.11386386516E-01  0.48424586525E-02  0.50927962508E-02  0.10305495748E+01  0.10304627070E+01 0.  0.
     999903    2    3    3    0    0 -0.12329044077E+00 -0.58643527480E-02  0.46323123906E-01  0.13928506667E+00  0.44939677005E-01 0.  0.
         14    1    1    2    0    0 -0.11386386516E-01 -0.48424586525E-02 -0.50927962508E-02  0.13380425156E-01  0.00000000000E+00 0. -1.
     999901    1    3    3    0    0  0.13467682729E+00  0.10706811401E-01 -0.41230327655E-01  0.89126450818E+00  0.88000000000E+00 0.  1.
        -11    1    4    4    0    0 -0.64667988384E-01 -0.21940569796E-01  0.37350791689E-01  0.77837523633E-01  0.51100000000E-03 0. -1.
         11    1    4    4    0    0 -0.58622452387E-01  0.16076217048E-01  0.89723322171E-02  0.61447543034E-01  0.51100000000E-03 0.  1.
</event>
<event>
 8    1  0.2077555E+004  0.1043930E+01  0.7957747E-01            NaN
         13   -1    0    0    0    0  0.00000000000E+00  0.00000000000E+00  0.74505805969E-08  0.10566000000E+00  0.10566000000E+00 0. -1.
     999900   -1    0    0    0    0 -0.00000000000E+00 -0.00000000000E+00 -0.74505805969E-08  0.93827000000E+00  0.93827000000E+00 0.  1.
     999902    2    1    2    0    0 -0.13664439645E-01  0.11253436560E-02  0.46994184544E-02  0.10294362826E+01  0.10293342471E+01 0.  0.
     999903    2    3    3    0    0 -0.95217749028E-01  0.36843922156E-01 -0.85261456460E-01  0.14038076236E+00  0.44870348264E-01 0.  0.
         14    1    1    2    0    0  0.13664439645E-01 -0.11253436560E-02 -0.46994184544E-02  0.14493717362E-01  0.00000000000E+00 0.  1.
     999901    1    3    3    0    0  0.81553309384E-01 -0.35718578500E-01  0.89960874915E-01  0.88905552028E+00  0.88000000000E+00 0.  1.
        -11    1    4    4    0    0 -0.37437783168E-01  0.31694210633E-01 -0.58923874358E-01  0.76670689879E-01  0.51100000000E-03 0.  1.
         11    1    4    4    0    0 -0.57779965860E-01  0.51497115226E-02 -0.26337582103E-01  0.63710072481E-01  0.51100000000E-03 0. -1.
</event>
<event>
 8    1  0.2077555E+004  0.1043930E+01  0.7957747E-01            NaN
         13   -1    0    0    0    0  0.00000000000E+00  0.00000000000E+00  0.74505805969E-08  0.10566000000E+00  0.10566000000E+00 0.  1.
     999900   -1    0    0    0    0 -0.00000000000E+00 -0.00000000000E+00 -0.74505805969E-08  0.93827000000E+00  0.93827000000E+00 0. -1.
     999902    2    1    2    0    0 -0.25481856861E-02  0.62852635817E-02 -0.12034633670E-01  0.10301158697E+01  0.10300232399E+01 0.  0.
     999903    2    3    3    0    0 -0.11415625237E+00 -0.48868607115E-01 -0.49302935758E-01  0.14057259568E+00  0.43704513097E-01 0.  0.
         14    1    1    2    0    0  0.25481856861E-02 -0.62852635817E-02  0.12034633670E-01  0.13814130307E-01  0.00000000000E+00 0.  1.
     999901    1    3    3    0    0  0.11160806668E+00  0.55153870697E-01  0.37268302088E-01  0.88954327401E+00  0.88000000000E+00 0. -1.
        -11    1    4    4    0    0 -0.72602963720E-01 -0.25035466401E-01 -0.78103723719E-02  0.77196035885E-01  0.51100000000E-03 0.  1.
         11    1    4    4    0    0 -0.41553288651E-01 -0.23833140714E-01 -0.41492563386E-01  0.63376559794E-01  0.51100000000E-03 0. -1.
</event>
<event>
 8    1  0.2077555E+004  0.1043930E+01  0.7957747E-01            NaN
         13   -1    0    0    0    0  0.00000000000E+00  0.00000000000E+00  0.74505805969E-08  0.10566000000E+00  0.10566000000E+00 0. -1.
     999900   -1    0    0    0    0 -0.00000000000E+00 -0.00000000000E+00 -0.74505805969E-08  0.93827000000E+00  0.93827000000E+00 0.  1.
     999902    2    1    2    0    0 -0.38647042217E-02  0.42031064966E-02  0.19325732414E-01  0.10237784250E+01  0.10235800787E+01 0.  0.
     999903    2    3    3    0    0 -0.17351608995E-01  0.85609814037E-01  0.98142189884E-01  0.13641097988E+00  0.36687155824E-01 0.  0.
         14    1    1    2    0    0  0.38647042217E-02 -0.42031064966E-02 -0.19325732414E-01  0.20151575032E-01  0.00000000000E+00 0.  1.
     999901    1    3    3    0    0  0.13486904773E-01 -0.81406707540E-01 -0.78816457470E-01  0.88736744509E+00  0.88000000000E+00 0.  1.
        -11    1    4    4    0    0 -0.21888328995E-01  0.25855708091E-01  0.26529761448E-01  0.43031453038E-01  0.51100000000E-03 0.  1.
         11    1    4    4    0    0  0.45367199996E-02  0.59754105946E-01  0.71612428436E-01  0.93379526842E-01  0.51100000000E-03 0. -1.
</event>
<event>
 8    1  0.2077555E+004  0.1043930E+01  0.7957747E-01            NaN
         13   -1    0    0    0    0  0.00000000000E+00  0.00000000000E+00  0.74505805969E-08  0.10566000000E+00  0.10566000000E+00 0. -1.
     999900   -1    0    0    0    0 -0.00000000000E+00 -0.00000000000E+00 -0.74505805969E-08  0.93827000000E+00  0.93827000000E+00 0. -1.
     999902    2    1    2    0    0 -0.28560339483E-02  0.13338326600E-01  0.10440414450E-02  0.10302494332E+01  0.10301585978E+01 0.  0.
     999903    2    3    3    0    0  0.12272945691E+00  0.41136827960E-01 -0.29812462614E-01  0.14036371239E+00  0.45369930794E-01 0.  0.
         14    1    1    2    0    0  0.28560339483E-02 -0.13338326600E-01 -0.10440414450E-02  0.13680566835E-01  0.00000000000E+00 0. -1.
     999901    1    3    3    0    0 -0.12558549086E+00 -0.27798501360E-01  0.30856504059E-01  0.88988572077E+00  0.88000000000E+00 0. -1.
        -11    1    4    4    0    0  0.11144528324E+00  0.20045040039E-01 -0.24726676845E-01  0.11590308216E+00  0.51100000000E-03 0.  1.
         11    1    4    4    0    0  0.11284173674E-01  0.21091787921E-01 -0.50857857690E-02  0.24460630227E-01  0.51100000000E-03 0. -1.
</event>
<event>
 8    1  0.2077555E+004  0.1043930E+01  0.7957747E-01            NaN
         13   -1    0    0    0    0  0.00000000000E+00  0.00000000000E+00  0.74505805969E-08  0.10566000000E+00  0.10566000000E+00 0.  1.
     999900   -1    0    0    0    0 -0.00000000000E+00 -0.00000000000E+00 -0.74505805969E-08  0.93827000000E+00  0.93827000000E+00 0.  1.
     999902    2    1    2    0    0  0.44160525392E-03 -0.21758363734E-02  0.13455657709E-01  0.10302924048E+01  0.10302021429E+01 0.  0.
     999903    2    3    3    0    0 -0.65263362159E-01  0.35475350943E-01 -0.10848081925E+00  0.13866285218E+00  0.44062358823E-01 0.  0.
         14    1    1    2    0    0 -0.44160525392E-03  0.21758363734E-02 -0.13455657709E-01  0.13637595225E-01  0.00000000000E+00 0. -1.
     999901    1    3    3    0    0  0.65704967413E-01 -0.37651187316E-01  0.12193647696E+00  0.89162955260E+00  0.88000000000E+00 0. -1.
        -11    1    4    4    0    0 -0.26885411480E-01  0.23888325314E-01 -0.84766963647E-01  0.92082445036E-01  0.51100000000E-03 0.  1.
         11    1    4    4    0    0 -0.38377950679E-01  0.11587025629E-01 -0.23713855601E-01  0.46580407144E-01  0.51100000000E-03 0. -1.
</event>
<event>
 8    1  0.2077555E+004  0.1043930E+01  0.7957747E-01            NaN
         13   -1    0    0    0    0  0.00000000000E+00  0.00000000000E+00  0.74505805969E-08  0.10566000000E+00  0.10566000000E+00 0. -1.
     999900   -1    0    0    0    0 -0.00000000000E+00 -0.00000000000E+00 -0.74505805969E-08  0.93827000000E+00  0.93827000000E+00 0.  1.
     999902    2    1    2    0    0 -0.12662064455E-02 -0.10936519068E-01 -0.87481724150E-02  0.10298679501E+01  0.10297719424E+01 0.  0.
     999903    2    3    3    0    0  0.83934107489E-01 -0.10268060402E+00  0.74288067529E-02  0.14085852082E+00  0.46879578432E-01 0.  0.
         14    1    1    2    0    0  0.12662064455E-02  0.10936519068E-01  0.87481724150E-02  0.14062049947E-01  0.00000000000E+00 0. -1.
     999901    1    3    3    0    0 -0.85200313935E-01  0.91744084955E-01 -0.16176979168E-01  0.88900942924E+00  0.88000000000E+00 0. -1.
        -11    1    4    4    0    0  0.68325165597E-01 -0.92982681739E-01  0.21918516658E-01  0.11745122328E+00  0.51100000000E-03 0.  1.
         11    1    4    4    0    0  0.15608941892E-01 -0.96979222841E-02 -0.14489709905E-01  0.23407297532E-01  0.51100000000E-03 0. -1.
</event>
<event>
 8    1  0.2077555E+004  0.1043930E+01  0.7957747E-01            NaN
         13   -1    0    0    0    0  0.00000000000E+00  0.00000000000E+00  0.74505805969E-08  0.10566000000E+00  0.10566000000E+00 0. -1.
     999900   -1    0    0    0    0 -0.00000000000E+00 -0.00000000000E+00 -0.74505805969E-08  0.93827000000E+00  0.93827000000E+00 0. -1.
     999902    2    1    2    0    0  0.13031189736E-01  0.28713501798E-02  0.67807520731E-02  0.10289621960E+01  0.10288533256E+01 0.  0.
     999903    2    3    3    0    0 -0.11426080366E+00 -0.54004493894E-01 -0.29274006751E-01  0.13725705480E+00  0.44838766778E-01 0.  0.
         14    1    1    2    0    0 -0.13031189736E-01 -0.28713501798E-02 -0.67807520731E-02  0.14967803996E-01  0.00000000000E+00 0.  1.
     999901    1    3    3    0    0  0.12729199340E+00  0.56875844074E-01  0.36054758824E-01  0.89170514121E+00  0.88000000000E+00 0.  1.
        -11    1    4    4    0    0 -0.37059314769E-01 -0.32029458337E-01 -0.29120365898E-01  0.56987155075E-01  0.51100000000E-03 0. -1.
         11    1    4    4    0    0 -0.77201488892E-01 -0.21975035558E-01 -0.15364085321E-03  0.80269899722E-01  0.51100000000E-03 0.  1.
</event>
<event>
 8    1  0.2077555E+004  0.1043930E+01  0.7957747E-01            NaN
         13   -1    0    0    0    0  0.00000000000E+00  0.00000000000E+00  0.74505805969E-08  0.10566000000E+00  0.10566000000E+00 0. -1.
     999900   -1    0    0    0    0 -0.00000000000E+00 -0.00000000000E+00 -0.74505805969E-08  0.93827000000E+00  0.93827000000E+00 0.  1.
     999902    2    1    2    0    0  0.61527036283E-02  0.93364520134E-02  0.75644174336E-02  0.10304301663E+01  0.10303417308E+01 0.  0.
     999903    2    3    3    0    0 -0.20258715451E-01  0.40772749104E-01  0.12629413821E+00  0.14150803789E+00  0.44737934907E-01 0.  0.
         14    1    1    2    0    0 -0.61527036283E-02 -0.93364520134E-02 -0.75644174336E-02  0.13499833675E-01  0.00000000000E+00 0. -1.
     999901    1    3    3    0    0  0.26411419079E-01 -0.31436297091E-01 -0.11872972077E+00  0.88892212844E+00  0.88000000000E+00 0.  1.
        -11    1    4    4    0    0 -0.28003986023E-01  0.43935479211E-01  0.87666528777E-01  0.10198152262E+00  0.51100000000E-03 0. -1.
         11    1    4    4    0    0  0.77452705726E-02 -0.31627301069E-02  0.38627609430E-01  0.39526515268E-01  0.51100000000E-03 0.  1.
</event>
<event>
 8    1  0.2077555E+004  0.1043930E+01  0.7957747E-01            NaN
         13   -1    0    0    0    0  0.00000000000E+00  0.00000000000E+00  0.74505805969E-08  0.10566000000E+00  0.10566000000E+00 0. -1.
     999900   -1    0    0    0    0 -0.00000000000E+00 -0.00000000000E+00 -0.74505805969E-08  0.93827000000E+00  0.93827000000E+00 0. -1.
     999902    2    1    2    0    0  0.13695065476E-02 -0.12857897157E-01 -0.42078201743E-02  0.10303319554E+01  0.10302422198E+01 0.  0.
     999903    2    3    3    0    0  0.79030310590E-01  0.32018869635E-01 -0.10204348256E+00  0.14037861865E+00  0.44969836973E-01 0.  0.
         14    1    1    2    0    0 -0.13695065476E-02  0.12857897157E-01  0.42078201743E-02  0.13598044643E-01  0.00000000000E+00 0. -1.
     999901    1    3    3    0    0 -0.77660804042E-01 -0.44876766792E-01  0.97835662382E-01  0.88995333671E+00  0.88000000000E+00 0.  1.
        -11    1    4    4    0    0  0.49538410908E-01  0.30962242489E-01 -0.37537741966E-01  0.69441038358E-01  0.51100000000E-03 0.  1.
         11    1    4    4    0    0  0.29491899681E-01  0.10566271466E-02 -0.64505740590E-01  0.70937580293E-01  0.51100000000E-03 0. -1.
</event>
<event>
 8    1  0.2077555E+004  0.1043930E+01  0.7957747E-01            NaN
         13   -1    0    0    0    0  0.00000000000E+00  0.00000000000E+00  0.74505805969E-08  0.10566000000E+00  0.10566000000E+00 0.  1.
     999900   -1    0    0    0    0 -0.00000000000E+00 -0.00000000000E+00 -0.74505805969E-08  0.93827000000E+00  0.93827000000E+00 0. -1.
     999902    2    1    2    0    0  0.88784550650E-02 -0.11859642384E-01  0.18492828871E-02  0.10290002335E+01  0.10288919198E+01 0.  0.
     999903    2    3    3    0    0 -0.83880002255E-01 -0.54133892982E-01  0.85789618024E-01  0.13914787293E+00  0.45121378895E-01 0.  0.
         14    1    1    2    0    0 -0.88784550650E-02  0.11859642384E-01 -0.18492828871E-02  0.14929766542E-01  0.00000000000E+00 0. -1.
     999901    1    3    3    0    0  0.92758457320E-01  0.42274250598E-01 -0.83940335137E-01  0.88985236052E+00  0.88000000000E+00 0. -1.
        -11    1    4    4    0    0 -0.16748688616E-01  0.20833928110E-02  0.32552449839E-01  0.36671272237E-01  0.51100000000E-03 0.  1.
         11    1    4    4    0    0 -0.67131313639E-01 -0.56217285793E-01  0.53237168186E-01  0.10247660070E+00  0.51100000000E-03 0. -1.
</event>
<event>
 8    1  0.2077555E+004  0.1043930E+01  0.7957747E-01            NaN
         13   -1    0    0    0    0  0.00000000000E+00  0.00000000000E+00  0.74505805969E-08  0.10566000000E+00  0.10566000000E+00 0.  1.
     999900   -1    0    0    0    0 -0.00000000000E+00 -0.00000000000E+00 -0.74505805969E-08  0.93827000000E+00  0.93827000000E+00 0.  1.
     999902    2    1    2    0    0  0.27807551754E-02  0.88683835435E-03  0.12819237116E-01  0.10307826839E+01  0.10306988355E+01 0.  0.
     999903    2    3    3    0    0 -0.64601106687E-01 -0.12808821426E-01 -0.11392439172E+00  0.13904739025E+00  0.44922609178E-01 0.  0.
         14    1    1    2    0    0 -0.27807551754E-02 -0.88683835435E-03 -0.12819237116E-01  0.13147316146E-01  0.00000000000E+00 0. -1.
     999901    1    3    3    0    0  0.67381861862E-01  0.13695659780E-01  0.12674362884E+00  0.89173529360E+00  0.88000000000E+00 0. -1.
        -11    1    4    4    0    0 -0.43545245853E-02 -0.13255364572E-01 -0.54974119191E-02  0.15004973613E-01  0.51100000000E-03 0.  1.
         11    1    4    4    0    0 -0.60246582102E-01  0.44654314651E-03 -0.10842697980E+00  0.12404241664E+00  0.51100000000E-03 0. -1.
</event>
<event>
 8    1  0.2077555E+004  0.1043930E+01  0.7957747E-01            NaN
         13   -1    0    0    0    0  0.00000000000E+00  0.00000000000E+00  0.74505805969E-08  0.10566000000E+00  0.10566000000E+00 0. -1.
     999900   -1    0    0    0    0 -0.00000000000E+00 -0.00000000000E+00 -0.74505805969E-08  0.93827000000E+00  0.93827000000E+00 0. -1.
     999902    2    1    2    0    0 -0.51912667799E-02  0.12082352047E-01  0.39862822024E-02  0.10301887145E+01  0.10300970656E+01 0.  0.
     999903    2    3    3    0    0  0.13129017384E+00  0.11923992230E-01  0.16623724847E-01  0.13957829816E+00  0.42737123815E-01 0.  0.
         14    1    1    2    0    0  0.51912667799E-02 -0.12082352047E-01 -0.39862822024E-02  0.13741285514E-01  0.00000000000E+00 0.  1.
     999901    1    3    3    0    0 -0.13648144062E+00  0.15835981715E-03 -0.12637442645E-01  0.89061041633E+00  0.88000000000E+00 0. -1.
        -11    1    4    4    0    0  0.96080214147E-01 -0.22582120374E-02  0.27723017864E-01  0.10002666601E+00  0.51100000000E-03 0.  1.
         11    1    4    4    0    0  0.35209959693E-01  0.14182204267E-01 -0.11099293017E-01  0.39551632153E-01  0.51100000000E-03 0. -1.
</event>
<event>
 8    1  0.2077555E+004  0.1043930E+01  0.7957747E-01            NaN
         13   -1    0    0    0    0  0.00000000000E+00  0.00000000000E+00  0.74505805969E-08  0.10566000000E+00  0.10566000000E+00 0.  1.
     999900   -1    0    0    0    0 -0.00000000000E+00 -0.00000000000E+00 -0.74505805969E-08  0.93827000000E+00  0.93827000000E+00 0. -1.
     999902    2    1    2    0    0  0.66714206273E-02 -0.12149582032E-01 -0.52735319494E-02  0.10290999516E+01  0.10289930904E+01 0.  0.
     999903    2    3    3    0    0  0.55676491483E-01 -0.46132137264E-01 -0.11193925669E+00  0.14065530623E+00  0.45005246256E-01 0.  0.
         14    1    1    2    0    0 -0.66714206273E-02  0.12149582032E-01  0.52735319494E-02  0.14830048414E-01  0.00000000000E+00 0.  1.
     999901    1    3    3    0    0 -0.49005070856E-01  0.33982555232E-01  0.10666572474E+00  0.88844464536E+00  0.88000000000E+00 0.  1.
        -11    1    4    4    0    0 -0.40739952219E-02 -0.18461425562E-01 -0.19545725255E-01  0.27197760341E-01  0.51100000000E-03 0. -1.
         11    1    4    4    0    0  0.59750486705E-01 -0.27670711702E-01 -0.92393531431E-01  0.11345754589E+00  0.51100000000E-03 0.  1.
</event>
<event>
 8    1  0.2077555E+004  0.1043930E+01  0.7957747E-01            NaN
         13   -1    0    0    0    0  0.00000000000E+00  0.00000000000E+00  0.74505805969E-08  0.10566000000E+00  0.10566000000E+00 0. -1.
     999900   -1    0    0    0    0 -0.00000000000E+00 -0.00000000000E+00 -0.74505805969E-08  0.93827000000E+00  0.93827000000E+00 0. -1.
     999902    2    1    2    0    0  0.22029710256E-02  0.83885612176E-02 -0.12344676278E-01  0.10288431821E+01  0.10287325607E+01 0.  0.
     999903    2    3    3    0    0  0.32157018234E-01  0.40476791419E-01  0.11961590864E+00  0.13792203219E+00  0.45189344975E-01 0.  0.
         14    1    1    2    0    0 -0.22029710256E-02 -0.83885612176E-02  0.12344676278E-01  0.15086817857E-01  0.00000000000E+00 0. -1.
     999901    1    3    3    0    0 -0.29954047208E-01 -0.32088230202E-01 -0.13196058491E+00  0.89092114995E+00  0.88000000000E+00 0. -1.
        -11    1    4    4    0    0  0.39739974523E-01  0.19537356126E-01  0.62359448176E-01  0.76484872735E-01  0.51100000000E-03 0. -1.
         11    1    4    4    0    0 -0.75829562890E-02  0.20939435293E-01  0.57256460460E-01  0.61437159455E-01  0.51100000000E-03 0.  1.
</event>
<event>
 8    1  0.2077555E+004  0.1043930E+01  0.7957747E-01            NaN
         13   -1    0    0    0    0  0.00000000000E+00  0.00000000000E+00  0.74505805969E-08  0.10566000000E+00  0.10566000000E+00 0. -1.
     999900   -1    0    0    0    0 -0.00000000000E+00 -0.00000000000E+00 -0.74505805969E-08  0.93827000000E+00  0.93827000000E+00 0.  1.
     999902    2    1    2    0    0  0.11531034169E-01  0.76374356960E-02  0.26916054375E-03  0.10300964314E+01  0.10300035390E+01 0.  0.
     999903    2    3    3    0    0 -0.70245631897E-01  0.89302120013E-01 -0.68867151472E-01  0.13985131154E+00  0.43662195877E-01 0.  0.
         14    1    1    2    0    0 -0.11531034169E-01 -0.76374356960E-02 -0.26916054375E-03  0.13833568608E-01  0.00000000000E+00 0.  1.
     999901    1    3    3    0    0  0.81776666066E-01 -0.81664684317E-01  0.69136312016E-01  0.89024511985E+00  0.88000000000E+00 0. -1.
        -11    1    4    4    0    0 -0.14218313626E-01  0.50823734897E-01 -0.38921783601E-01  0.65577273739E-01  0.51100000000E-03 0. -1.
         11    1    4    4    0    0 -0.56027318271E-01  0.38478385116E-01 -0.29945367871E-01  0.74274037804E-01  0.51100000000E-03 0.  1.
</event>
<event>
 8    1  0.2077555E+004  0.1043930E+01  0.7957747E-01            NaN
         13   -1    0    0    0    0  0.00000000000E+00  0.00000000000E+00  0.74505805969E-08  0.10566000000E+00  0.10566000000E+00 0.  1.
     999900   -1    0    0    0    0 -0.00000000000E+00 -0.00000000000E+00 -0.74505805969E-08  0.93827000000E+00  0.93827000000E+00 0. -1.
     999902    2    1    2    0    0  0.63837590418E-02  0.11685325297E-01 -0.43425828607E-02  0.10299243857E+01  0.10298291523E+01 0.  0.
     999903    2    3    3    0    0 -0.64850432331E-01 -0.37719959540E-02 -0.11552201872E+00  0.13993893312E+00  0.44919502061E-01 0.  0.
         14    1    1    2    0    0 -0.63837590418E-02 -0.11685325297E-01  0.43425828607E-02  0.14005614328E-01  0.00000000000E+00 0. -1.
     999901    1    3    3    0    0  0.71234191373E-01  0.15457321251E-01  0.11117943586E+00  0.88998545255E+00  0.88000000000E+00 0.  1.
        -11    1    4    4    0    0 -0.30056231745E-01 -0.12283411498E-01 -0.20535894491E-01  0.38421912346E-01  0.51100000000E-03 0.  1.
         11    1    4    4    0    0 -0.34794200586E-01  0.85114155442E-02 -0.94986124231E-01  0.10151702077E+00  0.51100000000E-03 0. -1.
</event>
<event>
 8    1  0.2077555E+004  0.1043930E+01  0.7957747E-01            NaN
         13   -1    0    0    0    0  0.00000000000E+00  0.00000000000E+00  0.74505805969E-08  0.10566000000E+00  0.10566000000E+00 0.  1.
     999900   -1    0    0    0    0 -0.00000000000E+00 -0.00000000000E+00 -0.74505805969E-08  0.93827000000E+00  0.93827000000E+00 0. -1.
     999902    2    1    2    0    0  0.82756146633E-02 -0.65304096437E-03  0.11590208895E-01  0.10296735908E+01  0.10295748921E+01 0.  0.
     999903    2    3    3    0    0  0.68367657137E-01 -0.79228337238E-01 -0.80137030887E-01  0.13939328818E+00  0.45357238731E-01 0.  0.
         14    1    1    2    0    0 -0.82756146633E-02  0.65304096437E-03 -0.11590208895E-01  0.14256409183E-01  0.00000000000E+00 0. -1.
     999901    1    3    3    0    0 -0.60092042473E-01  0.78575296273E-01  0.91727239782E-01  0.89028030264E+00  0.88000000000E+00 0.  1.
        -11    1    4    4    0    0  0.45627729677E-01 -0.76608219579E-01 -0.52392403496E-01  0.10342114913E+00  0.51100000000E-03 0.  1.
         11    1    4    4    0    0  0.22739927460E-01 -0.26201176590E-02 -0.27744627390E-01  0.35972139045E-01  0.51100000000E-03 0. -1.
</event>
<event>
 8    1  0.2077555E+004  0.1043930E+01  0.7957747E-01            NaN
         13   -1    0    0    0    0  0.00000000000E+00  0.00000000000E+00  0.74505805969E-08  0.10566000000E+00  0.10566000000E+00 0.  1.
     999900   -1    0    0    0    0 -0.00000000000E+00 -0.00000000000E+00 -0.74505805969E-08  0.93827000000E+00  0.93827000000E+00 0. -1.
     999902    2    1    2    0    0  0.42556038883E-02 -0.13959067221E-01  0.21053982792E-03  0.10293351362E+01  0.10292316613E+01 0.  0.
     999903    2    3    3    0    0  0.12411942587E+00 -0.99874226615E-02 -0.44590079300E-01  0.14007128039E+00  0.46111906579E-01 0.  0.
         14    1    1    2    0    0 -0.42556038883E-02  0.13959067221E-01 -0.21053982792E-03  0.14594863794E-01  0.00000000000E+00 0. -1.
     999901    1    3    3    0    0 -0.11986382199E+00 -0.39716445599E-02  0.44800619128E-01  0.88926385581E+00  0.88000000000E+00 0.  1.
        -11    1    4    4    0    0  0.10802096109E+00  0.81135015702E-02 -0.33212726235E-01  0.11330358886E+00  0.51100000000E-03 0. -1.
         11    1    4    4    0    0  0.16098464780E-01 -0.18100924232E-01 -0.11377353064E-01  0.26767691534E-01  0.51100000000E-03 0.  1.
</event>
<event>
 8    1  0.2077555E+004  0.1043930E+01  0.7957747E-01            NaN
         13   -1    0    0    0    0  0.00000000000E+00  0.00000000000E+00  0.74505805969E-08  0.10566000000E+00  0.10566000000E+00 0.  1.
     999900   -1    0    0    0    0 -0.00000000000E+00 -0.00000000000E+00 -0.74505805969E-08  0.93827000000E+00  0.93827000000E+00 0. -1.
     999902    2    1    2    0    0 -0.84070039623E-03 -0.10238649752E-01 -0.93303812641E-02  0.10300522213E+01  0.10299587302E+01 0.  0.
     999903    2    3    3    0    0  0.11899014121E-01  0.74165040142E-01  0.10722016468E+00  0.13827292524E+00  0.44510655171E-01 0.  0.
         14    1    1    2    0    0  0.84070039623E-03  0.10238649752E-01  0.93303812641E-02  0.13877778656E-01  0.00000000000E+00 0. -1.
     999901    1    3    3    0    0 -0.12739714517E-01 -0.84403689894E-01 -0.11655054595E+00  0.89177929610E+00  0.88000000000E+00 0. -1.
        -11    1    4    4    0    0  0.28317934297E-01  0.37808639400E-01  0.53745572345E-01  0.71555896220E-01  0.51100000000E-03 0. -1.
         11    1    4    4    0    0 -0.16418920177E-01  0.36356400743E-01  0.53474592340E-01  0.66717029023E-01  0.51100000000E-03 0.  1.
</event>
<event>
 8    1  0.2077555E+004  0.1043930E+01  0.7957747E-01            NaN
         13   -1    0    0    0    0  0.00000000000E+00  0.00000000000E+00  0.74505805969E-08  0.10566000000E+00  0.10566000000E+00 0. -1.
     999900   -1    0    0    0    0 -0.00000000000E+00 -0.00000000000E+00 -0.74505805969E-08  0.93827000000E+00  0.93827000000E+00 0. -1.
     999902    2    1    2    0    0 -0.44204421569E-04 -0.13695938464E-01 -0.25049816056E-02  0.10300067957E+01  0.10299126874E+01 0.  0.
     999903    2    3    3    0    0  0.10875499062E+00 -0.77525365588E-01 -0.75261674529E-03  0.14101043387E+00  0.45227709814E-01 0.  0.
         14    1    1    2    0    0  0.44204421569E-04  0.13695938464E-01  0.25049816056E-02  0.13923204275E-01  0.00000000000E+00 0.  1.
     999901    1    3    3    0    0 -0.10879919504E+00  0.63829427124E-01 -0.17523648603E-02  0.88899636185E+00  0.88000000000E+00 0.  1.
        -11    1    4    4    0    0  0.81323099102E-01 -0.49118270199E-01  0.18944969096E-01  0.96877365209E-01  0.51100000000E-03 0. -1.
         11    1    4    4    0    0  0.27431891514E-01 -0.28407095390E-01 -0.19697585841E-01  0.44133068662E-01  0.51100000000E-03 0.  1.
</event>
<event>
 8    1  0.2077555E+004  0.1043930E+01  0.7957747E-01            NaN
         13   -1    0    0    0    0  0.00000000000E+00  0.00000000000E+00  0.74505805969E-08  0.10566000000E+00  0.10566000000E+00 0.  1.
     999900   -1    0    0    0    0 -0.00000000000E+00 -0.00000000000E+00 -0.74505805969E-08  0.93827000000E+00  0.93827000000E+00 0. -1.
     999902    2    1    2    0    0  0.71684241426E-02  0.82230364852E-02  0.66337153236E-02  0.10311624312E+01  0.10310833859E+01 0.  0.
     999903    2    3    3    0    0 -0.67246112890E-01  0.53943959314E-01  0.10293127322E+00  0.14161133894E+00  0.45021482272E-01 0.  0.
         14    1    1    2    0    0 -0.71684241426E-02 -0.82230364852E-02 -0.66337153236E-02  0.12767568787E-01  0.00000000000E+00 0. -1.
     999901    1    3    3    0    0  0.74414537032E-01 -0.45720922828E-01 -0.96297557892E-01  0.88955109227E+00  0.88000000000E+00 0. -1.
        -11    1    4    4    0    0 -0.57645691120E-01  0.18608837059E-01  0.61718971504E-01  0.86480096473E-01  0.51100000000E-03 0. -1.
         11    1    4    4    0    0 -0.96004217699E-02  0.35335122254E-01  0.41212301711E-01  0.55131242469E-01  0.51100000000E-03 0.  1.
</event>
<event>
 8    1  0.2077555E+004  0.1043930E+01  0.7957747E-01            NaN
         13   -1    0    0    0    0  0.00000000000E+00  0.00000000000E+00  0.74505805969E-08  0.10566000000E+00  0.10566000000E+00 0.  1.
     999900   -1    0    0    0    0 -0.00000000000E+00 -0.00000000000E+00 -0.74505805969E-08  0.93827000000E+00  0.93827000000E+00 0.  1.
     999902    2    1    2    0    0  0.94099360065E-02  0.61218759788E-02 -0.57863513625E-02  0.10313004266E+01  0.10312230912E+01 0.  0.
     999903    2    3    3    0    0  0.10370219742E+00  0.50250195437E-02  0.85048017993E-01  0.14161333765E+00  0.45186009627E-01 0.  0.
         14    1    1    2    0    0 -0.94099360065E-02 -0.61218759788E-02  0.57863513625E-02  0.12629573359E-01  0.00000000000E+00 0.  1.
     999901    1    3    3    0    0 -0.94292261411E-01  0.10968564351E-02 -0.90834369355E-01  0.88968708899E+00  0.88000000000E+00 0.  1.
        -11    1    4    4    0    0  0.37238221286E-01 -0.11706216282E-01  0.53327908544E-01  0.66089693409E-01  0.51100000000E-03 0.  1.
         11    1    4    4    0    0  0.66463976131E-01  0.16731235826E-01  0.31720109449E-01  0.75523644244E-01  0.51100000000E-03 0. -1.
</event>
<event>
 8    1  0.2077555E+004  0.1043930E+01  0.7957747E-01            NaN
         13   -1    0    0    0    0  0.00000000000E+00  0.00000000000E+00  0.74505805969E-08  0.10566000000E+00  0.10566000000E+00 0.  1.
     999900   -1    0    0    0    0 -0.00000000000E+00 -0.00000000000E+00 -0.74505805969E-08  0.93827000000E+00  0.93827000000E+00 0.  1.
     999902    2    1    2    0    0  0.81811107691E-02 -0.34238974679E-02  0.13574585702E-01  0.10277150987E+01  0.10275871744E+01 0.  0.
     999903    2    3    3    0    0 -0.10458912082E+00 -0.35713624075E-01  0.69577674799E-01  0.13816684393E+00  0.45107391776E-01 0.  0.
         14    1    1    2    0    0 -0.81811107691E-02  0.34238974679E-02 -0.13574585702E-01  0.16214901303E-01  0.00000000000E+00 0.  1.
     999901    1    3    3    0    0  0.11277023158E+00  0.32289726607E-01 -0.56003089097E-01  0.88954825477E+00  0.88000000000E+00 0.  1.
        -11    1    4    4    0    0 -0.60867446540E-01  0.30353396612E-02  0.35692306122E-01  0.70627623296E-01  0.51100000000E-03 0.  1.
         11    1    4    4    0    0 -0.43721674276E-01 -0.38748963736E-01  0.33885368677E-01  0.67539220631E-01  0.51100000000E-03 0. -1.
</event>
<event>
 8    1  0.2077555E+004  0.1043930E+01  0.7957747E-01            NaN
         13   -1    0    0    0    0  0.00000000000E+00  0.00000000000E+00  0.74505805969E-08  0.10566000000E+00  0.10566000000E+00 0.  1.
     999900   -1    0    0    0    0 -0.00000000000E+00 -0.00000000000E+00 -0.74505805969E-08  0.93827000000E+00  0.93827000000E+00 0. -1.
     999902    2    1    2    0    0  0.39573290334E-02 -0.14268209795E-01  0.12202079214E-02  0.10290729757E+01  0.10289657225E+01 0.  0.
     999903    2    3    3    0    0 -0.10481639675E+00  0.15028641292E-01 -0.77033043449E-01  0.13844757731E+00  0.44958923400E-01 0.  0.
         14    1    1    2    0    0 -0.39573290334E-02  0.14268209795E-01 -0.12202079214E-02  0.14857024306E-01  0.00000000000E+00 0.  1.
     999901    1    3    3    0    0  0.10877372578E+00 -0.29296851088E-01  0.78253251371E-01  0.89062539839E+00  0.88000000000E+00 0.  1.
        -11    1    4    4    0    0 -0.68873561309E-01  0.31169291951E-01 -0.49041928710E-01  0.90113617732E-01  0.51100000000E-03 0.  1.
         11    1    4    4    0    0 -0.35942835436E-01 -0.16140650658E-01 -0.27991114739E-01  0.48333959575E-01  0.51100000000E-03 0. -1.
</event>
<event>
 8    1  0.2077555E+004  0.1043930E+01  0.7957747E-01            NaN
         13   -1    0    0    0    0  0.00000000000E+00  0.00000000000E+00  0.74505805969E-08  0.10566000000E+00  0.10566000000E+00 0.  1.
     999900   -1    0    0    0    0 -0.00000000000E+00 -0.00000000000E+00 -0.74505805969E-08  0.93827000000E+00  0.93827000000E+00 0.  1.
     999902    2    1    2    0    0  0.12936339624E-01  0.28255045347E-03  0.44152314525E-02  0.10302580219E+01  0.10301673013E+01 0.  0.
     999903    2    3    3    0    0  0.12211854289E+00 -0.49662146064E-01  0.20894663816E-01  0.14195244498E+00  0.48318137269E-01 0.  0.
         14    1    1    2    0    0 -0.12936339624E-01 -0.28255045347E-03 -0.44152314525E-02  0.13671978146E-01  0.00000000000E+00 0.  1.
     999901    1    3    3    0    0 -0.10918220327E+00  0.49944696517E-01 -0.16479432364E-01  0.88830557688E+00  0.88000000000E+00 0. -1.
        -11    1    4    4    0    0  0.34228510035E-01  0.77854347149E-02  0.12421116329E-02  0.35128447948E-01  0.51100000000E-03 0.  1.
         11    1    4    4    0    0  0.87890032857E-01 -0.57447580778E-01  0.19652552183E-01  0.10682399703E+00  0.51100000000E-03 0. -1.
</event>
<event>
 8    1  0.2077555E+004  0.1043930E+01  0.7957747E-01            NaN
         13   -1    0    0    0    0  0.00000000000E+00  0.00000000000E+00  0.74505805969E-08  0.10566000000E+00  0.10566000000E+00 0. -1.
     999900   -1    0    0    0    0 -0.00000000000E+00 -0.00000000000E+00 -0.74505805969E-08  0.93827000000E+00  0.93827000000E+00 0. -1.
     999902    2    1    2    0    0 -0.13187497921E-01 -0.42942047606E-02 -0.45607769586E-02  0.10293303088E+01  0.10292267649E+01 0.  0.
     999903    2    3    3    0    0  0.80193721339E-01  0.94766150144E-01 -0.40343054884E-01  0.13814380902E+00  0.45216078307E-01 0.  0.
         14    1    1    2    0    0  0.13187497921E-01  0.42942047606E-02  0.45607769586E-02  0.14599691175E-01  0.00000000000E+00 0. -1.
     999901    1    3    3    0    0 -0.93381219260E-01 -0.99060354904E-01  0.35782277926E-01  0.89118649981E+00  0.88000000000E+00 0.  1.
        -11    1    4    4    0    0  0.59037466958E-01  0.52066264535E-01 -0.51223676427E-02  0.78884841248E-01  0.51100000000E-03 0. -1.
         11    1    4    4    0    0  0.21156254381E-01  0.42699885609E-01 -0.35220687242E-01  0.59258967770E-01  0.51100000000E-03 0.  1.
</event>
<event>
 8    1  0.2077555E+004  0.1043930E+01  0.7957747E-01            NaN
         13   -1    0    0    0    0  0.00000000000E+00  0.00000000000E+00  0.74505805969E-08  0.10566000000E+00  0.10566000000E+00 0. -1.
     999900   -1    0    0    0    0 -0.00000000000E+00 -0.00000000000E+00 -0.74505805969E-08  0.93827000000E+00  0.93827000000E+00 0. -1.
     999902    2    1    2    0    0  0.49269344592E-02 -0.12178796786E-01 -0.31295421180E-02  0.10304247489E+01  0.10303362418E+01 0.  0.
     999903    2    3    3    0    0 -0.12496947506E+00 -0.26459901289E-01  0.35553941156E-01  0.13993418798E+00  0.44721338992E-01 0.  0.
         14    1    1    2    0    0 -0.49269344592E-02  0.12178796786E-01  0.31295421180E-02  0.13505251134E-01  0.00000000000E+00 0. -1.
     999901    1    3    3    0    0  0.12989640952E+00  0.14281104503E-01 -0.38683483274E-01  0.89049056089E+00  0.88000000000E+00 0.  1.
        -11    1    4    4    0    0 -0.36431774429E-01  0.11625965169E-01  0.16661072928E-01  0.41716779913E-01  0.51100000000E-03 0. -1.
         11    1    4    4    0    0 -0.88537700628E-01 -0.38085866458E-01  0.18892868228E-01  0.98217408066E-01  0.51100000000E-03 0.  1.
</event>
<event>
 8    1  0.2077555E+004  0.1043930E+01  0.7957747E-01            NaN
         13   -1    0    0    0    0  0.00000000000E+00  0.00000000000E+00  0.74505805969E-08  0.10566000000E+00  0.10566000000E+00 0.  1.
     999900   -1    0    0    0    0 -0.00000000000E+00 -0.00000000000E+00 -0.74505805969E-08  0.93827000000E+00  0.93827000000E+00 0.  1.
     999902    2    1    2    0    0 -0.23334059381E-03 -0.74363552340E-02 -0.83222730376E-02  0.10327669334E+01  0.10327066015E+01 0.  0.
     999903    2    3    3    0    0 -0.34077751188E-01  0.62882847004E-02 -0.13157872956E+00  0.14342674882E+00  0.45358952292E-01 0.  0.
         14    1    1    2    0    0  0.23334059381E-03  0.74363552340E-02  0.83222730376E-02  0.11163066582E-01  0.00000000000E+00 0.  1.
     999901    1    3    3    0    0  0.33844410594E-01 -0.13724639934E-01  0.12325645652E+00  0.88934018460E+00  0.88000000000E+00 0. -1.
        -11    1    4    4    0    0 -0.73849379809E-03  0.20151082050E-01 -0.59164555909E-01  0.62508537639E-01  0.51100000000E-03 0. -1.
         11    1    4    4    0    0 -0.33339257390E-01 -0.13862797350E-01 -0.72414173652E-01  0.80918211179E-01  0.51100000000E-03 0.  1.
</event>
<event>
 8    1  0.2077555E+004  0.1043930E+01  0.7957747E-01            NaN
         13   -1    0    0    0    0  0.00000000000E+00  0.00000000000E+00  0.74505805969E-08  0.10566000000E+00  0.10566000000E+00 0.  1.
     999900   -1    0    0    0    0 -0.00000000000E+00 -0.00000000000E+00 -0.74505805969E-08  0.93827000000E+00  0.93827000000E+00 0.  1.
     999902    2    1    2    0    0  0.27141881164E-02 -0.28422039104E-02 -0.16885002911E-01  0.10265936721E+01  0.10264472804E+01 0.  0.
     999903    2    3    3    0    0 -0.42049500754E-01 -0.82637722811E-02 -0.12434092228E+00  0.13891132138E+00  0.44712859547E-01 0.  0.
         14    1    1    2    0    0 -0.27141881164E-02  0.28422039104E-02  0.16885002911E-01  0.17336327855E-01  0.00000000000E+00 0.  1.
     999901    1    3    3    0    0  0.44763688871E-01  0.54215683707E-02  0.10745591937E+00  0.88768235076E+00  0.88000000000E+00 0. -1.
        -11    1    4    4    0    0 -0.44005577912E-01 -0.18687535895E-01 -0.78982280391E-01  0.92326467613E-01  0.51100000000E-03 0. -1.
         11    1    4    4    0    0  0.19560771575E-02  0.10423763613E-01 -0.45358641891E-01  0.46584853771E-01  0.51100000000E-03 0.  1.
</event>
<event>
 8    1  0.2077555E+004  0.1043930E+01  0.7957747E-01            NaN
         13   -1    0    0    0    0  0.00000000000E+00  0.00000000000E+00  0.74505805969E-08  0.10566000000E+00  0.10566000000E+00 0.  1.
     999900   -1    0    0    0    0 -0.00000000000E+00 -0.00000000000E+00 -0.74505805969E-08  0.93827000000E+00  0.93827000000E+00 0. -1.
     999902    2    1    2    0    0 -0.75029580998E-02  0.85022339693E-02 -0.13490967349E-03  0.10325897812E+01  0.10325275084E+01 0.  0.
     999903    2    3    3    0    0 -0.10017818931E+00 -0.52705339956E-01  0.74045717677E-01  0.14251235135E+00  0.44871811939E-01 0.  0.
         14    1    1    2    0    0  0.75029580998E-02 -0.85022339693E-02  0.13490967349E-03  0.11340218840E-01  0.00000000000E+00 0.  1.
     999901    1    3    3    0    0  0.92675231213E-01  0.61207573926E-01 -0.74180627350E-01  0.89007742981E+00  0.88000000000E+00 0. -1.
        -11    1    4    4    0    0 -0.78198744365E-01 -0.17301694645E-01  0.48732200344E-01  0.93752230529E-01  0.51100000000E-03 0. -1.
         11    1    4    4    0    0 -0.21979444948E-01 -0.35403645311E-01  0.25313517333E-01  0.48760120819E-01  0.51100000000E-03 0.  1.
</event>
<event>
 8    1  0.2077555E+004  0.1043930E+01  0.7957747E-01            NaN
         13   -1    0    0    0    0  0.00000000000E+00  0.00000000000E+00  0.74505805969E-08  0.10566000000E+00  0.10566000000E+00 0. -1.
     999900   -1    0    0    0    0 -0.00000000000E+00 -0.00000000000E+00 -0.74505805969E-08  0.93827000000E+00  0.93827000000E+00 0. -1.
     999902    2    1    2    0    0 -0.51114768938E-03  0.13574991383E-01 -0.14070236617E-02  0.10302727170E+01  0.10301821926E+01 0.  0.
     999903    2    3    3    0    0 -0.15062702402E-01  0.10940962842E+00  0.75786685890E-01  0.14159116877E+00  0.45903001206E-01 0.  0.
         14    1    1    2    0    0  0.51114768938E-03 -0.13574991383E-01  0.14070236617E-02  0.13657282987E-01  0.00000000000E+00 0.  1.
     999901    1    3    3    0    0  0.14551554712E-01 -0.95834637037E-01 -0.77193709551E-01  0.88868154825E+00  0.88000000000E+00 0. -1.
        -11    1    4    4    0    0  0.47430686216E-02  0.92312382727E-01  0.66303910098E-01  0.11375650452E+00  0.51100000000E-03 0.  1.
         11    1    4    4    0    0 -0.19805771023E-01  0.17097245693E-01  0.94827757910E-02  0.27834664248E-01  0.51100000000E-03 0. -1.
</event>
<event>
 8    1  0.2077555E+004  0.1043930E+01  0.7957747E-01            NaN
         13   -1    0    0    0    0  0.00000000000E+00  0.00000000000E+00  0.74505805969E-08  0.10566000000E+00  0.10566000000E+00 0. -1.
     999900   -1    0    0    0    0 -0.00000000000E+00 -0.00000000000E+00 -0.74505805969E-08  0.93827000000E+00  0.93827000000E+00 0. -1.
     999902    2    1    2    0    0  0.11004812009E-03 -0.10123074193E-01  0.58229338307E-02  0.10322511602E+01  0.10321850911E+01 0.  0.
     999903    2    3    3    0    0 -0.34856584701E-01  0.42123109801E-01  0.12447398115E+00  0.14206556143E+00  0.41225160820E-01 0.  0.
         14    1    1    2    0    0 -0.11004812009E-03  0.10123074193E-01 -0.58229338307E-02  0.11678839844E-01  0.00000000000E+00 0.  1.
     999901    1    3    3    0    0  0.34966632821E-01 -0.52246183994E-01 -0.11865104732E+00  0.89018559873E+00  0.88000000000E+00 0. -1.
        -11    1    4    4    0    0  0.39525133862E-04  0.30595975775E-01  0.43988353286E-01  0.53584994557E-01  0.51100000000E-03 0.  1.
         11    1    4    4    0    0 -0.34896109834E-01  0.11527134026E-01  0.80485627863E-01  0.88480566872E-01  0.51100000000E-03 0. -1.
</event>
<event>
 8    1  0.2077555E+004  0.1043930E+01  0.7957747E-01            NaN
         13   -1    0    0    0    0  0.00000000000E+00  0.00000000000E+00  0.74505805969E-08  0.10566000000E+00  0.10566000000E+00 0.  1.
     999900   -1    0    0    0    0 -0.00000000000E+00 -0.00000000000E+00 -0.74505805969E-08  0.93827000000E+00  0.93827000000E+00 0. -1.
     999902    2    1    2    0    0  0.66654100090E-02 -0.87789118246E-02  0.93303996624E-02  0.10294886240E+01  0.10293873292E+01 0.  0.
     999903    2    3    3    0    0  0.98808259140E-02  0.30615225362E-01 -0.12659770683E+00  0.13817572321E+00  0.45062494009E-01 0.  0.
         14    1    1    2    0    0 -0.66654100090E-02  0.87789118246E-02 -0.93303996624E-02  0.14441376017E-01  0.00000000000E+00 0. -1.
     999901    1    3    3    0    0 -0.32154159050E-02 -0.39394137186E-01  0.13592810649E+00  0.89131290077E+00  0.88000000000E+00 0.  1.
        -11    1    4    4    0    0  0.24776137679E-01  0.29176954704E-01 -0.10607706112E+00  0.11277302736E+00  0.51100000000E-03 0.  1.
         11    1    4    4    0    0 -0.14895311765E-01  0.14382706572E-02 -0.20520645714E-01  0.25402695853E-01  0.51100000000E-03 0. -1.
</event>
<event>
 8    1  0.2077555E+004  0.1043930E+01  0.7957747E-01            NaN
         13   -1    0    0    0    0  0.00000000000E+00  0.00000000000E+00  0.74505805969E-08  0.10566000000E+00  0.10566000000E+00 0.  1.
     999900   -1    0    0    0    0 -0.00000000000E+00 -0.00000000000E+00 -0.74505805969E-08  0.93827000000E+00  0.93827000000E+00 0. -1.
     999902    2    1    2    0    0  0.28079110744E-02 -0.11842852843E-01 -0.55206770203E-02  0.10305652926E+01  0.10304786301E+01 0.  0.
     999903    2    3    3    0    0  0.90539852633E-01  0.35676907870E-01  0.89763102260E-01  0.13981615858E+00  0.44953720689E-01 0.  0.
         14    1    1    2    0    0 -0.28079110744E-02  0.11842852843E-01  0.55206770203E-02  0.13364707361E-01  0.00000000000E+00 0. -1.
     999901    1    3    3    0    0 -0.87731941558E-01 -0.47519760713E-01 -0.95283779280E-01  0.89074913406E+00  0.88000000000E+00 0. -1.
        -11    1    4    4    0    0  0.11316993336E-01  0.10162483451E-02  0.36553497413E-01  0.38282194203E-01  0.51100000000E-03 0. -1.
         11    1    4    4    0    0  0.79222859297E-01  0.34660659525E-01  0.53209604846E-01  0.10153396438E+00  0.51100000000E-03 0.  1.
</event>
<event>
 8    1  0.2077555E+004  0.1043930E+01  0.7957747E-01            NaN
         13   -1    0    0    0    0  0.00000000000E+00  0.00000000000E+00  0.74505805969E-08  0.10566000000E+00  0.10566000000E+00 0.  1.
     999900   -1    0    0    0    0 -0.00000000000E+00 -0.00000000000E+00 -0.74505805969E-08  0.93827000000E+00  0.93827000000E+00 0. -1.
     999902    2    1    2    0    0  0.85752358923E-02  0.74427731003E-02  0.50788496335E-02  0.10314911795E+01  0.10314161765E+01 0.  0.
     999903    2    3    3    0    0 -0.67475565163E-01  0.11502438838E+00 -0.22345909201E-01  0.14126107121E+00  0.40887513575E-01 0.  0.
         14    1    1    2    0    0 -0.85752358923E-02 -0.74427731003E-02 -0.50788496335E-02  0.12438820508E-01  0.00000000000E+00 0.  1.
     999901    1    3    3    0    0  0.76050801056E-01 -0.10758161528E+00  0.27424758834E-01  0.89023010828E+00  0.88000000000E+00 0.  1.
        -11    1    4    4    0    0 -0.29086492335E-01  0.75123230813E-01 -0.28714668369E-01  0.85523781164E-01  0.51100000000E-03 0.  1.
         11    1    4    4    0    0 -0.38389072828E-01  0.39901157567E-01  0.63687591677E-02  0.55737290050E-01  0.51100000000E-03 0. -1.
</event>
<event>
 8    1  0.2077555E+004  0.1043930E+01  0.7957747E-01            NaN
         13   -1    0    0    0    0  0.00000000000E+00  0.00000000000E+00  0.74505805969E-08  0.10566000000E+00  0.10566000000E+00 0. -1.
     999900   -1    0    0    0    0 -0.00000000000E+00 -0.00000000000E+00 -0.74505805969E-08  0.93827000000E+00  0.93827000000E+00 0.  1.
     999902    2    1    2    0    0 -0.93101647020E-02 -0.87739227840E-02 -0.81740954289E-02  0.10287485401E+01  0.10286365160E+01 0.  0.
     999903    2    3    3    0    0 -0.18620420656E-01 -0.35400123800E-01  0.12462138548E+00  0.13833836768E+00  0.44800953367E-01 0.  0.
         14    1    1    2    0    0  0.93101647020E-02  0.87739227840E-02  0.81740954289E-02  0.15181459873E-01  0.00000000000E+00 0. -1.
     999901    1    3    3    0    0  0.93102559541E-02  0.26626201016E-01 -0.13279548091E+00  0.89041017245E+00  0.88000000000E+00 0.  1.
        -11    1    4    4    0    0 -0.30578877633E-01 -0.24121489308E-01  0.10861866549E+00  0.11539146250E+00  0.51100000000E-03 0.  1.
         11    1    4    4    0    0  0.11958456977E-01 -0.11278634492E-01  0.16002719990E-01  0.22946905180E-01  0.51100000000E-03 0. -1.
</event>
<event>
 8    1  0.2077555E+004  0.1043930E+01  0.7957747E-01            NaN
         13   -1    0    0    0    0  0.00000000000E+00  0.00000000000E+00  0.74505805969E-08  0.10566000000E+00  0.10566000000E+00 0.  1.
     999900   -1    0    0    0    0 -0.00000000000E+00 -0.00000000000E+00 -0.74505805969E-08  0.93827000000E+00  0.93827000000E+00 0. -1.
     999902    2    1    2    0    0  0.12020121176E-01  0.39463059936E-05 -0.28019338727E-02  0.10315876274E+01  0.10315137899E+01 0.  0.
     999903    2    3    3    0    0 -0.12456421503E+00  0.35252603272E-01 -0.28276866217E-01  0.13998978031E+00  0.45150500818E-01 0.  0.
         14    1    1    2    0    0 -0.12020121176E-01 -0.39463059936E-05  0.28019338727E-02  0.12342372628E-01  0.00000000000E+00 0.  1.
     999901    1    3    3    0    0  0.13658433620E+00 -0.35248656966E-01  0.25474932345E-01  0.89159784707E+00  0.88000000000E+00 0.  1.
        -11    1    4    4    0    0 -0.71937845470E-01  0.27548858467E-02 -0.30285732531E-01  0.78103327220E-01  0.51100000000E-03 0.  1.
         11    1    4    4    0    0 -0.52626369558E-01  0.32497717426E-01  0.20088663134E-02  0.61886453086E-01  0.51100000000E-03 0. -1.
</event>
<event>
 8    1  0.2302432E+004  0.1043930E+01  0.7957747E-01            NaN
         13   -1    0    0    0    0  0.00000000000E+00  0.00000000000E+00  0.74505805969E-08  0.10566000000E+00  0.10566000000E+00 0.  1.
     999900   -1    0    0    0    0 -0.00000000000E+00 -0.00000000000E+00 -0.74505805969E-08  0.93827000000E+00  0.93827000000E+00 0.  1.
     999902    2    1    2    0    0  0.98487625373E-02  0.10252094134E-01  0.22311920446E-02  0.10295396638E+01  0.10294390888E+01 0.  0.
     999903    2    3    3    0    0  0.43711370565E-01 -0.11929824088E+00  0.31133232554E-01  0.13894138542E+00  0.46826020764E-01 0.  0.
         14    1    1    2    0    0 -0.98487625373E-02 -0.10252094134E-01 -0.22311920446E-02  0.14390336188E-01  0.00000000000E+00 0.  1.
     999901    1    3    3    0    0 -0.33862608028E-01  0.12955033501E+00 -0.28902040510E-01  0.89059827839E+00  0.88000000000E+00 0.  1.
        -11    1    4    4    0    0  0.53070066992E-02 -0.79508870652E-01  0.12992180188E-01  0.80739598089E-01  0.51100000000E-03 0.  1.
         11    1    4    4    0    0  0.38404363866E-01 -0.39789370226E-01  0.18141052366E-01  0.58201787334E-01  0.51100000000E-03 0. -1.
</event>
<event>
 8    1  0.2077555E+004  0.1043930E+01  0.7957747E-01            NaN
         13   -1    0    0    0    0  0.00000000000E+00  0.00000000000E+00  0.74505805969E-08  0.10566000000E+00  0.10566000000E+00 0.  1.
     999900   -1    0    0    0    0 -0.00000000000E+00 -0.00000000000E+00 -0.74505805969E-08  0.93827000000E+00  0.93827000000E+00 0. -1.
     999902    2    1    2    0    0 -0.13161003138E-01  0.30067937004E-02 -0.17628173548E-03  0.10304287450E+01  0.10303402907E+01 0.  0.
     999903    2    3    3    0    0  0.10182879974E+00  0.20862168388E-01  0.79252882604E-01  0.13922143951E+00  0.47929691137E-01 0.  0.
         14    1    1    2    0    0  0.13161003138E-01 -0.30067937004E-02  0.17628173548E-03  0.13501255023E-01  0.00000000000E+00 0.  1.
     999901    1    3    3    0    0 -0.11498980287E+00 -0.17855374688E-01 -0.79429164340E-01  0.89120730547E+00  0.88000000000E+00 0. -1.
        -11    1    4    4    0    0  0.27877234615E-01  0.26731823835E-01  0.38687340742E-01  0.54669022947E-01  0.51100000000E-03 0. -1.
         11    1    4    4    0    0  0.73951565122E-01 -0.58696554470E-02  0.40565541862E-01  0.84552416563E-01  0.51100000000E-03 0.  1.
</event>
<event>
 8    1  0.2077555E+004  0.1043930E+01  0.7957747E-01            NaN
         13   -1    0    0    0    0  0.00000000000E+00  0.00000000000E+00  0.74505805969E-08  0.10566000000E+00  0.10566000000E+00 0.  1.
     999900   -1    0    0    0    0 -0.00000000000E+00 -0.00000000000E+00 -0.74505805969E-08  0.93827000000E+00  0.93827000000E+00 0. -1.
     999902    2    1    2    0    0  0.64000479961E-02 -0.99981438396E-02 -0.70702750876E-02  0.10301128988E+01  0.10300202290E+01 0.  0.
     999903    2    3    3    0    0 -0.93640314561E-01  0.75224188034E-01 -0.56558327429E-01  0.13897879708E+00  0.41098353508E-01 0.  0.
         14    1    1    2    0    0 -0.64000479961E-02  0.99981438396E-02  0.70702750876E-02  0.13817101158E-01  0.00000000000E+00 0.  1.
     999901    1    3    3    0    0  0.10004036256E+00 -0.85222331874E-01  0.49488052342E-01  0.89113410176E+00  0.88000000000E+00 0.  1.
        -11    1    4    4    0    0 -0.74824863171E-01  0.60322823400E-01 -0.24972271516E-01  0.99304977908E-01  0.51100000000E-03 0.  1.
         11    1    4    4    0    0 -0.18815451389E-01  0.14901364634E-01 -0.31586055913E-01  0.39673819177E-01  0.51100000000E-03 0. -1.
</event>
<event>
 8    1  0.2077555E+004  0.1043930E+01  0.7957747E-01            NaN
         13   -1    0    0    0    0  0.00000000000E+00  0.00000000000E+00  0.74505805969E-08  0.10566000000E+00  0.10566000000E+00 0.  1.
     999900   -1    0    0    0    0 -0.00000000000E+00 -0.00000000000E+00 -0.74505805969E-08  0.93827000000E+00  0.93827000000E+00 0.  1.
     999902    2    1    2    0    0 -0.33405888585E-02 -0.17533240070E-02 -0.12306234917E-01  0.10310584384E+01  0.10309780921E+01 0.  0.
     999903    2    3    3    0    0 -0.11758837413E+00 -0.60476298100E-01 -0.19721867967E-01  0.14170140343E+00  0.46967300258E-01 0.  0.
         14    1    1    2    0    0  0.33405888585E-02  0.17533240070E-02  0.12306234917E-01  0.12871561554E-01  0.00000000000E+00 0.  1.
     999901    1    3    3    0    0  0.11424778528E+00  0.58722974093E-01  0.74156330505E-02  0.88935703502E+00  0.88000000000E+00 0. -1.
        -11    1    4    4    0    0 -0.43786919409E-01 -0.48833489144E-01 -0.10242038641E-01  0.66386477913E-01  0.51100000000E-03 0. -1.
         11    1    4    4    0    0 -0.73801454725E-01 -0.11642808957E-01 -0.94798293268E-02  0.75314925513E-01  0.51100000000E-03 0.  1.
</event>
<event>
 8    1  0.2077555E+004  0.1043930E+01  0.7957747E-01            NaN
         13   -1    0    0    0    0  0.00000000000E+00  0.00000000000E+00  0.74505805969E-08  0.10566000000E+00  0.10566000000E+00 0.  1.
     999900   -1    0    0    0    0 -0.00000000000E+00 -0.00000000000E+00 -0.74505805969E-08  0.93827000000E+00  0.93827000000E+00 0. -1.
     999902    2    1    2    0    0 -0.12650847459E-01 -0.36959531367E-02 -0.45973536430E-02  0.10299715018E+01  0.10298769125E+01 0.  0.
     999903    2    3    3    0    0 -0.65020797867E-01  0.23284100106E-01 -0.11456435452E+00  0.14117271904E+00  0.45109775017E-01 0.  0.
         14    1    1    2    0    0  0.12650847459E-01  0.36959531367E-02  0.45973536430E-02  0.13958498183E-01  0.00000000000E+00 0.  1.
     999901    1    3    3    0    0  0.52369950408E-01 -0.26980053242E-01  0.10996700088E+00  0.88879878277E+00  0.88000000000E+00 0. -1.
        -11    1    4    4    0    0 -0.43015680982E-01  0.34382290268E-01 -0.94555826140E-01  0.10942374547E+00  0.51100000000E-03 0.  1.
         11    1    4    4    0    0 -0.22005116886E-01 -0.11098190162E-01 -0.20008528381E-01  0.31748973574E-01  0.51100000000E-03 0. -1.
</event>
<event>
 8    1  0.2077555E+004  0.1043930E+01  0.7957747E-01            NaN
         13   -1    0    0    0    0  0.00000000000E+00  0.00000000000E+00  0.74505805969E-08  0.10566000000E+00  0.10566000000E+00 0. -1.
     999900   -1    0    0    0    0 -0.00000000000E+00 -0.00000000000E+00 -0.74505805969E-08  0.93827000000E+00  0.93827000000E+00 0. -1.
     999902    2    1    2    0    0 -0.10021946020E-01 -0.74329532926E-02  0.69591495556E-02  0.10296430143E+01  0.10295438888E+01 0.  0.
     999903    2    3    3    0    0  0.87934734470E-02 -0.12159673413E+00  0.54063084286E-01  0.14082010198E+00  0.45214965608E-01 0.  0.
         14    1    1    2    0    0  0.10021946020E-01  0.74329532926E-02 -0.69591495556E-02  0.14286985659E-01  0.00000000000E+00 0.  1.
     999901    1    3    3    0    0 -0.18815419467E-01  0.11416378083E+00 -0.47103934731E-01  0.88882291236E+00  0.88000000000E+00 0. -1.
        -11    1    4    4    0    0  0.24398480089E-01 -0.96107018389E-01  0.34019278587E-01  0.10483042140E+00  0.51100000000E-03 0. -1.
         11    1    4    4    0    0 -0.15605006642E-01 -0.25489715738E-01  0.20043805699E-01  0.35989680585E-01  0.51100000000E-03 0.  1.
</event>
<event>
 8    1  0.2077555E+004  0.1043930E+01  0.7957747E-01            NaN
         13   -1    0    0    0    0  0.00000000000E+00  0.00000000000E+00  0.74505805969E-08  0.10566000000E+00  0.10566000000E+00 0. -1.
     999900   -1    0    0    0    0 -0.00000000000E+00 -0.00000000000E+00 -0.74505805969E-08  0.93827000000E+00  0.93827000000E+00 0.  1.
     999902    2    1    2    0    0  0.91011478651E-02 -0.78116859487E-03 -0.10497565951E-01  0.10300145407E+01  0.10299205377E+01 0.  0.
     999903    2    3    3    0    0  0.96579684073E-01  0.87004522186E-01 -0.31662794356E-01  0.14107877884E+00  0.44757871226E-01 0.  0.
         14    1    1    2    0    0 -0.91011478651E-02  0.78116859487E-03  0.10497565951E-01  0.13915459307E-01  0.00000000000E+00 0. -1.
     999901    1    3    3    0    0 -0.87478536208E-01 -0.87785690781E-01  0.21165228405E-01  0.88893576185E+00  0.88000000000E+00 0. -1.
        -11    1    4    4    0    0  0.91869289031E-01  0.62542746542E-01 -0.17768374746E-01  0.11255015626E+00  0.51100000000E-03 0.  1.
         11    1    4    4    0    0  0.47103950421E-02  0.24461775645E-01 -0.13894419610E-01  0.28528622582E-01  0.51100000000E-03 0. -1.
</event>
<event>
 8    1  0.2077555E+004  0.1043930E+01  0.7957747E-01            NaN
         13   -1    0    0    0    0  0.00000000000E+00  0.00000000000E+00  0.74505805969E-08  0.10566000000E+00  0.10566000000E+00 0.  1.
     999900   -1    0    0    0    0 -0.00000000000E+00 -0.00000000000E+00 -0.74505805969E-08  0.93827000000E+00  0.93827000000E+00 0.  1.
     999902    2    1    2    0    0  0.12459394986E-01  0.11344184960E-01 -0.51651503834E-02  0.10263059870E+01  0.10261546536E+01 0.  0.
     999903    2    3    3    0    0  0.30481203517E-01  0.82499216700E-01 -0.97068980833E-01  0.13848047589E+00  0.44935850257E-01 0.  0.
         14    1    1    2    0    0 -0.12459394986E-01 -0.11344184960E-01  0.51651503834E-02  0.17624013002E-01  0.00000000000E+00 0. -1.
     999901    1    3    3    0    0 -0.18021808531E-01 -0.71155031740E-01  0.91903830450E-01  0.88782551111E+00  0.88000000000E+00 0. -1.
        -11    1    4    4    0    0  0.18245083002E-01  0.35162605164E-01 -0.13865803962E-01  0.41973962122E-01  0.51100000000E-03 0.  1.
         11    1    4    4    0    0  0.12236120514E-01  0.47336611536E-01 -0.83203176871E-01  0.96506513767E-01  0.51100000000E-03 0. -1.
</event>
<event>
 8    1  0.2077555E+004  0.1043930E+01  0.7957747E-01            NaN
         13   -1    0    0    0    0  0.00000000000E+00  0.00000000000E+00  0.74505805969E-08  0.10566000000E+00  0.10566000000E+00 0.  1.
     999900   -1    0    0    0    0 -0.00000000000E+00 -0.00000000000E+00 -0.74505805969E-08  0.93827000000E+00  0.93827000000E+00 0.  1.
     999902    2    1    2    0    0  0.15625483936E-02  0.13834936515E-01 -0.53934431428E-02  0.10289989500E+01  0.10288906175E+01 0.  0.
     999903    2    3    3    0    0 -0.45193392965E-02  0.12866973374E+00  0.34269052505E-01  0.14063127071E+00  0.45016236317E-01 0.  0.
         14    1    1    2    0    0 -0.15625483936E-02 -0.13834936515E-01  0.53934431428E-02  0.14931050023E-01  0.00000000000E+00 0. -1.
     999901    1    3    3    0    0  0.60818876900E-02 -0.11483479723E+00 -0.39662495648E-01  0.88836767927E+00  0.88000000000E+00 0.  1.
        -11    1    4    4    0    0 -0.66644746177E-02  0.34239442776E-01  0.30111440340E-01  0.46083778316E-01  0.51100000000E-03 0.  1.
         11    1    4    4    0    0  0.21451353213E-02  0.94430290965E-01  0.41576121650E-02  0.94547492390E-01  0.51100000000E-03 0. -1.
</event>
<event>
 8    1  0.2077555E+004  0.1043930E+01  0.7957747E-01            NaN
         13   -1    0    0    0    0  0.00000000000E+00  0.00000000000E+00  0.74505805969E-08  0.10566000000E+00  0.10566000000E+00 0.  1.
     999900   -1    0    0    0    0 -0.00000000000E+00 -0.00000000000E+00 -0.74505805969E-08  0.93827000000E+00  0.93827000000E+00 0. -1.
     999902    2    1    2    0    0  0.11697208340E-01 -0.12762514415E-01  0.11861792640E-02  0.10265773783E+01  0.10264307089E+01 0.  0.
     999903    2    3    3    0    0  0.14297585398E-01 -0.65118883755E-01  0.11088041827E+00  0.13821890484E+00  0.48632381498E-01 0.  0.
         14    1    1    2    0    0 -0.11697208340E-01  0.12762514415E-01 -0.11861792640E-02  0.17352621658E-01  0.00000000000E+00 0. -1.
     999901    1    3    3    0    0 -0.26003770574E-02  0.52356369341E-01 -0.10969423900E+00  0.88835847350E+00  0.88000000000E+00 0.  1.
        -11    1    4    4    0    0  0.10485551405E-01 -0.53980093879E-01  0.44333058152E-01  0.70636240624E-01  0.51100000000E-03 0. -1.
         11    1    4    4    0    0  0.38120339926E-02 -0.11138789877E-01  0.66547360117E-01  0.67582664216E-01  0.51100000000E-03 0.  1.
</event>
<event>
 8    1  0.2919670E+004  0.1043930E+01  0.7957747E-01            NaN
         13   -1    0    0    0    0  0.00000000000E+00  0.00000000000E+00  0.74505805969E-08  0.10566000000E+00  0.10566000000E+00 0.  1.
     999900   -1    0    0    0    0 -0.00000000000E+00 -0.00000000000E+00 -0.74505805969E-08  0.93827000000E+00  0.93827000000E+00 0.  1.
     999902    2    1    2    0    0 -0.13208156946E-01 -0.26796695201E-02 -0.36366618255E-02  0.10299707254E+01  0.10298761255E+01 0.  0.
     999903    2    3    3    0    0  0.16349935955E-01 -0.55985913880E-01 -0.11948926236E+00  0.14028703912E+00  0.44732835452E-01 0.  0.
         14    1    1    2    0    0  0.13208156946E-01  0.26796695201E-02  0.36366618255E-02  0.13959274619E-01  0.00000000000E+00 0. -1.
     999901    1    3    3    0    0 -0.29558092902E-01  0.53306244360E-01  0.11585260053E+00  0.88968368626E+00  0.88000000000E+00 0. -1.
        -11    1    4    4    0    0  0.28268904729E-01 -0.22446110289E-01 -0.75591532670E-01  0.83769324780E-01  0.51100000000E-03 0. -1.
         11    1    4    4    0    0 -0.11918968773E-01 -0.33539803591E-01 -0.43897729691E-01  0.56517714343E-01  0.51100000000E-03 0.  1.
</event>
<event>
 8    1  0.2077555E+004  0.1043930E+01  0.7957747E-01            NaN
         13   -1    0    0    0    0  0.00000000000E+00  0.00000000000E+00  0.74505805969E-08  0.10566000000E+00  0.10566000000E+00 0. -1.
     999900   -1    0    0    0    0 -0.00000000000E+00 -0.00000000000E+00 -0.74505805969E-08  0.93827000000E+00  0.93827000000E+00 0. -1.
     999902    2    1    2    0    0  0.62952289123E-02  0.23546133660E-02 -0.12228061533E-01  0.10299765201E+01  0.10298819993E+01 0.  0.
     999903    2    3    3    0    0 -0.90999465544E-01 -0.95236772276E-01  0.98156839019E-03  0.13915396181E+00  0.44854387608E-01 0.  0.
         14    1    1    2    0    0 -0.62952289123E-02 -0.23546133660E-02  0.12228061533E-01  0.13953479853E-01  0.00000000000E+00 0. -1.
     999901    1    3    3    0    0  0.97294694456E-01  0.97591385643E-01 -0.13209629923E-01  0.89082255834E+00  0.88000000000E+00 0. -1.
        -11    1    4    4    0    0 -0.44775715578E-01 -0.69293320779E-01 -0.14856093961E-01  0.83829551227E-01  0.51100000000E-03 0. -1.
         11    1    4    4    0    0 -0.46223749966E-01 -0.25943451497E-01  0.15837662351E-01  0.55324410582E-01  0.51100000000E-03 0.  1.
</event>
<event>
 7    1  0.2077555E+004  0.1043930E+01  0.7957747E-01            NaN
         13   -1    0    0    0    0  0.00000000000E+00  0.00000000000E+00  0.74505805969E-08  0.10566000000E+00  0.10566000000E+00 0. -1.
     999900   -1    0    0    0    0 -0.00000000000E+00 -0.00000000000E+00 -0.74505805969E-08  0.93827000000E+00  0.93827000000E+00 0.  1.
     999903    2    1    2    0    0 -0.19155214258E-01  0.10434470952E+00 -0.89288304231E-02  0.11876901050E+00  0.52646112894E-01 0.  0.
         14    1    1    2    0    0 -0.15558647610E-01  0.71113604781E-02  0.32950913974E-01  0.37126886417E-01  0.00000000000E+00 0. -1.
     999901    1    1    2    0    0  0.34713861868E-01 -0.11145607000E+00 -0.24022083551E-01  0.88803410309E+00  0.88000000000E+00 0.  1.
        -11    1    3    3    0    0  0.12966135658E-01  0.92174690076E-02  0.64854685423E-02  0.17187345113E-01  0.51100000000E-03 0.  1.
         11    1    3    3    0    0 -0.32121349916E-01  0.95127240516E-01 -0.15414298965E-01  0.10158166538E+00  0.51100000000E-03 0. -1.
</event>
<event>
 8    1  0.2077555E+004  0.1043930E+01  0.7957747E-01            NaN
         13   -1    0    0    0    0  0.00000000000E+00  0.00000000000E+00  0.74505805969E-08  0.10566000000E+00  0.10566000000E+00 0. -1.
     999900   -1    0    0    0    0 -0.00000000000E+00 -0.00000000000E+00 -0.74505805969E-08  0.93827000000E+00  0.93827000000E+00 0. -1.
     999902    2    1    2    0    0  0.10887153061E-01  0.34133803901E-02  0.90343585868E-02  0.10293766189E+01  0.10292737355E+01 0.  0.
     999903    2    3    3    0    0 -0.36522516922E-02 -0.13156845149E+00  0.18729219698E-01  0.13891298706E+00  0.40279497691E-01 0.  0.
         14    1    1    2    0    0 -0.10887153061E-01 -0.34133803901E-02 -0.90343585868E-02  0.14553381138E-01  0.00000000000E+00 0. -1.
     999901    1    3    3    0    0  0.14539404754E-01  0.13498183188E+00 -0.96948611107E-02  0.89046363180E+00  0.88000000000E+00 0.  1.
        -11    1    4    4    0    0  0.72910734170E-03 -0.38799883353E-01  0.24439763918E-01  0.45864209653E-01  0.51100000000E-03 0. -1.
         11    1    4    4    0    0 -0.43813590339E-02 -0.92768568136E-01 -0.57105442201E-02  0.93048777409E-01  0.51100000000E-03 0.  1.
</event>
<event>
 8    1  0.2077555E+004  0.1043930E+01  0.7957747E-01            NaN
         13   -1    0    0    0    0  0.00000000000E+00  0.00000000000E+00  0.74505805969E-08  0.10566000000E+00  0.10566000000E+00 0.  1.
     999900   -1    0    0    0    0 -0.00000000000E+00 -0.00000000000E+00 -0.74505805969E-08  0.93827000000E+00  0.93827000000E+00 0.  1.
     999902    2    1    2    0    0  0.45967756749E-02 -0.89745697992E-02 -0.99767565205E-02  0.10297451870E+01  0.10296474839E+01 0.  0.
     999903    2    3    3    0    0  0.11884273118E+00 -0.24725488526E-01  0.53382933879E-01  0.13996168514E+00  0.44772660630E-01 0.  0.
         14    1    1    2    0    0 -0.45967756749E-02  0.89745697992E-02  0.99767565205E-02  0.14184813018E-01  0.00000000000E+00 0.  1.
     999901    1    3    3    0    0 -0.11424595550E+00  0.15750918727E-01 -0.63359690400E-01  0.88978350185E+00  0.88000000000E+00 0.  1.
        -11    1    4    4    0    0  0.96325952030E-01 -0.64860429022E-03  0.41936237887E-01  0.10506197643E+00  0.51100000000E-03 0.  1.
         11    1    4    4    0    0  0.22516779148E-01 -0.24076884236E-01  0.11446695992E-01  0.34899708707E-01  0.51100000000E-03 0. -1.
</event>
<event>
 8    1  0.2077555E+004  0.1043930E+01  0.7957747E-01            NaN
         13   -1    0    0    0    0  0.00000000000E+00  0.00000000000E+00  0.74505805969E-08  0.10566000000E+00  0.10566000000E+00 0. -1.
     999900   -1    0    0    0    0 -0.00000000000E+00 -0.00000000000E+00 -0.74505805969E-08  0.93827000000E+00  0.93827000000E+00 0. -1.
     999902    2    1    2    0    0  0.10089511488E-01  0.10294876331E-01 -0.59569095837E-02  0.10283329653E+01  0.10282146760E+01 0.  0.
     999903    2    3    3    0    0  0.77913393720E-01  0.92326908198E-01  0.54354560054E-01  0.13986979404E+00  0.44881913815E-01 0.  0.
         14    1    1    2    0    0 -0.10089511488E-01 -0.10294876331E-01  0.59569095837E-02  0.15597034735E-01  0.00000000000E+00 0.  1.
     999901    1    3    3    0    0 -0.67823882232E-01 -0.82032031867E-01 -0.60311469638E-01  0.88846317122E+00  0.88000000000E+00 0.  1.
        -11    1    4    4    0    0  0.60942787343E-01  0.69585139418E-01  0.18825141916E-01  0.94396832819E-01  0.51100000000E-03 0. -1.
         11    1    4    4    0    0  0.16970606377E-01  0.22741768780E-01  0.35529418138E-01  0.45472961221E-01  0.51100000000E-03 0.  1.
</event>
<event>
 8    1  0.2077555E+004  0.1043930E+01  0.7957747E-01            NaN
         13   -1    0    0    0    0  0.00000000000E+00  0.00000000000E+00  0.74505805969E-08  0.10566000000E+00  0.10566000000E+00 0.  1.
     999900   -1    0    0    0    0 -0.00000000000E+00 -0.00000000000E+00 -0.74505805969E-08  0.93827000000E+00  0.93827000000E+00 0.  1.
     999902    2    1    2    0    0  0.32093895015E-02 -0.51558185983E-02  0.13841129233E-01  0.10288151231E+01  0.10287040867E+01 0.  0.
     999903    2    3    3    0    0 -0.10313020597E+00 -0.66740353830E-01 -0.44335467032E-01  0.13837406331E+00  0.45734380369E-01 0.  0.
         14    1    1    2    0    0 -0.32093895015E-02  0.51558185983E-02 -0.13841129233E-01  0.15114876937E-01  0.00000000000E+00 0. -1.
     999901    1    3    3    0    0  0.10633959547E+00  0.61584535232E-01  0.58176596264E-01  0.89044105975E+00  0.88000000000E+00 0.  1.
        -11    1    4    4    0    0 -0.68372773856E-02 -0.71801739728E-02 -0.20340421737E-01  0.22633981924E-01  0.51100000000E-03 0.  1.
         11    1    4    4    0    0 -0.96292928580E-01 -0.59560179857E-01 -0.23995045295E-01  0.11574008138E+00  0.51100000000E-03 0. -1.
</event>
<event>
 8    1  0.2077555E+004  0.1043930E+01  0.7957747E-01            NaN
         13   -1    0    0    0    0  0.00000000000E+00  0.00000000000E+00  0.74505805969E-08  0.10566000000E+00  0.10566000000E+00 0. -1.
     999900   -1    0    0    0    0 -0.00000000000E+00 -0.00000000000E+00 -0.74505805969E-08  0.93827000000E+00  0.93827000000E+00 0. -1.
     999902    2    1    2    0    0  0.33902019379E-02 -0.11126784848E-01  0.89253087188E-02  0.10292684876E+01  0.10291640586E+01 0.  0.
     999903    2    3    3    0    0 -0.91235627491E-01 -0.84550588601E-01  0.46983969002E-01  0.14034016418E+00  0.44890161303E-01 0.  0.
         14    1    1    2    0    0 -0.33902019379E-02  0.11126784848E-01 -0.89253087188E-02  0.14661512404E-01  0.00000000000E+00 0.  1.
     999901    1    3    3    0    0  0.94625829429E-01  0.73423803753E-01 -0.38058660283E-01  0.88892832342E+00  0.88000000000E+00 0. -1.
        -11    1    4    4    0    0 -0.50103682735E-01 -0.74581445849E-01  0.29865518275E-01  0.94683585649E-01  0.51100000000E-03 0. -1.
         11    1    4    4    0    0 -0.41131944756E-01 -0.99691427514E-02  0.17118450727E-01  0.45656578529E-01  0.51100000000E-03 0.  1.
</event>
<event>
 8    1  0.2077555E+004  0.1043930E+01  0.7957747E-01            NaN
         13   -1    0    0    0    0  0.00000000000E+00  0.00000000000E+00  0.74505805969E-08  0.10566000000E+00  0.10566000000E+00 0.  1.
     999900   -1    0    0    0    0 -0.00000000000E+00 -0.00000000000E+00 -0.74505805969E-08  0.93827000000E+00  0.93827000000E+00 0. -1.
     999902    2    1    2    0    0  0.13429795204E-01 -0.45523496262E-02 -0.50292620841E-02  0.10288841779E+01  0.10287741612E+01 0.  0.
     999903    2    3    3    0    0 -0.10829986515E+00  0.22463710269E-01  0.67675962375E-01  0.13712522649E+00  0.44607317650E-01 0.  0.
         14    1    1    2    0    0 -0.13429795204E-01  0.45523496262E-02  0.50292620841E-02  0.15045822127E-01  0.00000000000E+00 0. -1.
     999901    1    3    3    0    0  0.12172966035E+00 -0.27016059895E-01 -0.72705224459E-01  0.89175895138E+00  0.88000000000E+00 0. -1.
        -11    1    4    4    0    0 -0.58172776536E-02  0.12347170496E-01  0.18523159213E-01  0.23014384346E-01  0.51100000000E-03 0. -1.
         11    1    4    4    0    0 -0.10248258749E+00  0.10116539772E-01  0.49152803161E-01  0.11411084215E+00  0.51100000000E-03 0.  1.
</event>
<event>
 8    1  0.2077555E+004  0.1043930E+01  0.7957747E-01            NaN
         13   -1    0    0    0    0  0.00000000000E+00  0.00000000000E+00  0.74505805969E-08  0.10566000000E+00  0.10566000000E+00 0. -1.
     999900   -1    0    0    0    0 -0.00000000000E+00 -0.00000000000E+00 -0.74505805969E-08  0.93827000000E+00  0.93827000000E+00 0.  1.
     999902    2    1    2    0    0 -0.41165669658E-02 -0.23921761502E-02 -0.87115978262E-02  0.10340022325E+01  0.10339545717E+01 0.  0.
     999903    2    3    3    0    0  0.48660388396E-01 -0.11488633216E+00 -0.55323254073E-01  0.14405111665E+00  0.46079920245E-01 0.  0.
         14    1    1    2    0    0  0.41165669658E-02  0.23921761502E-02  0.87115978262E-02  0.99277674733E-02  0.00000000000E+00 0. -1.
     999901    1    3    3    0    0 -0.52776955362E-01  0.11249415601E+00  0.46611656247E-01  0.88995111588E+00  0.88000000000E+00 0.  1.
        -11    1    4    4    0    0  0.23135987773E-01 -0.21247710767E-01 -0.30686702570E-01  0.43916670852E-01  0.51100000000E-03 0. -1.
         11    1    4    4    0    0  0.25524400624E-01 -0.93638621396E-01 -0.24636551503E-01  0.10013444580E+00  0.51100000000E-03 0.  1.
</event>
<event>
 8    1  0.2077555E+004  0.1043930E+01  0.7957747E-01            NaN
         13   -1    0    0    0    0  0.00000000000E+00  0.00000000000E+00  0.74505805969E-08  0.10566000000E+00  0.10566000000E+00 0. -1.
     999900   -1    0    0    0    0 -0.00000000000E+00 -0.00000000000E+00 -0.74505805969E-08  0.93827000000E+00  0.93827000000E+00 0.  1.
     999902    2    1    2    0    0  0.33231206077E-02 -0.23524101236E-02  0.74574074685E-02  0.10354335366E+01  0.10353986763E+01 0.  0.
     999903    2    3    3    0    0 -0.10689752889E+00  0.88273814343E-01 -0.27266388960E-02  0.14388128411E+00  0.38406267395E-01 0.  0.
         14    1    1    2    0    0 -0.33231206077E-02  0.23524101236E-02 -0.74574074685E-02  0.84964633886E-02  0.00000000000E+00 0.  1.
     999901    1    3    3    0    0  0.11022064950E+00 -0.90626224467E-01  0.10184046364E-01  0.89155225250E+00  0.88000000000E+00 0. -1.
        -11    1    4    4    0    0 -0.57073675646E-01  0.28047775539E-01  0.10942058429E-01  0.64529620548E-01  0.51100000000E-03 0.  1.
         11    1    4    4    0    0 -0.49823853249E-01  0.60226038805E-01 -0.13668697325E-01  0.79351663563E-01  0.51100000000E-03 0. -1.
</event>
<event>
 8    1  0.2077555E+004  0.1043930E+01  0.7957747E-01            NaN
         13   -1    0    0    0    0  0.00000000000E+00  0.00000000000E+00  0.74505805969E-08  0.10566000000E+00  0.10566000000E+00 0. -1.
     999900   -1    0    0    0    0 -0.00000000000E+00 -0.00000000000E+00 -0.74505805969E-08  0.93827000000E+00  0.93827000000E+00 0. -1.
     999902    2    1    2    0    0 -0.61322672504E-04  0.12994528717E-01 -0.37411198713E-02  0.10304075182E+01  0.10303187837E+01 0.  0.
     999903    2    3    3    0    0  0.14513409501E-01 -0.15608705467E-01 -0.13137296736E+00  0.14062077050E+00  0.45399050676E-01 0.  0.
         14    1    1    2    0    0  0.61322672504E-04 -0.12994528717E-01  0.37411198713E-02  0.13522481833E-01  0.00000000000E+00 0.  1.
     999901    1    3    3    0    0 -0.14574732173E-01  0.28603234184E-01  0.12763184749E+00  0.88978674766E+00  0.88000000000E+00 0.  1.
        -11    1    4    4    0    0  0.11131899504E-01  0.11960465517E-01 -0.85045401495E-01  0.86602271093E-01  0.51100000000E-03 0. -1.
         11    1    4    4    0    0  0.33815099962E-02 -0.27569170984E-01 -0.46327565865E-01  0.54018499410E-01  0.51100000000E-03 0.  1.
</event>
<event>
 8    1  0.2077555E+004  0.1043930E+01  0.7957747E-01            NaN
         13   -1    0    0    0    0  0.00000000000E+00  0.00000000000E+00  0.74505805969E-08  0.10566000000E+00  0.10566000000E+00 0.  1.
     999900   -1    0    0    0    0 -0.00000000000E+00 -0.00000000000E+00 -0.74505805969E-08  0.93827000000E+00  0.93827000000E+00 0.  1.
     999902    2    1    2    0    0  0.11095002659E-01 -0.44037703802E-02 -0.67582963157E-02  0.10302126079E+01  0.10301212796E+01 0.  0.
     999903    2    3    3    0    0 -0.71332662161E-01  0.56569438738E-01  0.93845198600E-01  0.13856631290E+00  0.45883021701E-01 0.  0.
         14    1    1    2    0    0 -0.11095002659E-01  0.44037703802E-02  0.67582963157E-02  0.13717392123E-01  0.00000000000E+00 0.  1.
     999901    1    3    3    0    0  0.82427664819E-01 -0.60973209118E-01 -0.10060349492E+00  0.89164629498E+00  0.88000000000E+00 0.  1.
        -11    1    4    4    0    0 -0.74192111773E-01  0.38785429370E-01  0.80496353941E-01  0.11614087609E+00  0.51100000000E-03 0. -1.
         11    1    4    4    0    0  0.28594496121E-02  0.17784009368E-01  0.13348844658E-01  0.22425436807E-01  0.51100000000E-03 0.  1.
</event>
<event>
 8    1  0.2077555E+004  0.1043930E+01  0.7957747E-01            NaN
         13   -1    0    0    0    0  0.00000000000E+00  0.00000000000E+00  0.74505805969E-08  0.10566000000E+00  0.10566000000E+00 0.  1.
     999900   -1    0    0    0    0 -0.00000000000E+00 -0.00000000000E+00 -0.74505805969E-08  0.93827000000E+00  0.93827000000E+00 0. -1.
     999902    2    1    2    0    0 -0.10872160940E-01  0.48458257470E-02  0.10287119094E-01  0.10281975263E+01  0.10280771577E+01 0.  0.
     999903    2    3    3    0    0  0.11411990834E+00 -0.42430050686E-02  0.62144366883E-01  0.13780727565E+00  0.45689892942E-01 0.  0.
         14    1    1    2    0    0  0.10872160940E-01 -0.48458257470E-02 -0.10287119094E-01  0.15732473738E-01  0.00000000000E+00 0. -1.
     999901    1    3    3    0    0 -0.12499206928E+00  0.90888308157E-02 -0.51857247790E-01  0.89039025061E+00  0.88000000000E+00 0. -1.
        -11    1    4    4    0    0  0.10146453992E+00  0.16166141005E-02  0.35105380498E-01  0.10737930509E+00  0.51100000000E-03 0. -1.
         11    1    4    4    0    0  0.12655368421E-01 -0.58596191692E-02  0.27038986386E-01  0.30427970561E-01  0.51100000000E-03 0.  1.
</event>
<event>
 8    1  0.2077555E+004  0.1043930E+01  0.7957747E-01            NaN
         13   -1    0    0    0    0  0.00000000000E+00  0.00000000000E+00  0.74505805969E-08  0.10566000000E+00  0.10566000000E+00 0. -1.
     999900   -1    0    0    0    0 -0.00000000000E+00 -0.00000000000E+00 -0.74505805969E-08  0.93827000000E+00  0.93827000000E+00 0.  1.
     999902    2    1    2    0    0 -0.77098176893E-03 -0.60816838375E-02  0.13423147779E-01  0.10291732325E+01  0.10290674323E+01 0.  0.
     999903    2    3    3    0    0  0.74035928870E-01 -0.40936418889E-01  0.10321636076E+00  0.14076243362E+00  0.44758646506E-01 0.  0.
         14    1    1    2    0    0  0.77098176893E-03  0.60816838375E-02 -0.13423147779E-01  0.14756767515E-01  0.00000000000E+00 0.  1.
     999901    1    3    3    0    0 -0.74806910639E-01  0.34854735052E-01 -0.89793212978E-01  0.88841079886E+00  0.88000000000E+00 0. -1.
        -11    1    4    4    0    0  0.24521819728E-01  0.82860492125E-02  0.27541828699E-01  0.37799361151E-01  0.51100000000E-03 0. -1.
         11    1    4    4    0    0  0.49514109142E-01 -0.49222468102E-01  0.75674532058E-01  0.10296307247E+00  0.51100000000E-03 0.  1.
</event>
<event>
 8    1  0.2077555E+004  0.1043930E+01  0.7957747E-01            NaN
         13   -1    0    0    0    0  0.00000000000E+00  0.00000000000E+00  0.74505805969E-08  0.10566000000E+00  0.10566000000E+00 0.  1.
     999900   -1    0    0    0    0 -0.00000000000E+00 -0.00000000000E+00 -0.74505805969E-08  0.93827000000E+00  0.93827000000E+00 0. -1.
     999902    2    1    2    0    0 -0.11135868174E-01  0.82040457192E-02  0.23170282884E-03  0.10300964317E+01  0.10300035393E+01 0.  0.
     999903    2    3    3    0    0 -0.12939526303E-01 -0.38001060815E-01  0.12637261975E+00  0.13989999495E+00  0.44614544715E-01 0.  0.
         14    1    1    2    0    0  0.11135868174E-01 -0.82040457192E-02 -0.23170282884E-03  0.13833568316E-01  0.00000000000E+00 0. -1.
     999901    1    3    3    0    0  0.18036581286E-02  0.46205106534E-01 -0.12614091692E+00  0.89019643673E+00  0.88000000000E+00 0. -1.
        -11    1    4    4    0    0  0.88650229169E-02 -0.15312596854E-01  0.90342692250E-01  0.92060455233E-01  0.51100000000E-03 0.  1.
         11    1    4    4    0    0 -0.21804549220E-01 -0.22688463961E-01  0.36029927501E-01  0.47839539717E-01  0.51100000000E-03 0. -1.
</event>
<event>
 8    1  0.2077555E+004  0.1043930E+01  0.7957747E-01            NaN
         13   -1    0    0    0    0  0.00000000000E+00  0.00000000000E+00  0.74505805969E-08  0.10566000000E+00  0.10566000000E+00 0. -1.
     999900   -1    0    0    0    0 -0.00000000000E+00 -0.00000000000E+00 -0.74505805969E-08  0.93827000000E+00  0.93827000000E+00 0. -1.
     999902    2    1    2    0    0  0.51756166476E-03 -0.13331460072E-01  0.33068083433E-03  0.10305843997E+01  0.10304979863E+01 0.  0.
     999903    2    3    3    0    0 -0.33463022611E-01  0.67789771833E-01 -0.10847048694E+00  0.13953275782E+00  0.44590547428E-01 0.  0.
         14    1    1    2    0    0 -0.51756166476E-03  0.13331460072E-01 -0.33068083433E-03  0.13345600307E-01  0.00000000000E+00 0. -1.
     999901    1    3    3    0    0  0.33980584276E-01 -0.81121231905E-01  0.10880116778E+00  0.89105164187E+00  0.88000000000E+00 0.  1.
        -11    1    4    4    0    0  0.56146019761E-02  0.32680955542E-01 -0.27853188832E-01  0.43308542571E-01  0.51100000000E-03 0.  1.
         11    1    4    4    0    0 -0.39077624587E-01  0.35108816291E-01 -0.80617298112E-01  0.96224215250E-01  0.51100000000E-03 0. -1.
</event>
<event>
 8    1  0.2077555E+004  0.1043930E+01  0.7957747E-01            NaN
         13   -1    0    0    0    0  0.00000000000E+00  0.00000000000E+00  0.74505805969E-08  0.10566000000E+00  0.10566000000E+00 0. -1.
     999900   -1    0    0    0    0 -0.00000000000E+00 -0.00000000000E+00 -0.74505805969E-08  0.93827000000E+00  0.93827000000E+00 0.  1.
     999902    2    1    2    0    0 -0.34801283028E-02 -0.24033475389E-02 -0.13884205740E-01  0.10294159192E+01  0.10293135947E+01 0.  0.
     999903    2    3    3    0    0  0.19566782992E-01  0.94740467606E-01  0.87389856126E-01  0.13799877973E+00  0.45255508546E-01 0.  0.
         14    1    1    2    0    0  0.34801283028E-02  0.24033475389E-02  0.13884205740E-01  0.14514080798E-01  0.00000000000E+00 0. -1.
     999901    1    3    3    0    0 -0.23046911294E-01 -0.97143815145E-01 -0.10127406187E+00  0.89141713947E+00  0.88000000000E+00 0.  1.
        -11    1    4    4    0    0  0.22296370152E-01  0.87515925429E-01  0.57362875574E-01  0.10699030770E+00  0.51100000000E-03 0.  1.
         11    1    4    4    0    0 -0.27295871601E-02  0.72245421773E-02  0.30026980552E-01  0.31008472032E-01  0.51100000000E-03 0. -1.
</event>
<event>
 8    1  0.2077555E+004  0.1043930E+01  0.7957747E-01            NaN
         13   -1    0    0    0    0  0.00000000000E+00  0.00000000000E+00  0.74505805969E-08  0.10566000000E+00  0.10566000000E+00 0.  1.
     999900   -1    0    0    0    0 -0.00000000000E+00 -0.00000000000E+00 -0.74505805969E-08  0.93827000000E+00  0.93827000000E+00 0. -1.
     999902    2    1    2    0    0 -0.13459119139E-01 -0.54814697266E-02  0.11745218577E-02  0.10293500857E+01  0.10292468242E+01 0.  0.
     999903    2    3    3    0    0  0.25820640503E-01 -0.15688966327E-01 -0.12804654256E+00  0.13898770109E+00  0.44819804229E-01 0.  0.
         14    1    1    2    0    0  0.13459119139E-01  0.54814697266E-02 -0.11745218577E-02  0.14579914264E-01  0.00000000000E+00 0.  1.
     999901    1    3    3    0    0 -0.39279759642E-01  0.10207496600E-01  0.12922106442E+00  0.89036238465E+00  0.88000000000E+00 0.  1.
        -11    1    4    4    0    0  0.36846769575E-01 -0.17498463844E-01 -0.11369639005E+00  0.12079325684E+00  0.51100000000E-03 0. -1.
         11    1    4    4    0    0 -0.11026129072E-01  0.18094975168E-02 -0.14350152510E-01  0.18194444252E-01  0.51100000000E-03 0.  1.
</event>
<event>
 8    1  0.2077555E+004  0.1043930E+01  0.7957747E-01            NaN
         13   -1    0    0    0    0  0.00000000000E+00  0.00000000000E+00  0.74505805969E-08  0.10566000000E+00  0.10566000000E+00 0. -1.
     999900   -1    0    0    0    0 -0.00000000000E+00 -0.00000000000E+00 -0.74505805969E-08  0.93827000000E+00  0.93827000000E+00 0.  1.
     999902    2    1    2    0    0 -0.78493232078E-02 -0.14888838039E-02 -0.10684408817E-01  0.10305888890E+01  0.10305025342E+01 0.  0.
     999903    2    3    3    0    0 -0.62836553598E-01  0.43149594783E-01 -0.11160414430E+00  0.14199394066E+00  0.43548526526E-01 0.  0.
         14    1    1    2    0    0  0.78493232078E-02  0.14888838039E-02  0.10684408817E-01  0.13341110957E-01  0.00000000000E+00 0. -1.
     999901    1    3    3    0    0  0.54987230390E-01 -0.44638478587E-01  0.10091973548E+00  0.88859494838E+00  0.88000000000E+00 0. -1.
        -11    1    4    4    0    0 -0.68519528109E-01  0.36231996367E-01 -0.91085891798E-01  0.11960177297E+00  0.51100000000E-03 0. -1.
         11    1    4    4    0    0  0.56829745110E-02  0.69175984160E-02 -0.20518252500E-01  0.22392167689E-01  0.51100000000E-03 0.  1.
</event>
<event>
 8    1  0.2077555E+004  0.1043930E+01  0.7957747E-01            NaN
         13   -1    0    0    0    0  0.00000000000E+00  0.00000000000E+00  0.74505805969E-08  0.10566000000E+00  0.10566000000E+00 0. -1.
     999900   -1    0    0    0    0 -0.00000000000E+00 -0.00000000000E+00 -0.74505805969E-08  0.93827000000E+00  0.93827000000E+00 0.  1.
     999902    2    1    2    0    0  0.16076518653E-02  0.12552818288E-01 -0.69789337992E-02  0.10294778961E+01  0.10293764497E+01 0.  0.
     999903    2    3    3    0    0 -0.22041350053E-02  0.18388074722E-01 -0.13161222285E+00  0.14066855954E+00  0.46074797183E-01 0.  0.
         14    1    1    2    0    0 -0.16076518653E-02 -0.12552818288E-01  0.69789337992E-02  0.14452103946E-01  0.00000000000E+00 0. -1.
     999901    1    3    3    0    0  0.38117868705E-02 -0.58352564341E-02  0.12463328905E+00  0.88880933652E+00  0.88000000000E+00 0. -1.
        -11    1    4    4    0    0  0.82461777337E-02 -0.29013530999E-02 -0.10356686575E+00  0.10393639448E+00  0.51100000000E-03 0. -1.
         11    1    4    4    0    0 -0.10450312739E-01  0.21289427822E-01 -0.28045357107E-01  0.36732165055E-01  0.51100000000E-03 0.  1.
</event>
<event>
 8    1  0.2939595E+004  0.1043930E+01  0.7957747E-01            NaN
         13   -1    0    0    0    0  0.00000000000E+00  0.00000000000E+00  0.74505805969E-08  0.10566000000E+00  0.10566000000E+00 0. -1.
     999900   -1    0    0    0    0 -0.00000000000E+00 -0.00000000000E+00 -0.74505805969E-08  0.93827000000E+00  0.93827000000E+00 0.  1.
     999902    2    1    2    0    0  0.10751832738E-01  0.25081693664E-02  0.23759745802E-01  0.10177304133E+01  0.10173931275E+01 0.  0.
     999903    2    3    3    0    0  0.10386532246E+00 -0.40870086122E-01 -0.46078225072E-01  0.12900709464E+00  0.45401084698E-01 0.  0.
         14    1    1    2    0    0 -0.10751832738E-01 -0.25081693664E-02 -0.23759745802E-01  0.26199586664E-01  0.00000000000E+00 0.  1.
     999901    1    3    3    0    0 -0.93113489725E-01  0.43378255488E-01  0.69837970874E-01  0.88872331870E+00  0.88000000000E+00 0. -1.
        -11    1    4    4    0    0  0.50090695655E-01 -0.21844349164E-01  0.15847406470E-02  0.54671984650E-01  0.51100000000E-03 0.  1.
         11    1    4    4    0    0  0.53774626808E-01 -0.19025736957E-01 -0.47662965719E-01  0.74335109990E-01  0.51100000000E-03 0. -1.
</event>
<event>
 8    1  0.2077555E+004  0.1043930E+01  0.7957747E-01            NaN
         13   -1    0    0    0    0  0.00000000000E+00  0.00000000000E+00  0.74505805969E-08  0.10566000000E+00  0.10566000000E+00 0. -1.
     999900   -1    0    0    0    0 -0.00000000000E+00 -0.00000000000E+00 -0.74505805969E-08  0.93827000000E+00  0.93827000000E+00 0. -1.
     999902    2    1    2    0    0  0.18084759767E-02 -0.93569542962E-02 -0.95029924594E-02  0.10304715437E+01  0.10303836530E+01 0.  0.
     999903    2    3    3    0    0 -0.51634424593E-01 -0.97333524488E-01  0.75251792279E-01  0.14042694146E+00  0.43783157197E-01 0.  0.
         14    1    1    2    0    0 -0.18084759767E-02  0.93569542962E-02  0.95029924594E-02  0.13458456254E-01  0.00000000000E+00 0. -1.
     999901    1    3    3    0    0  0.53442900570E-01  0.87976570191E-01 -0.84754784738E-01  0.89004460229E+00  0.88000000000E+00 0. -1.
        -11    1    4    4    0    0 -0.55135229596E-01 -0.67585619247E-01  0.46233050799E-01  0.98719124686E-01  0.51100000000E-03 0. -1.
         11    1    4    4    0    0  0.35008050032E-02 -0.29747905241E-01  0.29018741480E-01  0.41707816773E-01  0.51100000000E-03 0.  1.
</event>
<event>
 8    1  0.2077555E+004  0.1043930E+01  0.7957747E-01            NaN
         13   -1    0    0    0    0  0.00000000000E+00  0.00000000000E+00  0.74505805969E-08  0.10566000000E+00  0.10566000000E+00 0.  1.
     999900   -1    0    0    0    0 -0.00000000000E+00 -0.00000000000E+00 -0.74505805969E-08  0.93827000000E+00  0.93827000000E+00 0.  1.
     999902    2    1    2    0    0 -0.74637706061E-02 -0.93144653075E-02  0.75885209208E-02  0.10297859983E+01  0.10296888605E+01 0.  0.
     999903    2    3    3    0    0  0.62504675765E-01  0.10966646102E+00 -0.32798335283E-01  0.13811165048E+00  0.45448102676E-01 0.  0.
         14    1    1    2    0    0  0.74637706061E-02  0.93144653075E-02 -0.75885209208E-02  0.14144001746E-01  0.00000000000E+00 0.  1.
     999901    1    3    3    0    0 -0.69968446371E-01 -0.11898092633E+00  0.40386856203E-01  0.89167434777E+00  0.88000000000E+00 0. -1.
        -11    1    4    4    0    0  0.33205441012E-01  0.93813293815E-01 -0.32834388660E-01  0.10479453043E+00  0.51100000000E-03 0. -1.
         11    1    4    4    0    0  0.29299234753E-01  0.15853167206E-01  0.36053377795E-04  0.33317120050E-01  0.51100000000E-03 0.  1.
</event>
<event>
 8    1  0.2077555E+004  0.1043930E+01  0.7957747E-01            NaN
         13   -1    0    0    0    0  0.00000000000E+00  0.00000000000E+00  0.74505805969E-08  0.10566000000E+00  0.10566000000E+00 0. -1.
     999900   -1    0    0    0    0 -0.00000000000E+00 -0.00000000000E+00 -0.74505805969E-08  0.93827000000E+00  0.93827000000E+00 0.  1.
     999902    2    1    2    0    0 -0.74345032387E-02  0.10293976338E-01 -0.25220286722E-02  0.10309840193E+01  0.10309027353E+01 0.  0.
     999903    2    3    3    0    0 -0.10343660681E+00 -0.79808019399E-01  0.26365461381E-01  0.14072042880E+00  0.45151411251E-01 0.  0.
         14    1    1    2    0    0  0.74345032387E-02 -0.10293976338E-01  0.25220286722E-02  0.12945980684E-01  0.00000000000E+00 0. -1.
     999901    1    3    3    0    0  0.96002103570E-01  0.90101995736E-01 -0.28887490053E-01  0.89026359052E+00  0.88000000000E+00 0. -1.
        -11    1    4    4    0    0 -0.83831856560E-01 -0.38310450586E-01  0.20758183659E-01  0.94480866361E-01  0.51100000000E-03 0.  1.
         11    1    4    4    0    0 -0.19604750249E-01 -0.41497568812E-01  0.56072777222E-02  0.46239562434E-01  0.51100000000E-03 0. -1.
</event>
<event>
 8    1  0.2077555E+004  0.1043930E+01  0.7957747E-01            NaN
         13   -1    0    0    0    0  0.00000000000E+00  0.00000000000E+00  0.74505805969E-08  0.10566000000E+00  0.10566000000E+00 0. -1.
     999900   -1    0    0    0    0 -0.00000000000E+00 -0.00000000000E+00 -0.74505805969E-08  0.93827000000E+00  0.93827000000E+00 0. -1.
     999902    2    1    2    0    0  0.11652880041E-01 -0.49569365591E-02 -0.50843865027E-02  0.10302840548E+01  0.10301936817E+01 0.  0.
     999903    2    3    3    0    0 -0.91853475418E-02  0.54161669384E-01 -0.12111245052E+00  0.14045724419E+00  0.45190206194E-01 0.  0.
         14    1    1    2    0    0 -0.11652880041E-01  0.49569365591E-02  0.50843865027E-02  0.13645945164E-01  0.00000000000E+00 0. -1.
     999901    1    3    3    0    0  0.20838227583E-01 -0.59118605943E-01  0.11602806402E+00  0.88982681064E+00  0.88000000000E+00 0.  1.
        -11    1    4    4    0    0 -0.26497344173E-01  0.34639202732E-01 -0.88708815300E-01  0.98850890978E-01  0.51100000000E-03 0.  1.
         11    1    4    4    0    0  0.17311996631E-01  0.19522466652E-01 -0.32403635219E-01  0.41606353217E-01  0.51100000000E-03 0. -1.
</event>
<event>
 8    1  0.2077555E+004  0.1043930E+01  0.7957747E-01            NaN
         13   -1    0    0    0    0  0.00000000000E+00  0.00000000000E+00  0.74505805969E-08  0.10566000000E+00  0.10566000000E+00 0.  1.
     999900   -1    0    0    0    0 -0.00000000000E+00 -0.00000000000E+00 -0.74505805969E-08  0.93827000000E+00  0.93827000000E+00 0.  1.
     999902    2    1    2    0    0  0.77121633937E-02  0.96165228560E-02 -0.66851356929E-02  0.10299069470E+01  0.10298114747E+01 0.  0.
     999903    2    3    3    0    0  0.89496721209E-01 -0.79982680284E-01 -0.56785241138E-01  0.14017285658E+00  0.44910732104E-01 0.  0.
         14    1    1    2    0    0 -0.77121633937E-02 -0.96165228560E-02  0.66851356929E-02  0.14023052994E-01  0.00000000000E+00 0.  1.
     999901    1    3    3    0    0 -0.81784557815E-01  0.89599203140E-01  0.50100105445E-01  0.88973409043E+00  0.88000000000E+00 0. -1.
        -11    1    4    4    0    0  0.42324135770E-01 -0.42734768794E-01 -0.52627103499E-01  0.79921624584E-01  0.51100000000E-03 0.  1.
         11    1    4    4    0    0  0.47172585439E-01 -0.37247911490E-01 -0.41581376396E-02  0.60251231995E-01  0.51100000000E-03 0. -1.
</event>
<event>
 8    1  0.2077555E+004  0.1043930E+01  0.7957747E-01            NaN
         13   -1    0    0    0    0  0.00000000000E+00  0.00000000000E+00  0.74505805969E-08  0.10566000000E+00  0.10566000000E+00 0.  1.
     999900   -1    0    0    0    0 -0.00000000000E+00 -0.00000000000E+00 -0.74505805969E-08  0.93827000000E+00  0.93827000000E+00 0. -1.
     999902    2    1    2    0    0  0.15364074998E-02  0.13865089550E-01 -0.38682590862E-03  0.10299746824E+01  0.10298801364E+01 0.  0.
     999903    2    3    3    0    0  0.88924487059E-01  0.99803143993E-01 -0.13199490562E-01  0.14138805741E+00  0.44137560861E-01 0.  0.
         14    1    1    2    0    0 -0.15364074998E-02 -0.13865089550E-01  0.38682590862E-03  0.13955317644E-01  0.00000000000E+00 0.  1.
     999901    1    3    3    0    0 -0.87388079559E-01 -0.85938054443E-01  0.12812664654E-01  0.88858662494E+00  0.88000000000E+00 0.  1.
        -11    1    4    4    0    0 -0.23473278262E-02  0.77089749676E-02  0.63350605138E-02  0.10263155250E-01  0.51100000000E-03 0.  1.
         11    1    4    4    0    0  0.91271814885E-01  0.92094169025E-01 -0.19534551076E-01  0.13112490216E+00  0.51100000000E-03 0. -1.
</event>
<event>
 8    1  0.2077555E+004  0.1043930E+01  0.7957747E-01            NaN
         13   -1    0    0    0    0  0.00000000000E+00  0.00000000000E+00  0.74505805969E-08  0.10566000000E+00  0.10566000000E+00 0. -1.
     999900   -1    0    0    0    0 -0.00000000000E+00 -0.00000000000E+00 -0.74505805969E-08  0.93827000000E+00  0.93827000000E+00 0.  1.
     999902    2    1    2    0    0  0.47996183341E-02 -0.10323539479E-01  0.82129340171E-02  0.10298920483E+01  0.10297963716E+01 0.  0.
     999903    2    3    3    0    0  0.45018762534E-01 -0.37053706644E-01  0.12034186514E+00  0.14146367266E+00  0.46153439982E-01 0.  0.
         14    1    1    2    0    0 -0.47996183341E-02  0.10323539479E-01 -0.82129340171E-02  0.14037951728E-01  0.00000000000E+00 0.  1.
     999901    1    3    3    0    0 -0.40219144200E-01  0.26730167164E-01 -0.11212893112E+00  0.88842837561E+00  0.88000000000E+00 0.  1.
        -11    1    4    4    0    0 -0.41304930835E-02  0.71398793396E-02  0.13370261436E-01  0.15718265233E-01  0.51100000000E-03 0. -1.
         11    1    4    4    0    0  0.49149255618E-01 -0.44193585983E-01  0.10697160370E+00  0.12574540743E+00  0.51100000000E-03 0.  1.
</event>
<event>
 8    1  0.2077555E+004  0.1043930E+01  0.7957747E-01            NaN
         13   -1    0    0    0    0  0.00000000000E+00  0.00000000000E+00  0.74505805969E-08  0.10566000000E+00  0.10566000000E+00 0.  1.
     999900   -1    0    0    0    0 -0.00000000000E+00 -0.00000000000E+00 -0.74505805969E-08  0.93827000000E+00  0.93827000000E+00 0. -1.
     999902    2    1    2    0    0 -0.12015639921E-01 -0.13238429874E-02 -0.25118874284E-02  0.10315834320E+01  0.10315095440E+01 0.  0.
     999903    2    3    3    0    0 -0.15597861704E-02 -0.32881256223E-02  0.13369030472E+00  0.14104189988E+00  0.44793696449E-01 0.  0.
         14    1    1    2    0    0  0.12015639921E-01  0.13238429874E-02  0.25118874284E-02  0.12346568001E-01  0.00000000000E+00 0. -1.
     999901    1    3    3    0    0 -0.10455853750E-01  0.19642826348E-02 -0.13620219215E+00  0.89054153212E+00  0.88000000000E+00 0. -1.
        -11    1    4    4    0    0 -0.21399013175E-01 -0.56006353237E-02  0.94459833482E-01  0.97016525104E-01  0.51100000000E-03 0.  1.
         11    1    4    4    0    0  0.19839227004E-01  0.23125097015E-02  0.39230471241E-01  0.44025374775E-01  0.51100000000E-03 0. -1.
</event>
<event>
 8    1  0.2077555E+004  0.1043930E+01  0.7957747E-01            NaN
         13   -1    0    0    0    0  0.00000000000E+00  0.00000000000E+00  0.74505805969E-08  0.10566000000E+00  0.10566000000E+00 0.  1.
     999900   -1    0    0    0    0 -0.00000000000E+00 -0.00000000000E+00 -0.74505805969E-08  0.93827000000E+00  0.93827000000E+00 0. -1.
     999902    2    1    2    0    0  0.40844974638E-02  0.12556989335E-01 -0.57180301713E-02  0.10295405257E+01  0.10294399629E+01 0.  0.
     999903    2    3    3    0    0  0.10813575916E+00 -0.73062193833E-01 -0.18660445856E-01  0.13918957486E+00  0.44655334883E-01 0.  0.
         14    1    1    2    0    0 -0.40844974638E-02 -0.12556989335E-01  0.57180301713E-02  0.14389474268E-01  0.00000000000E+00 0.  1.
     999901    1    3    3    0    0 -0.10405126170E+00  0.85619183167E-01  0.12942415685E-01  0.89035095087E+00  0.88000000000E+00 0. -1.
        -11    1    4    4    0    0  0.63490465518E-01 -0.56666209318E-01  0.65574642233E-02  0.85354320033E-01  0.51100000000E-03 0.  1.
         11    1    4    4    0    0  0.44645293646E-01 -0.16395984515E-01 -0.25217910080E-01  0.53835254831E-01  0.51100000000E-03 0. -1.
</event>
<event>
 8    1  0.2077555E+004  0.1043930E+01  0.7957747E-01            NaN
         13   -1    0    0    0    0  0.00000000000E+00  0.00000000000E+00  0.74505805969E-08  0.10566000000E+00  0.10566000000E+00 0.  1.
     999900   -1    0    0    0    0 -0.00000000000E+00 -0.00000000000E+00 -0.74505805969E-08  0.93827000000E+00  0.93827000000E+00 0.  1.
     999902    2    1    2    0    0 -0.62535612150E-02  0.11696892492E-01 -0.23497622885E-04  0.10306663326E+01  0.10305809838E+01 0.  0.
     999903    2    3    3    0    0 -0.10819216442E+00  0.27202449805E-01 -0.72936875538E-01  0.14165099984E+00  0.47955189762E-01 0.  0.
         14    1    1    2    0    0  0.62535612150E-02 -0.11696892492E-01  0.23497622885E-04  0.13263667440E-01  0.00000000000E+00 0.  1.
     999901    1    3    3    0    0  0.10193860321E+00 -0.15505557313E-01  0.72913377915E-01  0.88901533272E+00  0.88000000000E+00 0. -1.
        -11    1    4    4    0    0 -0.26236401681E-01  0.22328129871E-01 -0.41002050653E-01  0.53556731001E-01  0.51100000000E-03 0. -1.
         11    1    4    4    0    0 -0.81955762739E-01  0.48743199337E-02 -0.31934824885E-01  0.88094268840E-01  0.51100000000E-03 0.  1.
</event>
<event>
 8    1  0.2077555E+004  0.1043930E+01  0.7957747E-01            NaN
         13   -1    0    0    0    0  0.00000000000E+00  0.00000000000E+00  0.74505805969E-08  0.10566000000E+00  0.10566000000E+00 0.  1.
     999900   -1    0    0    0    0 -0.00000000000E+00 -0.00000000000E+00 -0.74505805969E-08  0.93827000000E+00  0.93827000000E+00 0.  1.
     999902    2    1    2    0    0  0.10960353099E-01  0.77784865732E-03 -0.75345043301E-02  0.10306069694E+01  0.10305208500E+01 0.  0.
     999903    2    3    3    0    0 -0.99654562803E-01  0.76294840935E-01 -0.41605555030E-01  0.13982118582E+00  0.45464350377E-01 0.  0.
         14    1    1    2    0    0 -0.10960353099E-01 -0.77784865732E-03  0.75345043301E-02  0.13323030590E-01  0.00000000000E+00 0.  1.
     999901    1    3    3    0    0  0.11061491590E+00 -0.75516992278E-01  0.34071050700E-01  0.89078578359E+00  0.88000000000E+00 0. -1.
        -11    1    4    4    0    0 -0.63564348086E-01  0.45938236494E-01 -0.23570769186E-02  0.78463780513E-01  0.51100000000E-03 0.  1.
         11    1    4    4    0    0 -0.36090214717E-01  0.30356604441E-01 -0.39248478111E-01  0.61357405311E-01  0.51100000000E-03 0. -1.
</event>
<event>
 8    1  0.2077555E+004  0.1043930E+01  0.7957747E-01            NaN
         13   -1    0    0    0    0  0.00000000000E+00  0.00000000000E+00  0.74505805969E-08  0.10566000000E+00  0.10566000000E+00 0. -1.
     999900   -1    0    0    0    0 -0.00000000000E+00 -0.00000000000E+00 -0.74505805969E-08  0.93827000000E+00  0.93827000000E+00 0.  1.
     999902    2    1    2    0    0  0.58103703472E-02 -0.42608824667E-02 -0.12598007504E-01  0.10294170638E+01  0.10293147556E+01 0.  0.
     999903    2    3    3    0    0 -0.10341135485E+00 -0.14918965470E-01  0.77996170903E-01  0.13798547075E+00  0.45167506251E-01 0.  0.
         14    1    1    2    0    0 -0.58103703472E-02  0.42608824667E-02  0.12598007504E-01  0.14512936162E-01  0.00000000000E+00 0. -1.
     999901    1    3    3    0    0  0.10922172520E+00  0.10658083004E-01 -0.90594178407E-01  0.89143159308E+00  0.88000000000E+00 0.  1.
        -11    1    4    4    0    0 -0.61703141476E-01  0.66932791718E-02  0.24338028753E-01  0.66668421450E-01  0.51100000000E-03 0.  1.
         11    1    4    4    0    0 -0.41708213374E-01 -0.21612244642E-01  0.53658142151E-01  0.71317049303E-01  0.51100000000E-03 0. -1.
</event>
<event>
 8    1  0.2077555E+004  0.1043930E+01  0.7957747E-01            NaN
         13   -1    0    0    0    0  0.00000000000E+00  0.00000000000E+00  0.74505805969E-08  0.10566000000E+00  0.10566000000E+00 0.  1.
     999900   -1    0    0    0    0 -0.00000000000E+00 -0.00000000000E+00 -0.74505805969E-08  0.93827000000E+00  0.93827000000E+00 0.  1.
     999902    2    1    2    0    0  0.11354460235E-01 -0.94082219433E-02 -0.14556907483E-02  0.10291125291E+01  0.10290058504E+01 0.  0.
     999903    2    3    3    0    0 -0.76865682860E-01  0.67425636138E-01 -0.79654173168E-01  0.13793284015E+00  0.47181897794E-01 0.  0.
         14    1    1    2    0    0 -0.11354460235E-01  0.94082219433E-02  0.14556907483E-02  0.14817470868E-01  0.00000000000E+00 0. -1.
     999901    1    3    3    0    0  0.88220143096E-01 -0.76833858081E-01  0.78198482420E-01  0.89117968898E+00  0.88000000000E+00 0. -1.
        -11    1    4    4    0    0 -0.68584535278E-01  0.32922694383E-01 -0.45315037719E-01  0.88551996303E-01  0.51100000000E-03 0.  1.
         11    1    4    4    0    0 -0.82811475829E-02  0.34502941755E-01 -0.34339135449E-01  0.49380843851E-01  0.51100000000E-03 0. -1.
</event>
<event>
 8    1  0.2077555E+004  0.1043930E+01  0.7957747E-01            NaN
         13   -1    0    0    0    0  0.00000000000E+00  0.00000000000E+00  0.74505805969E-08  0.10566000000E+00  0.10566000000E+00 0.  1.
     999900   -1    0    0    0    0 -0.00000000000E+00 -0.00000000000E+00 -0.74505805969E-08  0.93827000000E+00  0.93827000000E+00 0.  1.
     999902    2    1    2    0    0  0.62467513781E-04  0.43538548456E-02 -0.14677770818E-01  0.10286199735E+01  0.10285060297E+01 0.  0.
     999903    2    3    3    0    0 -0.22379807110E-01 -0.12893519978E+00 -0.87234782378E-02  0.13828010507E+00  0.43819480564E-01 0.  0.
         14    1    1    2    0    0 -0.62467513781E-04 -0.43538548456E-02  0.14677770818E-01  0.15310026466E-01  0.00000000000E+00 0.  1.
     999901    1    3    3    0    0  0.22442274624E-01  0.13328905463E+00 -0.59542925803E-02  0.89033986846E+00  0.88000000000E+00 0.  1.
        -11    1    4    4    0    0 -0.20286228518E-02 -0.56311561414E-01 -0.24130352960E-01  0.61299611047E-01  0.51100000000E-03 0.  1.
         11    1    4    4    0    0 -0.20351184258E-01 -0.72623638368E-01  0.15406874722E-01  0.76980494024E-01  0.51100000000E-03 0. -1.
</event>
<event>
 8    1  0.2077555E+004  0.1043930E+01  0.7957747E-01            NaN
         13   -1    0    0    0    0  0.00000000000E+00  0.00000000000E+00  0.74505805969E-08  0.10566000000E+00  0.10566000000E+00 0.  1.
     999900   -1    0    0    0    0 -0.00000000000E+00 -0.00000000000E+00 -0.74505805969E-08  0.93827000000E+00  0.93827000000E+00 0.  1.
     999902    2    1    2    0    0  0.58206470171E-02  0.43288094584E-02 -0.12019830024E-01  0.10298909531E+01  0.10297952615E+01 0.  0.
     999903    2    3    3    0    0 -0.12912424712E-01  0.12943015221E+00 -0.28327925085E-01  0.14069624561E+00  0.45541927653E-01 0.  0.
         14    1    1    2    0    0 -0.58206470171E-02 -0.43288094584E-02  0.12019830024E-01  0.14039046864E-01  0.00000000000E+00 0.  1.
     999901    1    3    3    0    0  0.18733071729E-01 -0.12510134275E+00  0.16308095061E-01  0.88919470753E+00  0.88000000000E+00 0.  1.
        -11    1    4    4    0    0 -0.54493687925E-03  0.83983182607E-01  0.31469925249E-02  0.84045443660E-01  0.51100000000E-03 0. -1.
         11    1    4    4    0    0 -0.12367487833E-01  0.45446969606E-01 -0.31474917610E-01  0.56650801946E-01  0.51100000000E-03 0.  1.
</event>
<event>
 7    1  0.2077555E+004  0.1043930E+01  0.7957747E-01            NaN
         13   -1    0    0    0    0  0.00000000000E+00  0.00000000000E+00  0.74505805969E-08  0.10566000000E+00  0.10566000000E+00 0.  1.
     999900   -1    0    0    0    0 -0.00000000000E+00 -0.00000000000E+00 -0.74505805969E-08  0.93827000000E+00  0.93827000000E+00 0.  1.
     999902    2    1    2    0    0  0.80067161209E-02  0.10091938275E-01 -0.46150142507E-02  0.10302459554E+01  0.10301550735E+01 0.  0.
         14    1    1    2    0    0 -0.80067161209E-02 -0.10091938275E-01  0.46150142507E-02  0.13684044641E-01  0.00000000000E+00 0. -1.
     999901    1    3    3    0    0  0.45322295404E-01  0.50757128629E-01 -0.12828822965E+00  0.89190148920E+00  0.88000000000E+00 0.  1.
        -11    1    3    3    0    0 -0.34633077891E-01 -0.17766506094E-01  0.76317151271E-01  0.85671859570E-01  0.51100000000E-03 0. -1.
         11    1    3    3    0    0 -0.26825013915E-02 -0.22898684259E-01  0.47356064127E-01  0.52672606591E-01  0.51100000000E-03 0.  1.
</event>
<event>
 8    1  0.2077555E+004  0.1043930E+01  0.7957747E-01            NaN
         13   -1    0    0    0    0  0.00000000000E+00  0.00000000000E+00  0.74505805969E-08  0.10566000000E+00  0.10566000000E+00 0.  1.
     999900   -1    0    0    0    0 -0.00000000000E+00 -0.00000000000E+00 -0.74505805969E-08  0.93827000000E+00  0.93827000000E+00 0. -1.
     999902    2    1    2    0    0  0.10669255872E-01 -0.42925007654E-02 -0.61040900308E-02  0.10309100730E+01  0.10308278518E+01 0.  0.
     999903    2    3    3    0    0 -0.12973332478E+00  0.68478270065E-03  0.23196029410E-01  0.13928450417E+00  0.45065650311E-01 0.  0.
         14    1    1    2    0    0 -0.10669255872E-01  0.42925007654E-02  0.61040900308E-02  0.13019926989E-01  0.00000000000E+00 0.  1.
     999901    1    3    3    0    0  0.14040258065E+00 -0.49772834660E-02 -0.29300119441E-01  0.89162556884E+00  0.88000000000E+00 0. -1.
        -11    1    4    4    0    0 -0.12285375250E+00  0.11105835966E-01  0.26889790965E-01  0.12625254878E+00  0.51100000000E-03 0. -1.
         11    1    4    4    0    0 -0.68795722800E-02 -0.10421053266E-01 -0.36937615549E-02  0.13031955392E-01  0.51100000000E-03 0.  1.
</event>
<event>
 8    1  0.2077555E+004  0.1043930E+01  0.7957747E-01            NaN
         13   -1    0    0    0    0  0.00000000000E+00  0.00000000000E+00  0.74505805969E-08  0.10566000000E+00  0.10566000000E+00 0.  1.
     999900   -1    0    0    0    0 -0.00000000000E+00 -0.00000000000E+00 -0.74505805969E-08  0.93827000000E+00  0.93827000000E+00 0.  1.
     999902    2    1    2    0    0  0.87140058026E-02  0.11658110818E-01  0.14578975427E-01  0.10233292241E+01  0.10231218446E+01 0.  0.
     999903    2    3    3    0    0 -0.32003387896E-01  0.15825188700E-01  0.12269622048E+00  0.13576817863E+00  0.45869187614E-01 0.  0.
         14    1    1    2    0    0 -0.87140058026E-02 -0.11658110818E-01 -0.14578975427E-01  0.20600775943E-01  0.00000000000E+00 0. -1.
     999901    1    3    3    0    0  0.40717393699E-01 -0.41670778821E-02 -0.10811724506E+00  0.88756104543E+00  0.88000000000E+00 0.  1.
        -11    1    4    4    0    0 -0.24837943000E-01 -0.11769980336E-01  0.42139034506E-01  0.50313171235E-01  0.51100000000E-03 0.  1.
         11    1    4    4    0    0 -0.71654448955E-02  0.27595169036E-01  0.80557185977E-01  0.85455007391E-01  0.51100000000E-03 0. -1.
</event>
<event>
 8    1  0.2077555E+004  0.1043930E+01  0.7957747E-01            NaN
         13   -1    0    0    0    0  0.00000000000E+00  0.00000000000E+00  0.74505805969E-08  0.10566000000E+00  0.10566000000E+00 0.  1.
     999900   -1    0    0    0    0 -0.00000000000E+00 -0.00000000000E+00 -0.74505805969E-08  0.93827000000E+00  0.93827000000E+00 0. -1.
     999902    2    1    2    0    0 -0.88826020617E-02  0.93634254627E-02 -0.44693456333E-02  0.10302716909E+01  0.10301811529E+01 0.  0.
     999903    2    3    3    0    0  0.31569476708E-01 -0.11295722937E+00 -0.61622818669E-01  0.13905609820E+00  0.42228653077E-01 0.  0.
         14    1    1    2    0    0  0.88826020617E-02 -0.93634254627E-02  0.44693456333E-02  0.13658309052E-01  0.00000000000E+00 0.  1.
     999901    1    3    3    0    0 -0.40452078770E-01  0.12232065483E+00  0.57153473036E-01  0.89121559275E+00  0.88000000000E+00 0.  1.
        -11    1    4    4    0    0  0.22019552901E-01 -0.57355258083E-01 -0.54614624982E-01  0.82204043226E-01  0.51100000000E-03 0.  1.
         11    1    4    4    0    0  0.95499238075E-02 -0.55601971282E-01 -0.70081936872E-02  0.56852054975E-01  0.51100000000E-03 0. -1.
</event>
<event>
 8    1  0.2077555E+004  0.1043930E+01  0.7957747E-01            NaN
         13   -1    0    0    0    0  0.00000000000E+00  0.00000000000E+00  0.74505805969E-08  0.10566000000E+00  0.10566000000E+00 0.  1.
     999900   -1    0    0    0    0 -0.00000000000E+00 -0.00000000000E+00 -0.74505805969E-08  0.93827000000E+00  0.93827000000E+00 0.  1.
     999902    2    1    2    0    0  0.67170403929E-02 -0.96731370711E-02  0.57855715512E-02  0.10308089844E+01  0.10307254733E+01 0.  0.
     999903    2    3    3    0    0 -0.14796487143E-01  0.98368368345E-02 -0.13128741032E+00  0.13972398659E+00  0.44392667532E-01 0.  0.
         14    1    1    2    0    0 -0.67170403929E-02  0.96731370711E-02 -0.57855715512E-02  0.13121015609E-01  0.00000000000E+00 0. -1.
     999901    1    3    3    0    0  0.21513527536E-01 -0.19509973906E-01  0.13707298187E+00  0.89108499780E+00  0.88000000000E+00 0. -1.
        -11    1    4    4    0    0 -0.10822632636E-01  0.27334452450E-01 -0.90625614431E-01  0.95276255068E-01  0.51100000000E-03 0. -1.
         11    1    4    4    0    0 -0.39738545075E-02 -0.17497615615E-01 -0.40661795885E-01  0.44447731522E-01  0.51100000000E-03 0.  1.
</event>
<event>
 8    1  0.2077555E+004  0.1043930E+01  0.7957747E-01            NaN
         13   -1    0    0    0    0  0.00000000000E+00  0.00000000000E+00  0.74505805969E-08  0.10566000000E+00  0.10566000000E+00 0. -1.
     999900   -1    0    0    0    0 -0.00000000000E+00 -0.00000000000E+00 -0.74505805969E-08  0.93827000000E+00  0.93827000000E+00 0. -1.
     999902    2    1    2    0    0  0.43376472186E-02 -0.69702510709E-02  0.11528214731E-01  0.10297772858E+01  0.10296800275E+01 0.  0.
     999903    2    3    3    0    0  0.12526079599E+00  0.31478842621E-01  0.34238009647E-01  0.14038621578E+00  0.43068128954E-01 0.  0.
         14    1    1    2    0    0 -0.43376472186E-02  0.69702510709E-02 -0.11528214731E-01  0.14152714166E-01  0.00000000000E+00 0.  1.
     999901    1    3    3    0    0 -0.12092314877E+00 -0.38449093692E-01 -0.22709794916E-01  0.88939107006E+00  0.88000000000E+00 0. -1.
        -11    1    4    4    0    0  0.98679150840E-01  0.11344858175E-01  0.11436728109E-01  0.99986701558E-01  0.51100000000E-03 0. -1.
         11    1    4    4    0    0  0.26581645146E-01  0.20133984446E-01  0.22801281538E-01  0.40399514218E-01  0.51100000000E-03 0.  1.
</event>
<event>
 8    1  0.2077555E+004  0.1043930E+01  0.7957747E-01            NaN
         13   -1    0    0    0    0  0.00000000000E+00  0.00000000000E+00  0.74505805969E-08  0.10566000000E+00  0.10566000000E+00 0.  1.
     999900   -1    0    0    0    0 -0.00000000000E+00 -0.00000000000E+00 -0.74505805969E-08  0.93827000000E+00  0.93827000000E+00 0.  1.
     999902    2    1    2    0    0  0.16231365321E-01 -0.39327435028E-02  0.32979372529E-02  0.10269064844E+01  0.10267653713E+01 0.  0.
     999903    2    3    3    0    0  0.36810610438E-01  0.97890919669E-01 -0.76806503533E-01  0.13718277163E+00  0.44522136668E-01 0.  0.
         14    1    1    2    0    0 -0.16231365321E-01  0.39327435028E-02 -0.32979372529E-02  0.17023515552E-01  0.00000000000E+00 0. -1.
     999901    1    3    3    0    0 -0.20579245117E-01 -0.10182366317E+00  0.80104440786E-01  0.88972371281E+00  0.88000000000E+00 0. -1.
        -11    1    4    4    0    0 -0.30841320841E-02  0.19312397322E-02 -0.16761995471E-01  0.17160045769E-01  0.51100000000E-03 0.  1.
         11    1    4    4    0    0  0.39894742522E-01  0.95959679937E-01 -0.60044508062E-01  0.12002272586E+00  0.51100000000E-03 0. -1.
</event>
<event>
 8    1  0.2077555E+004  0.1043930E+01  0.7957747E-01            NaN
         13   -1    0    0    0    0  0.00000000000E+00  0.00000000000E+00  0.74505805969E-08  0.10566000000E+00  0.10566000000E+00 0.  1.
     999900   -1    0    0    0    0 -0.00000000000E+00 -0.00000000000E+00 -0.74505805969E-08  0.93827000000E+00  0.93827000000E+00 0.  1.
     999902    2    1    2    0    0 -0.22066758787E-02  0.13854262585E-01  0.15731074181E-01  0.10228521276E+01  0.10226349291E+01 0.  0.
     999903    2    3    3    0    0 -0.31559766774E-01  0.11971085059E+00  0.33471121860E-01  0.13584483875E+00  0.44797294434E-01 0.  0.
         14    1    1    2    0    0  0.22066758787E-02 -0.13854262585E-01 -0.15731074181E-01  0.21077872404E-01  0.00000000000E+00 0. -1.
     999901    1    3    3    0    0  0.29353090895E-01 -0.10585658801E+00 -0.17740047679E-01  0.88700728884E+00  0.88000000000E+00 0.  1.
        -11    1    4    4    0    0  0.56609730539E-02  0.66347158403E-01  0.16507118926E-01  0.68605671343E-01  0.51100000000E-03 0. -1.
         11    1    4    4    0    0 -0.37220739828E-01  0.53363692190E-01  0.16964002933E-01  0.67239167410E-01  0.51100000000E-03 0.  1.
</event>
<event>
 8    1  0.2077555E+004  0.1043930E+01  0.7957747E-01            NaN
         13   -1    0    0    0    0  0.00000000000E+00  0.00000000000E+00  0.74505805969E-08  0.10566000000E+00  0.10566000000E+00 0. -1.
     999900   -1    0    0    0    0 -0.00000000000E+00 -0.00000000000E+00 -0.74505805969E-08  0.93827000000E+00  0.93827000000E+00 0.  1.
     999902    2    1    2    0    0  0.42040966738E-02  0.46226217846E-02 -0.12898630254E-01  0.10295975988E+01  0.10294978377E+01 0.  0.
     999903    2    3    3    0    0  0.53578681830E-01 -0.11870520756E+00 -0.21790542661E-01  0.13958261622E+00  0.45242430888E-01 0.  0.
         14    1    1    2    0    0 -0.42040966738E-02 -0.46226217846E-02  0.12898630254E-01  0.14332401175E-01  0.00000000000E+00 0. -1.
     999901    1    3    3    0    0 -0.49374585156E-01  0.12332782935E+00  0.88919124069E-02  0.89001498260E+00  0.88000000000E+00 0.  1.
        -11    1    4    4    0    0 -0.20812713837E-02 -0.35217430771E-01  0.52254696791E-02  0.35667432975E-01  0.51100000000E-03 0.  1.
         11    1    4    4    0    0  0.55659953213E-01 -0.83487776793E-01 -0.27016012340E-01  0.10391518325E+00  0.51100000000E-03 0. -1.
</event>
<event>
 8    1  0.2077555E+004  0.1043930E+01  0.7957747E-01            NaN
         13   -1    0    0    0    0  0.00000000000E+00  0.00000000000E+00  0.74505805969E-08  0.10566000000E+00  0.10566000000E+00 0.  1.
     999900   -1    0    0    0    0 -0.00000000000E+00 -0.00000000000E+00 -0.74505805969E-08  0.93827000000E+00  0.93827000000E+00 0.  1.
     999902    2    1    2    0    0  0.22887408008E-02  0.12182491280E-01  0.62257176602E-02  0.10300587712E+01  0.10299653689E+01 0.  0.
     999903    2    3    3    0    0 -0.55265133746E-02 -0.12715518321E+00 -0.32383893848E-01  0.13822539672E+00  0.43111028148E-01 0.  0.
         14    1    1    2    0    0 -0.22887408008E-02 -0.12182491280E-01 -0.62257176602E-02  0.13871228807E-01  0.00000000000E+00 0. -1.
     999901    1    3    3    0    0  0.78152541754E-02  0.13933767449E+00  0.38609611508E-01  0.89183337448E+00  0.88000000000E+00 0. -1.
        -11    1    4    4    0    0 -0.19005524246E-01 -0.10825631748E+00 -0.33716867877E-01  0.11496838055E+00  0.51100000000E-03 0. -1.
         11    1    4    4    0    0  0.13479010871E-01 -0.18898865739E-01  0.13329740291E-02  0.23257016168E-01  0.51100000000E-03 0.  1.
</event>
<event>
 8    1  0.2077555E+004  0.1043930E+01  0.7957747E-01            NaN
         13   -1    0    0    0    0  0.00000000000E+00  0.00000000000E+00  0.74505805969E-08  0.10566000000E+00  0.10566000000E+00 0. -1.
     999900   -1    0    0    0    0 -0.00000000000E+00 -0.00000000000E+00 -0.74505805969E-08  0.93827000000E+00  0.93827000000E+00 0.  1.
     999902    2    1    2    0    0  0.49189531029E-02  0.44358279233E-02  0.10657007294E-01  0.10313823120E+01  0.10313059823E+01 0.  0.
     999903    2    3    3    0    0 -0.13100141097E+00 -0.19831888434E-01 -0.96607584957E-02  0.14038507352E+00  0.45386838818E-01 0.  0.
         14    1    1    2    0    0 -0.49189531029E-02 -0.44358279233E-02 -0.10657007294E-01  0.12547687973E-01  0.00000000000E+00 0.  1.
     999901    1    3    3    0    0  0.13592036407E+00  0.24267716357E-01  0.20317765790E-01  0.89099723851E+00  0.88000000000E+00 0.  1.
        -11    1    4    4    0    0 -0.97341539743E-01 -0.10706389941E-01 -0.26788648784E-01  0.10152780392E+00  0.51100000000E-03 0. -1.
         11    1    4    4    0    0 -0.33659871223E-01 -0.91254984927E-02  0.17127890288E-01  0.38857269593E-01  0.51100000000E-03 0.  1.
</event>
<event>
 8    1  0.2320821E+004  0.1043930E+01  0.7957747E-01            NaN
         13   -1    0    0    0    0  0.00000000000E+00  0.00000000000E+00  0.74505805969E-08  0.10566000000E+00  0.10566000000E+00 0.  1.
     999900   -1    0    0    0    0 -0.00000000000E+00 -0.00000000000E+00 -0.74505805969E-08  0.93827000000E+00  0.93827000000E+00 0.  1.
     999902    2    1    2    0    0  0.13660095086E-01  0.39722258251E-02  0.15980148362E-01  0.10225350960E+01  0.10223112445E+01 0.  0.
     999903    2    3    3    0    0  0.36064792804E-01 -0.52029780053E-01  0.11125679503E+00  0.13533960765E+00  0.43942777183E-01 0.  0.
         14    1    1    2    0    0 -0.13660095086E-01 -0.39722258251E-02 -0.15980148362E-01  0.21394904006E-01  0.00000000000E+00 0. -1.
     999901    1    3    3    0    0 -0.22404697718E-01  0.56002005878E-01 -0.95276646664E-01  0.88719548835E+00  0.88000000000E+00 0.  1.
        -11    1    4    4    0    0  0.14114176811E-01 -0.19883530563E-01  0.84884226005E-01  0.88318501573E-01  0.51100000000E-03 0. -1.
         11    1    4    4    0    0  0.21950615993E-01 -0.32146249490E-01  0.26372569021E-01  0.47021106075E-01  0.51100000000E-03 0.  1.
</event>
<event>
 8    1  0.2077555E+004  0.1043930E+01  0.7957747E-01            NaN
         13   -1    0    0    0    0  0.00000000000E+00  0.00000000000E+00  0.74505805969E-08  0.10566000000E+00  0.10566000000E+00 0. -1.
     999900   -1    0    0    0    0 -0.00000000000E+00 -0.00000000000E+00 -0.74505805969E-08  0.93827000000E+00  0.93827000000E+00 0. -1.
     999902    2    1    2    0    0  0.56528972223E-02 -0.56153213162E-02  0.11198408591E-01  0.10301862219E+01  0.10300945396E+01 0.  0.
     999903    2    3    3    0    0 -0.12483143543E+00 -0.12710959754E-01  0.46035038329E-01  0.13985476685E+00  0.41178577992E-01 0.  0.
         14    1    1    2    0    0 -0.56528972223E-02  0.56153213162E-02 -0.11198408591E-01  0.13743778064E-01  0.00000000000E+00 0.  1.
     999901    1    3    3    0    0  0.13048433265E+00  0.70956384376E-02 -0.34836629738E-01  0.89033145509E+00  0.88000000000E+00 0. -1.
        -11    1    4    4    0    0 -0.20708368414E-01 -0.16767460318E-01  0.19881100045E-02  0.26724482227E-01  0.51100000000E-03 0. -1.
         11    1    4    4    0    0 -0.10412306702E+00  0.40565005641E-02  0.44046928324E-01  0.11313028462E+00  0.51100000000E-03 0.  1.
</event>
<event>
 8    1  0.2077555E+004  0.1043930E+01  0.7957747E-01            NaN
         13   -1    0    0    0    0  0.00000000000E+00  0.00000000000E+00  0.74505805969E-08  0.10566000000E+00  0.10566000000E+00 0. -1.
     999900   -1    0    0    0    0 -0.00000000000E+00 -0.00000000000E+00 -0.74505805969E-08  0.93827000000E+00  0.93827000000E+00 0. -1.
     999902    2    1    2    0    0 -0.11842294507E-01 -0.68141498896E-02  0.21463827423E-04  0.10302671658E+01  0.10301765673E+01 0.  0.
     999903    2    3    3    0    0 -0.63692769047E-01  0.56135022794E-01 -0.10230685718E+00  0.14059185685E+00  0.45732565795E-01 0.  0.
         14    1    1    2    0    0  0.11842294507E-01  0.68141498896E-02 -0.21463827423E-04  0.13662834208E-01  0.00000000000E+00 0. -1.
     999901    1    3    3    0    0  0.51850474540E-01 -0.62949172684E-01  0.10232832101E+00  0.88967530894E+00  0.88000000000E+00 0. -1.
        -11    1    4    4    0    0 -0.30167814266E-01  0.22477649705E-01 -0.13679081376E-01  0.40033987337E-01  0.51100000000E-03 0.  1.
         11    1    4    4    0    0 -0.33524954781E-01  0.33657373089E-01 -0.88627775808E-01  0.10055786952E+00  0.51100000000E-03 0. -1.
</event>
<event>
 8    1  0.2077555E+004  0.1043930E+01  0.7957747E-01            NaN
         13   -1    0    0    0    0  0.00000000000E+00  0.00000000000E+00  0.74505805969E-08  0.10566000000E+00  0.10566000000E+00 0. -1.
     999900   -1    0    0    0    0 -0.00000000000E+00 -0.00000000000E+00 -0.74505805969E-08  0.93827000000E+00  0.93827000000E+00 0. -1.
     999902    2    1    2    0    0  0.34689333306E-02 -0.13584052264E-01  0.77849076403E-03  0.10298884181E+01  0.10297926916E+01 0.  0.
     999903    2    3    3    0    0 -0.72505766647E-01  0.10531646494E+00  0.27419248961E-01  0.13824991623E+00  0.44861789297E-01 0.  0.
         14    1    1    2    0    0 -0.34689333306E-02  0.13584052264E-01 -0.77849076403E-03  0.14041581900E-01  0.00000000000E+00 0. -1.
     999901    1    3    3    0    0  0.75974699977E-01 -0.11890051720E+00 -0.26640758197E-01  0.89163850187E+00  0.88000000000E+00 0. -1.
        -11    1    4    4    0    0 -0.35171878183E-01  0.42035184586E-01 -0.10124443012E-01  0.55738525505E-01  0.51100000000E-03 0. -1.
         11    1    4    4    0    0 -0.37333888464E-01  0.63281280352E-01  0.37543691974E-01  0.82511390722E-01  0.51100000000E-03 0.  1.
</event>
<event>
 8    1  0.2077555E+004  0.1043930E+01  0.7957747E-01            NaN
         13   -1    0    0    0    0  0.00000000000E+00  0.00000000000E+00  0.74505805969E-08  0.10566000000E+00  0.10566000000E+00 0. -1.
     999900   -1    0    0    0    0 -0.00000000000E+00 -0.00000000000E+00 -0.74505805969E-08  0.93827000000E+00  0.93827000000E+00 0. -1.
     999902    2    1    2    0    0  0.49987376382E-03  0.44021404238E-02 -0.13812713880E-01  0.10294241467E+01  0.10293219390E+01 0.  0.
     999903    2    3    3    0    0  0.29045072200E-01  0.95091212644E-01 -0.89399231535E-01  0.14108150011E+00  0.45009022786E-01 0.  0.
         14    1    1    2    0    0 -0.49987376382E-03 -0.44021404238E-02  0.13812713880E-01  0.14505853261E-01  0.00000000000E+00 0. -1.
     999901    1    3    3    0    0 -0.28545198436E-01 -0.90689072220E-01  0.75586517655E-01  0.88834264663E+00  0.88000000000E+00 0.  1.
        -11    1    4    4    0    0  0.23490568961E-01  0.99112080778E-01 -0.80462400930E-01  0.12980551017E+00  0.51100000000E-03 0.  1.
         11    1    4    4    0    0  0.55545032385E-02 -0.40208681339E-02 -0.89368306055E-02  0.11275989937E-01  0.51100000000E-03 0. -1.
</event>
<event>
 8    1  0.2077555E+004  0.1043930E+01  0.7957747E-01            NaN
         13   -1    0    0    0    0  0.00000000000E+00  0.00000000000E+00  0.74505805969E-08  0.10566000000E+00  0.10566000000E+00 0.  1.
     999900   -1    0    0    0    0 -0.00000000000E+00 -0.00000000000E+00 -0.74505805969E-08  0.93827000000E+00  0.93827000000E+00 0. -1.
     999902    2    1    2    0    0  0.12733315119E-01 -0.48246010824E-02  0.83026328592E-03  0.10302880270E+01  0.10301977069E+01 0.  0.
     999903    2    3    3    0    0  0.60811872015E-01 -0.52657046371E-01  0.10711028877E+00  0.14130268729E+00  0.44977629595E-01 0.  0.
         14    1    1    2    0    0 -0.12733315119E-01  0.48246010824E-02 -0.83026328592E-03  0.13641972974E-01  0.00000000000E+00 0. -1.
     999901    1    3    3    0    0 -0.48078556896E-01  0.47832445288E-01 -0.10628002548E+00  0.88898533974E+00  0.88000000000E+00 0. -1.
        -11    1    4    4    0    0  0.50818815241E-01 -0.14980877281E-01  0.66229874069E-01  0.84815305262E-01  0.51100000000E-03 0. -1.
         11    1    4    4    0    0  0.99930567741E-02 -0.37676169090E-01  0.40880414699E-01  0.56487382024E-01  0.51100000000E-03 0.  1.
</event>
<event>
 8    1  0.2077555E+004  0.1043930E+01  0.7957747E-01            NaN
         13   -1    0    0    0    0  0.00000000000E+00  0.00000000000E+00  0.74505805969E-08  0.10566000000E+00  0.10566000000E+00 0. -1.
     999900   -1    0    0    0    0 -0.00000000000E+00 -0.00000000000E+00 -0.74505805969E-08  0.93827000000E+00  0.93827000000E+00 0.  1.
     999902    2    1    2    0    0  0.73269349578E-02 -0.11062571778E-01 -0.50922194311E-02  0.10297174996E+01  0.10296194121E+01 0.  0.
     999903    2    3    3    0    0  0.74319410909E-01 -0.68666500003E-01  0.86740175500E-01  0.14053844383E+00  0.44595213728E-01 0.  0.
         14    1    1    2    0    0 -0.73269349578E-02  0.11062571778E-01  0.50922194311E-02  0.14212500447E-01  0.00000000000E+00 0. -1.
     999901    1    3    3    0    0 -0.66992475951E-01  0.57603928225E-01 -0.91832394931E-01  0.88917905572E+00  0.88000000000E+00 0.  1.
        -11    1    4    4    0    0  0.14084564336E-01 -0.52963309562E-02 -0.28858557087E-02  0.15330210641E-01  0.51100000000E-03 0.  1.
         11    1    4    4    0    0  0.60234846573E-01 -0.63370169046E-01  0.89626031209E-01  0.12520823319E+00  0.51100000000E-03 0. -1.
</event>
<event>
 8    1  0.2077555E+004  0.1043930E+01  0.7957747E-01            NaN
         13   -1    0    0    0    0  0.00000000000E+00  0.00000000000E+00  0.74505805969E-08  0.10566000000E+00  0.10566000000E+00 0.  1.
     999900   -1    0    0    0    0 -0.00000000000E+00 -0.00000000000E+00 -0.74505805969E-08  0.93827000000E+00  0.93827000000E+00 0.  1.
     999902    2    1    2    0    0 -0.78084328162E-02 -0.46896334682E-03  0.12081197539E-01  0.10295374018E+01  0.10294367949E+01 0.  0.
     999903    2    3    3    0    0 -0.10604677165E+00 -0.39409950363E-01  0.71520971319E-01  0.14122424844E+00  0.45055266552E-01 0.  0.
         14    1    1    2    0    0  0.78084328162E-02  0.46896334682E-03 -0.12081197539E-01  0.14392598224E-01  0.00000000000E+00 0. -1.
     999901    1    3    3    0    0  0.98238338831E-01  0.38940987017E-01 -0.59439773780E-01  0.88831315334E+00  0.88000000000E+00 0.  1.
        -11    1    4    4    0    0 -0.46690900806E-01 -0.33238017218E-01  0.15506086013E-01  0.59375970149E-01  0.51100000000E-03 0. -1.
         11    1    4    4    0    0 -0.59355870841E-01 -0.61719331451E-02  0.56014885306E-01  0.81848278289E-01  0.51100000000E-03 0.  1.
</event>
<event>
 8    1  0.2077555E+004  0.1043930E+01  0.7957747E-01            NaN
         13   -1    0    0    0    0  0.00000000000E+00  0.00000000000E+00  0.74505805969E-08  0.10566000000E+00  0.10566000000E+00 0.  1.
     999900   -1    0    0    0    0 -0.00000000000E+00 -0.00000000000E+00 -0.74505805969E-08  0.93827000000E+00  0.93827000000E+00 0. -1.
     999902    2    1    2    0    0 -0.70076579407E-02 -0.12215969870E-01  0.49382497488E-02  0.10290060762E+01  0.10288978479E+01 0.  0.
     999903    2    3    3    0    0 -0.58349907803E-01 -0.79486193269E-01 -0.88691122195E-01  0.14000226924E+00  0.44852576016E-01 0.  0.
         14    1    1    2    0    0  0.70076579407E-02  0.12215969870E-01 -0.49382497488E-02  0.14923923756E-01  0.00000000000E+00 0.  1.
     999901    1    3    3    0    0  0.51342249862E-01  0.67270223399E-01  0.93629371944E-01  0.88900380700E+00  0.88000000000E+00 0.  1.
        -11    1    4    4    0    0 -0.21901267419E-01 -0.42128461723E-01 -0.69949881136E-01  0.84544188409E-01  0.51100000000E-03 0. -1.
         11    1    4    4    0    0 -0.36448640384E-01 -0.37357731546E-01 -0.18741241058E-01  0.55458080831E-01  0.51100000000E-03 0.  1.
</event>
<event>
 8    1  0.2077555E+004  0.1043930E+01  0.7957747E-01            NaN
         13   -1    0    0    0    0  0.00000000000E+00  0.00000000000E+00  0.74505805969E-08  0.10566000000E+00  0.10566000000E+00 0. -1.
     999900   -1    0    0    0    0 -0.00000000000E+00 -0.00000000000E+00 -0.74505805969E-08  0.93827000000E+00  0.93827000000E+00 0.  1.
     999902    2    1    2    0    0  0.11958736881E-01  0.41865710061E-02  0.17940908847E-02  0.10311332220E+01  0.10310538124E+01 0.  0.
     999903    2    3    3    0    0 -0.69771652410E-01  0.47250556084E-01 -0.10235284999E+00  0.14018936933E+00  0.45565939502E-01 0.  0.
         14    1    1    2    0    0 -0.11958736881E-01 -0.41865710061E-02 -0.17940908847E-02  0.12796777981E-01  0.00000000000E+00 0. -1.
     999901    1    3    3    0    0  0.81730389291E-01 -0.43063985078E-01  0.10414694088E+00  0.89094385269E+00  0.88000000000E+00 0.  1.
        -11    1    4    4    0    0 -0.19627781917E-01  0.40153095070E-01 -0.54813084706E-01  0.70726630364E-01  0.51100000000E-03 0.  1.
         11    1    4    4    0    0 -0.50143870493E-01  0.70974610141E-02 -0.47539765285E-01  0.69462738969E-01  0.51100000000E-03 0. -1.
</event>
<event>
 8    1  0.2077555E+004  0.1043930E+01  0.7957747E-01            NaN
         13   -1    0    0    0    0  0.00000000000E+00  0.00000000000E+00  0.74505805969E-08  0.10566000000E+00  0.10566000000E+00 0.  1.
     999900   -1    0    0    0    0 -0.00000000000E+00 -0.00000000000E+00 -0.74505805969E-08  0.93827000000E+00  0.93827000000E+00 0. -1.
     999902    2    1    2    0    0 -0.32360841409E-02  0.12452327238E-01 -0.50907923687E-02  0.10300934953E+01  0.10300005632E+01 0.  0.
     999903    2    3    3    0    0 -0.98040493104E-01  0.74729575991E-01 -0.53129751566E-01  0.14151368842E+00  0.44798501009E-01 0.  0.
         14    1    1    2    0    0  0.32360841409E-02 -0.12452327238E-01  0.50907923687E-02  0.13836504658E-01  0.00000000000E+00 0. -1.
     999901    1    3    3    0    0  0.94804408963E-01 -0.62277248753E-01  0.48038959197E-01  0.88857980692E+00  0.88000000000E+00 0.  1.
        -11    1    4    4    0    0 -0.67890600112E-01  0.47426760531E-01 -0.12028703312E-01  0.83686211662E-01  0.51100000000E-03 0. -1.
         11    1    4    4    0    0 -0.30149892991E-01  0.27302815460E-01 -0.41101048254E-01  0.57827476756E-01  0.51100000000E-03 0.  1.
</event>
<event>
 8    1  0.2077555E+004  0.1043930E+01  0.7957747E-01            NaN
         13   -1    0    0    0    0  0.00000000000E+00  0.00000000000E+00  0.74505805969E-08  0.10566000000E+00  0.10566000000E+00 0. -1.
     999900   -1    0    0    0    0 -0.00000000000E+00 -0.00000000000E+00 -0.74505805969E-08  0.93827000000E+00  0.93827000000E+00 0.  1.
     999902    2    1    2    0    0  0.78208242798E-02 -0.18467199843E-02  0.75550412368E-02  0.10329002985E+01  0.10328414072E+01 0.  0.
     999903    2    3    3    0    0  0.68155778740E-01  0.10637038201E+00  0.50442651008E-01  0.14318652713E+00  0.44699576810E-01 0.  0.
         14    1    1    2    0    0 -0.78208242798E-02  0.18467199843E-02 -0.75550412368E-02  0.11029701501E-01  0.00000000000E+00 0.  1.
     999901    1    3    3    0    0 -0.60334954460E-01 -0.10821710199E+00 -0.42887609772E-01  0.88971377137E+00  0.88000000000E+00 0.  1.
        -11    1    4    4    0    0  0.48699673398E-01  0.66570853149E-01  0.54241362043E-01  0.98720429270E-01  0.51100000000E-03 0.  1.
         11    1    4    4    0    0  0.19456105342E-01  0.39799528857E-01 -0.37987110345E-02  0.44466097859E-01  0.51100000000E-03 0. -1.
</event>
<event>
 8    1  0.2077555E+004  0.1043930E+01  0.7957747E-01            NaN
         13   -1    0    0    0    0  0.00000000000E+00  0.00000000000E+00  0.74505805969E-08  0.10566000000E+00  0.10566000000E+00 0.  1.
     999900   -1    0    0    0    0 -0.00000000000E+00 -0.00000000000E+00 -0.74505805969E-08  0.93827000000E+00  0.93827000000E+00 0.  1.
     999902    2    1    2    0    0 -0.79775528575E-03  0.95503627042E-02 -0.10552367179E-01  0.10296752361E+01  0.10295765603E+01 0.  0.
     999903    2    3    3    0    0 -0.89100068366E-01  0.89957945793E-01 -0.41389282531E-01  0.14107319171E+00  0.46446943029E-01 0.  0.
         14    1    1    2    0    0  0.79775528575E-03 -0.95503627042E-02  0.10552367179E-01  0.14254763918E-01  0.00000000000E+00 0.  1.
     999901    1    3    3    0    0  0.88302313080E-01 -0.80407583088E-01  0.30836915352E-01  0.88860204437E+00  0.88000000000E+00 0. -1.
        -11    1    4    4    0    0 -0.20010957931E-01 -0.88967346548E-03 -0.11443896180E-01  0.23074961256E-01  0.51100000000E-03 0.  1.
         11    1    4    4    0    0 -0.69089110435E-01  0.90847619258E-01 -0.29945386351E-01  0.11799823045E+00  0.51100000000E-03 0. -1.
</event>
<event>
 8    1  0.2077555E+004  0.1043930E+01  0.7957747E-01            NaN
         13   -1    0    0    0    0  0.00000000000E+00  0.00000000000E+00  0.74505805969E-08  0.10566000000E+00  0.10566000000E+00 0.  1.
     999900   -1    0    0    0    0 -0.00000000000E+00 -0.00000000000E+00 -0.74505805969E-08  0.93827000000E+00  0.93827000000E+00 0. -1.
     999902    2    1    2    0    0 -0.10352996852E-01  0.44179147297E-02 -0.84347758595E-02  0.10298641563E+01  0.10297680965E+01 0.  0.
     999903    2    3    3    0    0 -0.39219472795E-01  0.99876168965E-01  0.77733073288E-01  0.14004931606E+00  0.45364788912E-01 0.  0.
         14    1    1    2    0    0  0.10352996852E-01 -0.44179147297E-02  0.84347758595E-02  0.14065843671E-01  0.00000000000E+00 0.  1.
     999901    1    3    3    0    0  0.28866475943E-01 -0.95458254235E-01 -0.86167849147E-01  0.88981484027E+00  0.88000000000E+00 0. -1.
        -11    1    4    4    0    0  0.92870825008E-02  0.10179001217E-01  0.14757431064E-01  0.20196654667E-01  0.51100000000E-03 0. -1.
         11    1    4    4    0    0 -0.48506555295E-01  0.89697167748E-01  0.62975642224E-01  0.11985266139E+00  0.51100000000E-03 0.  1.
</event>
<event>
 8    1  0.2077555E+004  0.1043930E+01  0.7957747E-01            NaN
         13   -1    0    0    0    0  0.00000000000E+00  0.00000000000E+00  0.74505805969E-08  0.10566000000E+00  0.10566000000E+00 0. -1.
     999900   -1    0    0    0    0 -0.00000000000E+00 -0.00000000000E+00 -0.74505805969E-08  0.93827000000E+00  0.93827000000E+00 0.  1.
     999902    2    1    2    0    0 -0.65201814616E-02  0.96280803878E-02  0.10212727419E-01  0.10284538086E+01  0.10283373590E+01 0.  0.
     999903    2    3    3    0    0  0.40112540721E-01 -0.34043913094E-01  0.12096951594E+00  0.13921316628E+00  0.44482332870E-01 0.  0.
         14    1    1    2    0    0  0.65201814616E-02 -0.96280803878E-02 -0.10212727419E-01  0.15476191378E-01  0.00000000000E+00 0.  1.
     999901    1    3    3    0    0 -0.46632722183E-01  0.43671993482E-01 -0.11075678852E+00  0.88924064234E+00  0.88000000000E+00 0.  1.
        -11    1    4    4    0    0  0.17496390291E-01  0.32290703289E-02  0.69574921552E-01  0.71815606927E-01  0.51100000000E-03 0. -1.
         11    1    4    4    0    0  0.22616150430E-01 -0.37272983423E-01  0.51394594384E-01  0.67397559351E-01  0.51100000000E-03 0.  1.
</event>
<event>
 8    1  0.2077555E+004  0.1043930E+01  0.7957747E-01            NaN
         13   -1    0    0    0    0  0.00000000000E+00  0.00000000000E+00  0.74505805969E-08  0.10566000000E+00  0.10566000000E+00 0. -1.
     999900   -1    0    0    0    0 -0.00000000000E+00 -0.00000000000E+00 -0.74505805969E-08  0.93827000000E+00  0.93827000000E+00 0.  1.
     999902    2    1    2    0    0  0.14595792784E-02 -0.74891557380E-02  0.11836104519E-01  0.10298476992E+01  0.10297514129E+01 0.  0.
     999903    2    3    3    0    0  0.12119052307E-01 -0.13112506742E+00  0.24312046671E-01  0.14105350922E+00  0.44321124943E-01 0.  0.
         14    1    1    2    0    0 -0.14595792784E-02  0.74891557380E-02 -0.11836104519E-01  0.14082300790E-01  0.00000000000E+00 0. -1.
     999901    1    3    3    0    0 -0.10659473029E-01  0.12363591168E+00 -0.12475942152E-01  0.88879418999E+00  0.88000000000E+00 0. -1.
        -11    1    4    4    0    0 -0.12330657433E-01 -0.89885053773E-01  0.11722417882E-01  0.91482480326E-01  0.51100000000E-03 0.  1.
         11    1    4    4    0    0  0.24449709740E-01 -0.41240013646E-01  0.12589628789E-01  0.49571028897E-01  0.51100000000E-03 0. -1.
</event>
<event>
 8    1  0.2077555E+004  0.1043930E+01  0.7957747E-01            NaN
         13   -1    0    0    0    0  0.00000000000E+00  0.00000000000E+00  0.74505805969E-08  0.10566000000E+00  0.10566000000E+00 0. -1.
     999900   -1    0    0    0    0 -0.00000000000E+00 -0.00000000000E+00 -0.74505805969E-08  0.93827000000E+00  0.93827000000E+00 0. -1.
     999902    2    1    2    0    0  0.38407931062E-02  0.28489869247E-02  0.13726688626E-01  0.10293941685E+01  0.10292915348E+01 0.  0.
     999903    2    3    3    0    0  0.68143433553E-01 -0.69833521363E-01  0.90934314678E-01  0.14069928600E+00  0.44799455932E-01 0.  0.
         14    1    1    2    0    0 -0.38407931062E-02 -0.28489869247E-02 -0.13726688626E-01  0.14535831549E-01  0.00000000000E+00 0.  1.
     999901    1    3    3    0    0 -0.64302640446E-01  0.72682508288E-01 -0.77207626052E-01  0.88869488245E+00  0.88000000000E+00 0. -1.
        -11    1    4    4    0    0  0.36941859351E-01 -0.65895113727E-01  0.58782903152E-01  0.95721250563E-01  0.51100000000E-03 0.  1.
         11    1    4    4    0    0  0.31201574202E-01 -0.39384076365E-02  0.32151411526E-01  0.44978035434E-01  0.51100000000E-03 0. -1.
</event>
<event>
 8    1  0.2077555E+004  0.1043930E+01  0.7957747E-01            NaN
         13   -1    0    0    0    0  0.00000000000E+00  0.00000000000E+00  0.74505805969E-08  0.10566000000E+00  0.10566000000E+00 0.  1.
     999900   -1    0    0    0    0 -0.00000000000E+00 -0.00000000000E+00 -0.74505805969E-08  0.93827000000E+00  0.93827000000E+00 0.  1.
     999902    2    1    2    0    0  0.13847139538E-01 -0.29507296512E-02  0.58675772159E-02  0.10286042523E+01  0.10284900726E+01 0.  0.
     999903    2    3    3    0    0 -0.56736367733E-01 -0.11770473449E+00 -0.29806418168E-02  0.13830722095E+00  0.45239177682E-01 0.  0.
         14    1    1    2    0    0 -0.13847139538E-01  0.29507296512E-02 -0.58675772159E-02  0.15325747657E-01  0.00000000000E+00 0. -1.
     999901    1    3    3    0    0  0.70583507272E-01  0.11475400484E+00  0.88482190327E-02  0.89029703139E+00  0.88000000000E+00 0. -1.
        -11    1    4    4    0    0 -0.94867822370E-02  0.15533220892E-02 -0.28121646810E-02  0.10029019789E-01  0.51100000000E-03 0. -1.
         11    1    4    4    0    0 -0.47249585496E-01 -0.11925805658E+00 -0.16847713583E-03  0.12827820116E+00  0.51100000000E-03 0.  1.
</event>
<event>
 8    1  0.2077555E+004  0.1043930E+01  0.7957747E-01            NaN
         13   -1    0    0    0    0  0.00000000000E+00  0.00000000000E+00  0.74505805969E-08  0.10566000000E+00  0.10566000000E+00 0.  1.
     999900   -1    0    0    0    0 -0.00000000000E+00 -0.00000000000E+00 -0.74505805969E-08  0.93827000000E+00  0.93827000000E+00 0. -1.
     999902    2    1    2    0    0 -0.82166871558E-02 -0.80944910482E-02 -0.91190255483E-02  0.10292265528E+01  0.10291215213E+01 0.  0.
     999903    2    3    3    0    0  0.86992409153E-01 -0.78739998101E-01  0.59138036447E-01  0.13865674294E+00  0.44280000646E-01 0.  0.
         14    1    1    2    0    0  0.82166871558E-02  0.80944910482E-02  0.91190255483E-02  0.14703447218E-01  0.00000000000E+00 0. -1.
     999901    1    3    3    0    0 -0.95209096309E-01  0.70645507052E-01 -0.68257061996E-01  0.89056980984E+00  0.88000000000E+00 0. -1.
        -11    1    4    4    0    0  0.31637716834E-01 -0.39835222929E-01  0.48269786339E-01  0.70128621165E-01  0.51100000000E-03 0.  1.
         11    1    4    4    0    0  0.55354692319E-01 -0.38904775171E-01  0.10868250109E-01  0.68528121777E-01  0.51100000000E-03 0. -1.
</event>
<event>
 8    1  0.2077555E+004  0.1043930E+01  0.7957747E-01            NaN
         13   -1    0    0    0    0  0.00000000000E+00  0.00000000000E+00  0.74505805969E-08  0.10566000000E+00  0.10566000000E+00 0.  1.
     999900   -1    0    0    0    0 -0.00000000000E+00 -0.00000000000E+00 -0.74505805969E-08  0.93827000000E+00  0.93827000000E+00 0.  1.
     999902    2    1    2    0    0  0.76124411183E-02  0.92422401718E-02  0.67378021695E-02  0.10301907773E+01  0.10300991561E+01 0.  0.
     999903    2    3    3    0    0 -0.10398188501E+00  0.65522090620E-01 -0.48687790161E-01  0.13963324882E+00  0.44961833772E-01 0.  0.
         14    1    1    2    0    0 -0.76124411183E-02 -0.92422401718E-02 -0.67378021695E-02  0.13739222731E-01  0.00000000000E+00 0. -1.
     999901    1    3    3    0    0  0.11159432613E+00 -0.56279850448E-01  0.55425592331E-01  0.89055752845E+00  0.88000000000E+00 0. -1.
        -11    1    4    4    0    0 -0.50784684576E-01  0.44079592309E-01 -0.48168331236E-02  0.67420750870E-01  0.51100000000E-03 0. -1.
         11    1    4    4    0    0 -0.53197200435E-01  0.21442498310E-01 -0.43870957038E-01  0.72212497951E-01  0.51100000000E-03 0.  1.
</event>
<event>
 8    1  0.2077555E+004  0.1043930E+01  0.7957747E-01            NaN
         13   -1    0    0    0    0  0.00000000000E+00  0.00000000000E+00  0.74505805969E-08  0.10566000000E+00  0.10566000000E+00 0. -1.
     999900   -1    0    0    0    0 -0.00000000000E+00 -0.00000000000E+00 -0.74505805969E-08  0.93827000000E+00  0.93827000000E+00 0.  1.
     999902    2    1    2    0    0 -0.68250351506E-02 -0.12094247767E-01 -0.21476128948E-05  0.10300428859E+01  0.10299492681E+01 0.  0.
     999903    2    3    3    0    0 -0.67776044997E-01 -0.60450017474E-01  0.97991127030E-01  0.14119194903E+00  0.45662989468E-01 0.  0.
         14    1    1    2    0    0  0.68250351506E-02  0.12094247767E-01  0.21476128948E-05  0.13887114116E-01  0.00000000000E+00 0.  1.
     999901    1    3    3    0    0  0.60951009847E-01  0.48355769707E-01 -0.97993274643E-01  0.88885093685E+00  0.88000000000E+00 0. -1.
        -11    1    4    4    0    0  0.53948399221E-02 -0.69340753606E-03  0.13053599337E-01  0.14150713354E-01  0.51100000000E-03 0.  1.
         11    1    4    4    0    0 -0.73170884919E-01 -0.59756609938E-01  0.84937527694E-01  0.12704123568E+00  0.51100000000E-03 0. -1.
</event>
<event>
 8    1  0.2077555E+004  0.1043930E+01  0.7957747E-01            NaN
         13   -1    0    0    0    0  0.00000000000E+00  0.00000000000E+00  0.74505805969E-08  0.10566000000E+00  0.10566000000E+00 0.  1.
     999900   -1    0    0    0    0 -0.00000000000E+00 -0.00000000000E+00 -0.74505805969E-08  0.93827000000E+00  0.93827000000E+00 0. -1.
     999902    2    1    2    0    0  0.19309983400E-01 -0.16774073190E-02  0.38073982378E-02  0.10241768880E+01  0.10239863829E+01 0.  0.
     999903    2    3    3    0    0  0.76742946025E-01  0.98612803794E-01 -0.31810852249E-01  0.13590590936E+00  0.42947887509E-01 0.  0.
         14    1    1    2    0    0 -0.19309983400E-01  0.16774073190E-02 -0.38073982378E-02  0.19753112048E-01  0.00000000000E+00 0.  1.
     999901    1    3    3    0    0 -0.57432962625E-01 -0.10029021111E+00  0.35618250487E-01  0.88827097859E+00  0.88000000000E+00 0.  1.
        -11    1    4    4    0    0  0.69588962669E-02  0.32376262586E-01  0.37460969483E-02  0.33330811266E-01  0.51100000000E-03 0.  1.
         11    1    4    4    0    0  0.69784049758E-01  0.66236541208E-01 -0.35556949198E-01  0.10257509809E+00  0.51100000000E-03 0. -1.
</event>
<event>
 8    1  0.2077555E+004  0.1043930E+01  0.7957747E-01            NaN
         13   -1    0    0    0    0  0.00000000000E+00  0.00000000000E+00  0.74505805969E-08  0.10566000000E+00  0.10566000000E+00 0. -1.
     999900   -1    0    0    0    0 -0.00000000000E+00 -0.00000000000E+00 -0.74505805969E-08  0.93827000000E+00  0.93827000000E+00 0. -1.
     999902    2    1    2    0    0 -0.53293195785E-03  0.46714476145E-03 -0.13866671025E-01  0.10300452312E+01  0.10299516452E+01 0.  0.
     999903    2    3    3    0    0  0.86113531544E-01  0.79754213192E-01  0.59957026902E-01  0.13917824488E+00  0.44715365759E-01 0.  0.
         14    1    1    2    0    0  0.53293195785E-03 -0.46714476145E-03  0.13866671025E-01  0.13884768850E-01  0.00000000000E+00 0. -1.
     999901    1    3    3    0    0 -0.86646463502E-01 -0.79287068431E-01 -0.73823697927E-01  0.89086698627E+00  0.88000000000E+00 0. -1.
        -11    1    4    4    0    0  0.23822850763E-01  0.51960041867E-01  0.23189003584E-01  0.61687642016E-01  0.51100000000E-03 0. -1.
         11    1    4    4    0    0  0.62290680782E-01  0.27794171325E-01  0.36768023318E-01  0.77490602860E-01  0.51100000000E-03 0.  1.
</event>
<event>
 8    1  0.2077555E+004  0.1043930E+01  0.7957747E-01            NaN
         13   -1    0    0    0    0  0.00000000000E+00  0.00000000000E+00  0.74505805969E-08  0.10566000000E+00  0.10566000000E+00 0.  1.
     999900   -1    0    0    0    0 -0.00000000000E+00 -0.00000000000E+00 -0.74505805969E-08  0.93827000000E+00  0.93827000000E+00 0.  1.
     999902    2    1    2    0    0 -0.16660826920E-01  0.19693117657E-02  0.39608046365E-02  0.10266919805E+01  0.10265472583E+01 0.  0.
     999903    2    3    3    0    0  0.15360463002E-01 -0.22618547686E-01  0.12700192293E+00  0.13721514403E+00  0.44169727215E-01 0.  0.
         14    1    1    2    0    0  0.16660826920E-01 -0.19693117657E-02 -0.39608046365E-02  0.17238019488E-01  0.00000000000E+00 0.  1.
     999901    1    3    3    0    0 -0.32021289922E-01  0.24587859452E-01 -0.12304111829E+00  0.88947683648E+00  0.88000000000E+00 0.  1.
        -11    1    4    4    0    0 -0.52681353805E-02 -0.55165218224E-02  0.95710036251E-01  0.96014881261E-01  0.51100000000E-03 0.  1.
         11    1    4    4    0    0  0.20628598382E-01 -0.17102025864E-01  0.31291886676E-01  0.41200262773E-01  0.51100000000E-03 0. -1.
</event>
<event>
 8    1  0.2077555E+004  0.1043930E+01  0.7957747E-01            NaN
         13   -1    0    0    0    0  0.00000000000E+00  0.00000000000E+00  0.74505805969E-08  0.10566000000E+00  0.10566000000E+00 0.  1.
     999900   -1    0    0    0    0 -0.00000000000E+00 -0.00000000000E+00 -0.74505805969E-08  0.93827000000E+00  0.93827000000E+00 0. -1.
     999902    2    1    2    0    0  0.41696259126E-02  0.10121196764E-01  0.96997045879E-02  0.10293043830E+01  0.10292004684E+01 0.  0.
     999903    2    3    3    0    0  0.60128473383E-01 -0.77704131921E-01  0.88266140196E-01  0.13968796801E+00  0.45480231681E-01 0.  0.
         14    1    1    2    0    0 -0.41696259126E-02 -0.10121196764E-01 -0.96997045879E-02  0.14625617022E-01  0.00000000000E+00 0. -1.
     999901    1    3    3    0    0 -0.55958847470E-01  0.87825328685E-01 -0.78566435608E-01  0.88961641496E+00  0.88000000000E+00 0.  1.
        -11    1    4    4    0    0  0.18814318916E-01 -0.57070439276E-01  0.62919923285E-01  0.87006847447E-01  0.51100000000E-03 0.  1.
         11    1    4    4    0    0  0.41314154467E-01 -0.20633692645E-01  0.25346216910E-01  0.52681120567E-01  0.51100000000E-03 0. -1.
</event>
<event>
 8    1  0.2077555E+004  0.1043930E+01  0.7957747E-01            NaN
         13   -1    0    0    0    0  0.00000000000E+00  0.00000000000E+00  0.74505805969E-08  0.10566000000E+00  0.10566000000E+00 0.  1.
     999900   -1    0    0    0    0 -0.00000000000E+00 -0.00000000000E+00 -0.74505805969E-08  0.93827000000E+00  0.93827000000E+00 0.  1.
     999902    2    1    2    0    0  0.99049680189E-02  0.45999336673E-02  0.89537607694E-02  0.10298077618E+01  0.10297109248E+01 0.  0.
     999903    2    3    3    0    0  0.92312355878E-01  0.69480021803E-01 -0.67520271029E-01  0.14028615946E+00  0.42097209622E-01 0.  0.
         14    1    1    2    0    0 -0.99049680189E-02 -0.45999336673E-02 -0.89537607694E-02  0.14122238247E-01  0.00000000000E+00 0. -1.
     999901    1    3    3    0    0 -0.82407387859E-01 -0.64880088136E-01  0.76474031799E-01  0.88952160230E+00  0.88000000000E+00 0. -1.
        -11    1    4    4    0    0  0.40710045269E-01  0.28070000054E-01 -0.53112786099E-01  0.72570392427E-01  0.51100000000E-03 0. -1.
         11    1    4    4    0    0  0.51602310610E-01  0.41410021749E-01 -0.14407484930E-01  0.67715767031E-01  0.51100000000E-03 0.  1.
</event>
<event>
 8    1  0.2077555E+004  0.1043930E+01  0.7957747E-01            NaN
         13   -1    0    0    0    0  0.00000000000E+00  0.00000000000E+00  0.74505805969E-08  0.10566000000E+00  0.10566000000E+00 0.  1.
     999900   -1    0    0    0    0 -0.00000000000E+00 -0.00000000000E+00 -0.74505805969E-08  0.93827000000E+00  0.93827000000E+00 0.  1.
     999902    2    1    2    0    0 -0.59556592094E-02  0.93340712737E-03  0.59210841407E-02  0.10354801265E+01  0.10354456489E+01 0.  0.
     999903    2    3    3    0    0  0.12500945387E+00 -0.46415415557E-02  0.57159781720E-01  0.14429645009E+00  0.43649941552E-01 0.  0.
         14    1    1    2    0    0  0.59556592094E-02 -0.93340712737E-03 -0.59210841407E-02  0.84498735425E-02  0.00000000000E+00 0. -1.
     999901    1    3    3    0    0 -0.13096511308E+00  0.55749486830E-02 -0.51238697579E-01  0.89118367637E+00  0.88000000000E+00 0.  1.
        -11    1    4    4    0    0  0.70759985936E-01  0.18305283664E-01  0.37829560617E-01  0.82300642751E-01  0.51100000000E-03 0.  1.
         11    1    4    4    0    0  0.54249467933E-01 -0.22946825220E-01  0.19330221103E-01  0.61995807338E-01  0.51100000000E-03 0. -1.
</event>
<event>
 8    1  0.2077555E+004  0.1043930E+01  0.7957747E-01            NaN
         13   -1    0    0    0    0  0.00000000000E+00  0.00000000000E+00  0.74505805969E-08  0.10566000000E+00  0.10566000000E+00 0. -1.
     999900   -1    0    0    0    0 -0.00000000000E+00 -0.00000000000E+00 -0.74505805969E-08  0.93827000000E+00  0.93827000000E+00 0.  1.
     999902    2    1    2    0    0  0.88143362408E-02  0.10124520872E-01  0.34566099930E-02  0.10300683046E+01  0.10299750315E+01 0.  0.
     999903    2    3    3    0    0  0.88135946134E-01 -0.19491757451E-01  0.98448316726E-01  0.14091563714E+00  0.44914052522E-01 0.  0.
         14    1    1    2    0    0 -0.88143362408E-02 -0.10124520872E-01 -0.34566099930E-02  0.13861695383E-01  0.00000000000E+00 0.  1.
     999901    1    3    3    0    0 -0.79321609894E-01  0.29616278323E-01 -0.94991706733E-01  0.88915266748E+00  0.88000000000E+00 0. -1.
        -11    1    4    4    0    0  0.28990244931E-01 -0.28111094009E-01  0.31892964656E-01  0.51459597968E-01  0.51100000000E-03 0.  1.
         11    1    4    4    0    0  0.59145701203E-01  0.86193365575E-02  0.66555352071E-01  0.89456039169E-01  0.51100000000E-03 0. -1.
</event>
<event>
 8    1  0.2077555E+004  0.1043930E+01  0.7957747E-01            NaN
         13   -1    0    0    0    0  0.00000000000E+00  0.00000000000E+00  0.74505805969E-08  0.10566000000E+00  0.10566000000E+00 0.  1.
     999900   -1    0    0    0    0 -0.00000000000E+00 -0.00000000000E+00 -0.74505805969E-08  0.93827000000E+00  0.93827000000E+00 0. -1.
     999902    2    1    2    0    0  0.13228959256E-01 -0.49491105742E-03 -0.49189371756E-02  0.10298074562E+01  0.10297106150E+01 0.  0.
     999903    2    3    3    0    0  0.55297806688E-02 -0.13205350438E+00  0.68136136449E-02  0.13991724188E+00  0.45405977047E-01 0.  0.
         14    1    1    2    0    0 -0.13228959256E-01  0.49491105742E-03  0.49189371756E-02  0.14122543782E-01  0.00000000000E+00 0.  1.
     999901    1    3    3    0    0  0.76991785868E-02  0.13155859332E+00 -0.11732550821E-01  0.88989021434E+00  0.88000000000E+00 0.  1.
        -11    1    4    4    0    0  0.20082846365E-01 -0.10288696689E+00  0.16009560794E-01  0.10604534800E+00  0.51100000000E-03 0. -1.
         11    1    4    4    0    0 -0.14553065697E-01 -0.29166537484E-01 -0.91959471491E-02  0.33871893879E-01  0.51100000000E-03 0.  1.
</event>
<event>
 8    1  0.2077555E+004  0.1043930E+01  0.7957747E-01            NaN
         13   -1    0    0    0    0  0.00000000000E+00  0.00000000000E+00  0.74505805969E-08  0.10566000000E+00  0.10566000000E+00 0.  1.
     999900   -1    0    0    0    0 -0.00000000000E+00 -0.00000000000E+00 -0.74505805969E-08  0.93827000000E+00  0.93827000000E+00 0.  1.
     999902    2    1    2    0    0  0.72323172260E-02 -0.81065799351E-02  0.87894757775E-02  0.10299558118E+01  0.10298610083E+01 0.  0.
     999903    2    3    3    0    0  0.12970805501E+00 -0.19512515909E-01  0.29954152578E-01  0.14114855192E+00  0.42670184446E-01 0.  0.
         14    1    1    2    0    0 -0.72323172260E-02  0.81065799351E-02 -0.87894757775E-02  0.13974188175E-01  0.00000000000E+00 0. -1.
     999901    1    3    3    0    0 -0.12247573778E+00  0.11405935974E-01 -0.21164676801E-01  0.88880725991E+00  0.88000000000E+00 0.  1.
        -11    1    4    4    0    0  0.11277490676E+00 -0.18083060893E-01  0.95870316001E-02  0.11461827508E+00  0.51100000000E-03 0.  1.
         11    1    4    4    0    0  0.16933148248E-01 -0.14294550160E-02  0.20367120978E-01  0.26530276840E-01  0.51100000000E-03 0. -1.
</event>
<event>
 8    1  0.2077555E+004  0.1043930E+01  0.7957747E-01            NaN
         13   -1    0    0    0    0  0.00000000000E+00  0.00000000000E+00  0.74505805969E-08  0.10566000000E+00  0.10566000000E+00 0.  1.
     999900   -1    0    0    0    0 -0.00000000000E+00 -0.00000000000E+00 -0.74505805969E-08  0.93827000000E+00  0.93827000000E+00 0. -1.
     999902    2    1    2    0    0  0.80329605055E-02  0.58865010268E-02  0.10312484983E-01  0.10295937977E+01  0.10294939833E+01 0.  0.
     999903    2    3    3    0    0 -0.10303331628E+00 -0.52899473932E-01 -0.59978290870E-01  0.13789188462E+00  0.44749948168E-01 0.  0.
         14    1    1    2    0    0 -0.80329605055E-02 -0.58865010268E-02 -0.10312484983E-01  0.14336202263E-01  0.00000000000E+00 0. -1.
     999901    1    3    3    0    0  0.11106627679E+00  0.58785974959E-01  0.70290775853E-01  0.89170191312E+00  0.88000000000E+00 0.  1.
        -11    1    4    4    0    0 -0.16250377395E-01 -0.29700361745E-02 -0.28486249594E-01  0.32933621382E-01  0.51100000000E-03 0. -1.
         11    1    4    4    0    0 -0.86782938887E-01 -0.49929437758E-01 -0.31492041276E-01  0.10495826324E+00  0.51100000000E-03 0.  1.
</event>
<event>
 8    1  0.2077555E+004  0.1043930E+01  0.7957747E-01            NaN
         13   -1    0    0    0    0  0.00000000000E+00  0.00000000000E+00  0.74505805969E-08  0.10566000000E+00  0.10566000000E+00 0.  1.
     999900   -1    0    0    0    0 -0.00000000000E+00 -0.00000000000E+00 -0.74505805969E-08  0.93827000000E+00  0.93827000000E+00 0. -1.
     999902    2    1    2    0    0 -0.50841681785E-02 -0.71061792325E-02  0.11518724047E-01  0.10294722148E+01  0.10293706881E+01 0.  0.
     999903    2    3    3    0    0 -0.47330701854E-01  0.11128784637E-01 -0.12200783474E+00  0.13821095937E+00  0.43038498673E-01 0.  0.
         14    1    1    2    0    0  0.50841681785E-02  0.71061792325E-02 -0.11518724047E-01  0.14457785205E-01  0.00000000000E+00 0. -1.
     999901    1    3    3    0    0  0.42246533675E-01 -0.18234963870E-01  0.13352655879E+00  0.89126125542E+00  0.88000000000E+00 0.  1.
        -11    1    4    4    0    0 -0.25463578049E-01  0.25914322846E-01 -0.87635140345E-01  0.94868987978E-01  0.51100000000E-03 0. -1.
         11    1    4    4    0    0 -0.21867123805E-01 -0.14785538209E-01 -0.34372694393E-01  0.43341971396E-01  0.51100000000E-03 0.  1.
</event>
<event>
 8    1  0.2077555E+004  0.1043930E+01  0.7957747E-01            NaN
         13   -1    0    0    0    0  0.00000000000E+00  0.00000000000E+00  0.74505805969E-08  0.10566000000E+00  0.10566000000E+00 0. -1.
     999900   -1    0    0    0    0 -0.00000000000E+00 -0.00000000000E+00 -0.74505805969E-08  0.93827000000E+00  0.93827000000E+00 0.  1.
     999902    2    1    2    0    0 -0.87533148940E-03  0.13520407086E-01 -0.49234001849E-02  0.10295144708E+01  0.10294135409E+01 0.  0.
     999903    2    3    3    0    0 -0.83630920514E-01  0.31737197576E-01 -0.98799075355E-01  0.14047398726E+00  0.44388097836E-01 0.  0.
         14    1    1    2    0    0  0.87533148940E-03 -0.13520407086E-01  0.49234001849E-02  0.14415529209E-01  0.00000000000E+00 0.  1.
     999901    1    3    3    0    0  0.82755589024E-01 -0.18216790489E-01  0.93875675170E-01  0.88904048353E+00  0.88000000000E+00 0. -1.
        -11    1    4    4    0    0 -0.19304053107E-01 -0.11338010517E-01 -0.20408576155E-01  0.30297987565E-01  0.51100000000E-03 0. -1.
         11    1    4    4    0    0 -0.64326867406E-01  0.43075208093E-01 -0.78390499200E-01  0.11017599969E+00  0.51100000000E-03 0.  1.
</event>
<event>
 8    1  0.2077555E+004  0.1043930E+01  0.7957747E-01            NaN
         13   -1    0    0    0    0  0.00000000000E+00  0.00000000000E+00  0.74505805969E-08  0.10566000000E+00  0.10566000000E+00 0. -1.
     999900   -1    0    0    0    0 -0.00000000000E+00 -0.00000000000E+00 -0.74505805969E-08  0.93827000000E+00  0.93827000000E+00 0.  1.
     999902    2    1    2    0    0 -0.90854788529E-02 -0.10012177448E-01 -0.24487156673E-02  0.10301900644E+01  0.10300984336E+01 0.  0.
     999903    2    3    3    0    0 -0.69102309281E-01  0.10943531525E+00 -0.26927412535E-01  0.13975818596E+00  0.45343661368E-01 0.  0.
         14    1    1    2    0    0  0.90854788529E-02  0.10012177448E-01  0.24487156673E-02  0.13739935650E-01  0.00000000000E+00 0. -1.
     999901    1    3    3    0    0  0.60016830428E-01 -0.11944749270E+00  0.24478696867E-01  0.89043187839E+00  0.88000000000E+00 0.  1.
        -11    1    4    4    0    0 -0.37378095035E-01  0.42506528494E-01  0.92004982380E-02  0.57348384823E-01  0.51100000000E-03 0.  1.
         11    1    4    4    0    0 -0.31724214246E-01  0.66928786757E-01 -0.36127910773E-01  0.82409801141E-01  0.51100000000E-03 0. -1.
</event>
<event>
 8    1  0.2077555E+004  0.1043930E+01  0.7957747E-01            NaN
         13   -1    0    0    0    0  0.00000000000E+00  0.00000000000E+00  0.74505805969E-08  0.10566000000E+00  0.10566000000E+00 0. -1.
     999900   -1    0    0    0    0 -0.00000000000E+00 -0.00000000000E+00 -0.74505805969E-08  0.93827000000E+00  0.93827000000E+00 0.  1.
     999902    2    1    2    0    0  0.17920122516E-02 -0.26263366322E-02 -0.13529828637E-01  0.10300316111E+01  0.10299378402E+01 0.  0.
     999903    2    3    3    0    0 -0.11895076936E+00  0.48496220189E-02 -0.60111101884E-01  0.14053482957E+00  0.44315791637E-01 0.  0.
         14    1    1    2    0    0 -0.17920122516E-02  0.26263366322E-02  0.13529828637E-01  0.13898388934E-01  0.00000000000E+00 0. -1.
     999901    1    3    3    0    0  0.12074278161E+00 -0.74759586511E-02  0.46581273247E-01  0.88949678149E+00  0.88000000000E+00 0.  1.
        -11    1    4    4    0    0 -0.58106601499E-01 -0.15212774177E-01 -0.14222885435E-01  0.61728091069E-01  0.51100000000E-03 0.  1.
         11    1    4    4    0    0 -0.60844167860E-01  0.20062396196E-01 -0.45888216449E-01  0.78806738503E-01  0.51100000000E-03 0. -1.
</event>
<event>
 8    1  0.2077555E+004  0.1043930E+01  0.7957747E-01            NaN
         13   -1    0    0    0    0  0.00000000000E+00  0.00000000000E+00  0.74505805969E-08  0.10566000000E+00  0.10566000000E+00 0. -1.
     999900   -1    0    0    0    0 -0.00000000000E+00 -0.00000000000E+00 -0.74505805969E-08  0.93827000000E+00  0.93827000000E+00 0.  1.
     999902    2    1    2    0    0 -0.85103257835E-03  0.79900252799E-02 -0.12226190155E-01  0.10292997407E+01  0.10291957597E+01 0.  0.
     999903    2    3    3    0    0 -0.31009728222E-01 -0.47777966043E-01 -0.11715873514E+00  0.14080075099E+00  0.53426070186E-01 0.  0.
         14    1    1    2    0    0  0.85103257835E-03 -0.79900252799E-02  0.12226190155E-01  0.14630259264E-01  0.00000000000E+00 0. -1.
     999901    1    3    3    0    0  0.30158695644E-01  0.55767991323E-01  0.10493254499E+00  0.88849898974E+00  0.88000000000E+00 0. -1.
        -11    1    4    4    0    0 -0.10788516865E-01 -0.20548309115E-01 -0.10024376528E+00  0.10289654368E+00  0.51100000000E-03 0. -1.
         11    1    4    4    0    0 -0.20221211357E-01 -0.27229656929E-01 -0.16914969867E-01  0.37904207310E-01  0.51100000000E-03 0.  1.
</event>
<event>
 7    1  0.5710728E+004  0.1043930E+01  0.7957747E-01            NaN
         13   -1    0    0    0    0  0.00000000000E+00  0.00000000000E+00  0.74505805969E-08  0.10566000000E+00  0.10566000000E+00 0. -1.
     999900   -1    0    0    0    0 -0.00000000000E+00 -0.00000000000E+00 -0.74505805969E-08  0.93827000000E+00  0.93827000000E+00 0.  1.
     999903    2    1    2    0    0  0.21995789890E-01  0.49104847708E-01 -0.65948535048E-01  0.95985923420E-01  0.44373273246E-01 0.  0.
         14    1    1    2    0    0  0.49477985451E-01 -0.32720023954E-01 -0.15018533413E-01  0.61190091990E-01  0.00000000000E+00 0.  1.
     999901    1    1    2    0    0 -0.71473775340E-01 -0.16384823754E-01  0.80967068461E-01  0.88675398459E+00  0.88000000000E+00 0. -1.
        -11    1    3    3    0    0  0.35677953742E-01  0.33197837643E-01 -0.47097428093E-01  0.67774933872E-01  0.51100000000E-03 0. -1.
         11    1    3    3    0    0 -0.13682163852E-01  0.15907010065E-01 -0.18851106955E-01  0.28210989549E-01  0.51100000000E-03 0.  1.
</event>
<event>
 8    1  0.2077555E+004  0.1043930E+01  0.7957747E-01            NaN
         13   -1    0    0    0    0  0.00000000000E+00  0.00000000000E+00  0.74505805969E-08  0.10566000000E+00  0.10566000000E+00 0. -1.
     999900   -1    0    0    0    0 -0.00000000000E+00 -0.00000000000E+00 -0.74505805969E-08  0.93827000000E+00  0.93827000000E+00 0.  1.
     999902    2    1    2    0    0 -0.71677962446E-02 -0.40952133931E-02 -0.20403237368E-01  0.10219199984E+01  0.10216829464E+01 0.  0.
     999903    2    3    3    0    0 -0.11899768237E+00  0.39691677957E-01 -0.10083159138E-01  0.13370284065E+00  0.45154200173E-01 0.  0.
         14    1    1    2    0    0  0.71677962446E-02  0.40952133931E-02  0.20403237368E-01  0.22010001609E-01  0.00000000000E+00 0. -1.
     999901    1    3    3    0    0  0.11182988612E+00 -0.43786891350E-01 -0.10320078230E-01  0.88821715774E+00  0.88000000000E+00 0.  1.
        -11    1    4    4    0    0 -0.45321629853E-01  0.31045903525E-01 -0.20811806631E-01  0.58747686546E-01  0.51100000000E-03 0.  1.
         11    1    4    4    0    0 -0.73676052512E-01  0.86457744319E-02  0.10728647493E-01  0.74955154108E-01  0.51100000000E-03 0. -1.
</event>
<event>
 8    1  0.2077555E+004  0.1043930E+01  0.7957747E-01            NaN
         13   -1    0    0    0    0  0.00000000000E+00  0.00000000000E+00  0.74505805969E-08  0.10566000000E+00  0.10566000000E+00 0.  1.
     999900   -1    0    0    0    0 -0.00000000000E+00 -0.00000000000E+00 -0.74505805969E-08  0.93827000000E+00  0.93827000000E+00 0.  1.
     999902    2    1    2    0    0  0.70585445491E-02  0.25653417771E-02  0.11839000066E-01  0.10299098020E+01  0.10298143689E+01 0.  0.
     999903    2    3    3    0    0 -0.12985533359E+00  0.11911701277E-01  0.19211036709E-01  0.13924313517E+00  0.44891986708E-01 0.  0.
         14    1    1    2    0    0 -0.70585445491E-02 -0.25653417771E-02 -0.11839000066E-01  0.14020198006E-01  0.00000000000E+00 0. -1.
     999901    1    3    3    0    0  0.13691387814E+00 -0.93463595001E-02 -0.73720366431E-02  0.89066666682E+00  0.88000000000E+00 0.  1.
        -11    1    4    4    0    0 -0.36981192888E-01 -0.16187090304E-01  0.11108982593E-01  0.41872438849E-01  0.51100000000E-03 0.  1.
         11    1    4    4    0    0 -0.92874140707E-01  0.28098791581E-01  0.81020541153E-02  0.97370696322E-01  0.51100000000E-03 0. -1.
</event>
<event>
 8    1  0.2077555E+004  0.1043930E+01  0.7957747E-01            NaN
         13   -1    0    0    0    0  0.00000000000E+00  0.00000000000E+00  0.74505805969E-08  0.10566000000E+00  0.10566000000E+00 0.  1.
     999900   -1    0    0    0    0 -0.00000000000E+00 -0.00000000000E+00 -0.74505805969E-08  0.93827000000E+00  0.93827000000E+00 0.  1.
     999902    2    1    2    0    0 -0.25495827225E-03  0.15018888689E-01  0.55788197776E-02  0.10279064158E+01  0.10277815159E+01 0.  0.
     999903    2    3    3    0    0  0.47738793866E-01  0.10682728216E+00  0.63075663704E-01  0.13996606394E+00  0.43828062354E-01 0.  0.
         14    1    1    2    0    0  0.25495827225E-03 -0.15018888689E-01 -0.55788197776E-02  0.16023584221E-01  0.00000000000E+00 0.  1.
     999901    1    3    3    0    0 -0.47993752139E-01 -0.91808393475E-01 -0.57496843926E-01  0.88794035184E+00  0.88000000000E+00 0.  1.
        -11    1    4    4    0    0  0.33116991004E-01  0.81165228754E-01  0.23827322900E-01  0.90843447146E-01  0.51100000000E-03 0. -1.
         11    1    4    4    0    0  0.14621802862E-01  0.25662053411E-01  0.39248340803E-01  0.49122616797E-01  0.51100000000E-03 0.  1.
</event>
<event>
 8    1  0.2077555E+004  0.1043930E+01  0.7957747E-01            NaN
         13   -1    0    0    0    0  0.00000000000E+00  0.00000000000E+00  0.74505805969E-08  0.10566000000E+00  0.10566000000E+00 0.  1.
     999900   -1    0    0    0    0 -0.00000000000E+00 -0.00000000000E+00 -0.74505805969E-08  0.93827000000E+00  0.93827000000E+00 0.  1.
     999902    2    1    2    0    0  0.33331855344E-02 -0.67720788164E-02 -0.11535330891E-01  0.10301446804E+01  0.10300524392E+01 0.  0.
     999903    2    3    3    0    0 -0.84378642132E-01 -0.10093102649E+00 -0.21995344382E-01  0.14072426013E+00  0.44863067854E-01 0.  0.
         14    1    1    2    0    0 -0.33331855344E-02  0.67720788164E-02  0.11535330891E-01  0.13785319585E-01  0.00000000000E+00 0.  1.
     999901    1    3    3    0    0  0.87711827666E-01  0.94158947677E-01  0.10460013491E-01  0.88942042029E+00  0.88000000000E+00 0. -1.
        -11    1    4    4    0    0 -0.14545177806E-01 -0.55440948906E-02  0.96777098782E-02  0.18336258480E-01  0.51100000000E-03 0. -1.
         11    1    4    4    0    0 -0.69833464326E-01 -0.95386931602E-01 -0.31673054260E-01  0.12238800165E+00  0.51100000000E-03 0.  1.
</event>
<event>
 8    1  0.2077555E+004  0.1043930E+01  0.7957747E-01            NaN
         13   -1    0    0    0    0  0.00000000000E+00  0.00000000000E+00  0.74505805969E-08  0.10566000000E+00  0.10566000000E+00 0.  1.
     999900   -1    0    0    0    0 -0.00000000000E+00 -0.00000000000E+00 -0.74505805969E-08  0.93827000000E+00  0.93827000000E+00 0. -1.
     999902    2    1    2    0    0 -0.37188657677E-02 -0.11752727725E-01  0.63012606384E-02  0.10300857789E+01  0.10299927424E+01 0.  0.
     999903    2    3    3    0    0  0.72450420790E-03  0.52901380122E-01  0.12175768352E+00  0.14018124315E+00  0.45019623626E-01 0.  0.
         14    1    1    2    0    0  0.37188657677E-02  0.11752727725E-01 -0.63012606384E-02  0.13844221077E-01  0.00000000000E+00 0. -1.
     999901    1    3    3    0    0 -0.44433699756E-02 -0.64654107848E-01 -0.11545642288E+00  0.88990453577E+00  0.88000000000E+00 0. -1.
        -11    1    4    4    0    0  0.53334632592E-02  0.30022311752E-02  0.61507781986E-01  0.61813652118E-01  0.51100000000E-03 0.  1.
         11    1    4    4    0    0 -0.46089590513E-02  0.49899148947E-01  0.60249901532E-01  0.78367591036E-01  0.51100000000E-03 0. -1.
</event>
<event>
 8    1  0.2077555E+004  0.1043930E+01  0.7957747E-01            NaN
         13   -1    0    0    0    0  0.00000000000E+00  0.00000000000E+00  0.74505805969E-08  0.10566000000E+00  0.10566000000E+00 0.  1.
     999900   -1    0    0    0    0 -0.00000000000E+00 -0.00000000000E+00 -0.74505805969E-08  0.93827000000E+00  0.93827000000E+00 0. -1.
     999902    2    1    2    0    0 -0.32369268023E-02  0.65882424793E-02  0.11552941850E-01  0.10302423012E+01  0.10301513704E+01 0.  0.
     999903    2    3    3    0    0 -0.99817211720E-01 -0.85210245414E-01 -0.18823974963E-01  0.13969332952E+00  0.43995711160E-01 0.  0.
         14    1    1    2    0    0  0.32369268023E-02 -0.65882424793E-02 -0.11552941850E-01  0.13687698838E-01  0.00000000000E+00 0. -1.
     999901    1    3    3    0    0  0.96580284917E-01  0.91798487893E-01  0.30376916813E-01  0.89054897164E+00  0.88000000000E+00 0. -1.
        -11    1    4    4    0    0 -0.27805780264E-01 -0.45750882504E-01 -0.21095696185E-01  0.57546452406E-01  0.51100000000E-03 0. -1.
         11    1    4    4    0    0 -0.72011431456E-01 -0.39459362910E-01  0.22717212218E-02  0.82146877116E-01  0.51100000000E-03 0.  1.
</event>
<event>
 8    1  0.2077555E+004  0.1043930E+01  0.7957747E-01            NaN
         13   -1    0    0    0    0  0.00000000000E+00  0.00000000000E+00  0.74505805969E-08  0.10566000000E+00  0.10566000000E+00 0.  1.
     999900   -1    0    0    0    0 -0.00000000000E+00 -0.00000000000E+00 -0.74505805969E-08  0.93827000000E+00  0.93827000000E+00 0.  1.
     999902    2    1    2    0    0  0.47902460366E-02 -0.30135568072E-02  0.12720510120E-01  0.10300073796E+01  0.10299132792E+01 0.  0.
     999903    2    3    3    0    0 -0.57190100611E-01 -0.32660467311E-01  0.11690158911E+00  0.14120245166E+00  0.43985646346E-01 0.  0.
         14    1    1    2    0    0 -0.47902460366E-02  0.30135568072E-02 -0.12720510120E-01  0.13922620422E-01  0.00000000000E+00 0. -1.
     999901    1    3    3    0    0  0.61980346648E-01  0.29646910504E-01 -0.10418107899E+00  0.88880492792E+00  0.88000000000E+00 0.  1.
        -11    1    4    4    0    0 -0.63589098631E-02 -0.42521765193E-02 -0.27399435614E-02  0.81415693522E-02  0.51100000000E-03 0. -1.
         11    1    4    4    0    0 -0.50831190748E-01 -0.28408290792E-01  0.11964153267E+00  0.13306088231E+00  0.51100000000E-03 0.  1.
</event>
<event>
 8    1  0.2077555E+004  0.1043930E+01  0.7957747E-01            NaN
         13   -1    0    0    0    0  0.00000000000E+00  0.00000000000E+00  0.74505805969E-08  0.10566000000E+00  0.10566000000E+00 0. -1.
     999900   -1    0    0    0    0 -0.00000000000E+00 -0.00000000000E+00 -0.74505805969E-08  0.93827000000E+00  0.93827000000E+00 0. -1.
     999902    2    1    2    0    0  0.10351764064E-01 -0.57506359542E-02  0.63922785418E-02  0.10304730294E+01  0.10303851582E+01 0.  0.
     999903    2    3    3    0    0 -0.26575193654E-02  0.83574311281E-01  0.10362668489E+00  0.14052768419E+00  0.44920065536E-01 0.  0.
         14    1    1    2    0    0 -0.10351764064E-01  0.57506359542E-02 -0.63922785418E-02  0.13456970613E-01  0.00000000000E+00 0.  1.
     999901    1    3    3    0    0  0.13009283430E-01 -0.89324947235E-01 -0.97234406350E-01  0.88994534519E+00  0.88000000000E+00 0. -1.
        -11    1    4    4    0    0  0.16153096434E-01  0.28954965371E-01  0.58409509818E-01  0.67165798605E-01  0.51100000000E-03 0. -1.
         11    1    4    4    0    0 -0.18810615800E-01  0.54619345910E-01  0.45217175073E-01  0.73361885588E-01  0.51100000000E-03 0.  1.
</event>
<event>
 8    1  0.2077555E+004  0.1043930E+01  0.7957747E-01            NaN
         13   -1    0    0    0    0  0.00000000000E+00  0.00000000000E+00  0.74505805969E-08  0.10566000000E+00  0.10566000000E+00 0.  1.
     999900   -1    0    0    0    0 -0.00000000000E+00 -0.00000000000E+00 -0.74505805969E-08  0.93827000000E+00  0.93827000000E+00 0. -1.
     999902    2    1    2    0    0 -0.37782321561E-02  0.33112364173E-02  0.13566800125E-01  0.10294628859E+01  0.10293612272E+01 0.  0.
     999903    2    3    3    0    0 -0.98856686302E-02 -0.12693844960E+00  0.34939221786E-01  0.13959825468E+00  0.45341229142E-01 0.  0.
         14    1    1    2    0    0  0.37782321561E-02 -0.33112364173E-02 -0.13566800125E-01  0.14467114103E-01  0.00000000000E+00 0. -1.
     999901    1    3    3    0    0  0.61074364741E-02  0.13024968601E+00 -0.21372421661E-01  0.88986463122E+00  0.88000000000E+00 0.  1.
        -11    1    4    4    0    0 -0.82603261743E-02 -0.86792237753E-01  0.45087354515E-01  0.98154246882E-01  0.51100000000E-03 0. -1.
         11    1    4    4    0    0 -0.16253424559E-02 -0.40146211842E-01 -0.10148132728E-01  0.41444007797E-01  0.51100000000E-03 0.  1.
</event>
<event>
 8    1  0.2077555E+004  0.1043930E+01  0.7957747E-01            NaN
         13   -1    0    0    0    0  0.00000000000E+00  0.00000000000E+00  0.74505805969E-08  0.10566000000E+00  0.10566000000E+00 0. -1.
     999900   -1    0    0    0    0 -0.00000000000E+00 -0.00000000000E+00 -0.74505805969E-08  0.93827000000E+00  0.93827000000E+00 0. -1.
     999902    2    1    2    0    0  0.56323532387E-02  0.94344219569E-02 -0.89763279656E-02  0.10297417589E+01  0.10296440083E+01 0.  0.
     999903    2    3    3    0    0  0.70037634388E-01  0.10254077265E+00  0.51443620845E-01  0.14043449877E+00  0.40688106761E-01 0.  0.
         14    1    1    2    0    0 -0.56323532387E-02 -0.94344219569E-02  0.89763279656E-02  0.14188241061E-01  0.00000000000E+00 0. -1.
     999901    1    3    3    0    0 -0.64405281150E-01 -0.93106350694E-01 -0.60419948811E-01  0.88930726017E+00  0.88000000000E+00 0.  1.
        -11    1    4    4    0    0  0.12992937491E-01  0.52638688122E-01  0.14550701451E-01  0.56139397445E-01  0.51100000000E-03 0. -1.
         11    1    4    4    0    0  0.57044696897E-01  0.49902084529E-01  0.36892919394E-01  0.84295101322E-01  0.51100000000E-03 0.  1.
</event>
<event>
 8    1  0.2077555E+004  0.1043930E+01  0.7957747E-01            NaN
         13   -1    0    0    0    0  0.00000000000E+00  0.00000000000E+00  0.74505805969E-08  0.10566000000E+00  0.10566000000E+00 0. -1.
     999900   -1    0    0    0    0 -0.00000000000E+00 -0.00000000000E+00 -0.74505805969E-08  0.93827000000E+00  0.93827000000E+00 0.  1.
     999902    2    1    2    0    0  0.11576157941E-01 -0.27006566790E-02 -0.54958691308E-02  0.10308339870E+01  0.10307507959E+01 0.  0.
     999903    2    3    3    0    0  0.29379540028E-01 -0.75614481554E-01  0.10576852775E+00  0.14065807613E+00  0.44911086891E-01 0.  0.
         14    1    1    2    0    0 -0.11576157941E-01  0.27006566790E-02  0.54958691308E-02  0.13096013006E-01  0.00000000000E+00 0. -1.
     999901    1    3    3    0    0 -0.17803382087E-01  0.72913824875E-01 -0.11126439688E+00  0.89017591086E+00  0.88000000000E+00 0.  1.
        -11    1    4    4    0    0  0.31635629118E-01 -0.25630032314E-01  0.62020387422E-01  0.74192325500E-01  0.51100000000E-03 0. -1.
         11    1    4    4    0    0 -0.22560890906E-02 -0.49984449240E-01  0.43748140324E-01  0.66465750629E-01  0.51100000000E-03 0.  1.
</event>
<event>
 8    1  0.2077555E+004  0.1043930E+01  0.7957747E-01            NaN
         13   -1    0    0    0    0  0.00000000000E+00  0.00000000000E+00  0.74505805969E-08  0.10566000000E+00  0.10566000000E+00 0. -1.
     999900   -1    0    0    0    0 -0.00000000000E+00 -0.00000000000E+00 -0.74505805969E-08  0.93827000000E+00  0.93827000000E+00 0. -1.
     999902    2    1    2    0    0 -0.21163338106E-02 -0.10266450234E-01  0.81088992580E-02  0.10306773355E+01  0.10305921292E+01 0.  0.
     999903    2    3    3    0    0  0.10224851122E+00  0.53938895547E-01 -0.63189030203E-01  0.13933130726E+00  0.45345310089E-01 0.  0.
         14    1    1    2    0    0  0.21163338106E-02  0.10266450234E-01 -0.81088992580E-02  0.13252664501E-01  0.00000000000E+00 0.  1.
     999901    1    3    3    0    0 -0.10436484503E+00 -0.64205345781E-01  0.71297929461E-01  0.89134602823E+00  0.88000000000E+00 0.  1.
        -11    1    4    4    0    0  0.27155153213E-01  0.33084437060E-01 -0.72913320402E-02  0.43421273191E-01  0.51100000000E-03 0.  1.
         11    1    4    4    0    0  0.75093358004E-01  0.20854458488E-01 -0.55897698163E-01  0.95910034074E-01  0.51100000000E-03 0. -1.
</event>
<event>
 8    1  0.2077555E+004  0.1043930E+01  0.7957747E-01            NaN
         13   -1    0    0    0    0  0.00000000000E+00  0.00000000000E+00  0.74505805969E-08  0.10566000000E+00  0.10566000000E+00 0.  1.
     999900   -1    0    0    0    0 -0.00000000000E+00 -0.00000000000E+00 -0.74505805969E-08  0.93827000000E+00  0.93827000000E+00 0.  1.
     999902    2    1    2    0    0 -0.10718403783E-01  0.20303107072E-02 -0.87154786200E-02  0.10299669807E+01  0.10298723296E+01 0.  0.
     999903    2    3    3    0    0  0.19778706861E-01  0.56015563698E-01 -0.12056729466E+00  0.14072274535E+00  0.41683064850E-01 0.  0.
         14    1    1    2    0    0  0.10718403783E-01 -0.20303107072E-02  0.87154786200E-02  0.13963019329E-01  0.00000000000E+00 0.  1.
     999901    1    3    3    0    0 -0.30497110643E-01 -0.53985252991E-01  0.11185181604E+00  0.88924423532E+00  0.88000000000E+00 0. -1.
        -11    1    4    4    0    0  0.12645070617E-01  0.53450018905E-01 -0.12123264208E+00  0.13309551818E+00  0.51100000000E-03 0.  1.
         11    1    4    4    0    0  0.71336362436E-02  0.25655447928E-02  0.66534742036E-03  0.76272271717E-02  0.51100000000E-03 0. -1.
</event>
<event>
 8    1  0.2077555E+004  0.1043930E+01  0.7957747E-01            NaN
         13   -1    0    0    0    0  0.00000000000E+00  0.00000000000E+00  0.74505805969E-08  0.10566000000E+00  0.10566000000E+00 0.  1.
     999900   -1    0    0    0    0 -0.00000000000E+00 -0.00000000000E+00 -0.74505805969E-08  0.93827000000E+00  0.93827000000E+00 0. -1.
     999902    2    1    2    0    0 -0.11411034853E-01  0.70408326497E-02 -0.47585441259E-02  0.10297022531E+01  0.10296039536E+01 0.  0.
     999903    2    3    3    0    0 -0.80470537996E-01  0.65178089685E-01  0.84993750436E-01  0.14054274543E+00  0.42480993622E-01 0.  0.
         14    1    1    2    0    0  0.11411034853E-01 -0.70408326497E-02  0.47585441259E-02  0.14227746941E-01  0.00000000000E+00 0.  1.
     999901    1    3    3    0    0  0.69059503143E-01 -0.58137257035E-01 -0.89752294562E-01  0.88915950763E+00  0.88000000000E+00 0. -1.
        -11    1    4    4    0    0 -0.14250766413E-01  0.37544581163E-01  0.29494266302E-01  0.49828232798E-01  0.51100000000E-03 0. -1.
         11    1    4    4    0    0 -0.66219771583E-01  0.27633508522E-01  0.55499484134E-01  0.90714512631E-01  0.51100000000E-03 0.  1.
</event>
<event>
 8    1  0.2077555E+004  0.1043930E+01  0.7957747E-01            NaN
         13   -1    0    0    0    0  0.00000000000E+00  0.00000000000E+00  0.74505805969E-08  0.10566000000E+00  0.10566000000E+00 0. -1.
     999900   -1    0    0    0    0 -0.00000000000E+00 -0.00000000000E+00 -0.74505805969E-08  0.93827000000E+00  0.93827000000E+00 0.  1.
     999902    2    1    2    0    0  0.62189677992E-02  0.86582724393E-03 -0.12819981094E-01  0.10296549472E+01  0.10295559884E+01 0.  0.
     999903    2    3    3    0    0 -0.44995750223E-01 -0.49636868540E-01 -0.11439913575E+00  0.14089637802E+00  0.47709441655E-01 0.  0.
         14    1    1    2    0    0 -0.62189677992E-02 -0.86582724393E-03  0.12819981094E-01  0.14275052804E-01  0.00000000000E+00 0. -1.
     999901    1    3    3    0    0  0.51214718022E-01  0.50502695784E-01  0.10157915465E+00  0.88875856918E+00  0.88000000000E+00 0. -1.
        -11    1    4    4    0    0 -0.33680211652E-01 -0.23752024430E-01 -0.10205358004E+00  0.11006229891E+00  0.51100000000E-03 0. -1.
         11    1    4    4    0    0 -0.11315538571E-01 -0.25884844111E-01 -0.12345555705E-01  0.30834079108E-01  0.51100000000E-03 0.  1.
</event>
<event>
 8    1  0.2077555E+004  0.1043930E+01  0.7957747E-01            NaN
         13   -1    0    0    0    0  0.00000000000E+00  0.00000000000E+00  0.74505805969E-08  0.10566000000E+00  0.10566000000E+00 0. -1.
     999900   -1    0    0    0    0 -0.00000000000E+00 -0.00000000000E+00 -0.74505805969E-08  0.93827000000E+00  0.93827000000E+00 0.  1.
     999902    2    1    2    0    0 -0.92642422627E-02 -0.92268526174E-02  0.30608124530E-02  0.10305013155E+01  0.10304138158E+01 0.  0.
     999903    2    3    3    0    0 -0.60321109961E-01 -0.10954843693E+00  0.50350956343E-01  0.14207147489E+00  0.44828437755E-01 0.  0.
         14    1    1    2    0    0  0.92642422627E-02  0.92268526174E-02 -0.30608124530E-02  0.13428684478E-01  0.00000000000E+00 0.  1.
     999901    1    3    3    0    0  0.51056867698E-01  0.10032158431E+00 -0.47290143890E-01  0.88842984063E+00  0.88000000000E+00 0.  1.
        -11    1    4    4    0    0 -0.94309288024E-02 -0.61784133439E-01  0.17340602155E-01  0.64862771811E-01  0.51100000000E-03 0. -1.
         11    1    4    4    0    0 -0.50890181158E-01 -0.47764303492E-01  0.33010354188E-01  0.77208703078E-01  0.51100000000E-03 0.  1.
</event>
<event>
 8    1  0.2077555E+004  0.1043930E+01  0.7957747E-01            NaN
         13   -1    0    0    0    0  0.00000000000E+00  0.00000000000E+00  0.74505805969E-08  0.10566000000E+00  0.10566000000E+00 0.  1.
     999900   -1    0    0    0    0 -0.00000000000E+00 -0.00000000000E+00 -0.74505805969E-08  0.93827000000E+00  0.93827000000E+00 0.  1.
     999902    2    1    2    0    0 -0.69965774835E-04  0.91789131477E-02  0.10553719577E-01  0.10299429224E+01  0.10298479427E+01 0.  0.
     999903    2    3    3    0    0 -0.13008848187E+00  0.22379878954E-01 -0.25738639547E-02  0.14019497303E+00  0.47160720832E-01 0.  0.
         14    1    1    2    0    0  0.69965774835E-04 -0.91789131477E-02 -0.10553719577E-01  0.13987077561E-01  0.00000000000E+00 0. -1.
     999901    1    3    3    0    0  0.13001851610E+00 -0.13200965806E-01  0.13127583532E-01  0.88974794941E+00  0.88000000000E+00 0.  1.
        -11    1    4    4    0    0 -0.48065444597E-01  0.28614246102E-01  0.10453250750E-01  0.56908642722E-01  0.51100000000E-03 0.  1.
         11    1    4    4    0    0 -0.82023037276E-01 -0.62343671479E-02 -0.13027114704E-01  0.83286330308E-01  0.51100000000E-03 0. -1.
</event>
<event>
 8    1  0.2077555E+004  0.1043930E+01  0.7957747E-01            NaN
         13   -1    0    0    0    0  0.00000000000E+00  0.00000000000E+00  0.74505805969E-08  0.10566000000E+00  0.10566000000E+00 0.  1.
     999900   -1    0    0    0    0 -0.00000000000E+00 -0.00000000000E+00 -0.74505805969E-08  0.93827000000E+00  0.93827000000E+00 0. -1.
     999902    2    1    2    0    0 -0.17478344382E-02  0.19102533842E-01  0.33592868809E-02  0.10244557469E+01  0.10242706336E+01 0.  0.
     999903    2    3    3    0    0 -0.11157022245E+00  0.55655210393E-01  0.32255696300E-01  0.13640616636E+00  0.44953256793E-01 0.  0.
         14    1    1    2    0    0  0.17478344382E-02 -0.19102533842E-01 -0.33592868809E-02  0.19474253073E-01  0.00000000000E+00 0. -1.
     999901    1    3    3    0    0  0.10982238801E+00 -0.36552676551E-01 -0.28896409419E-01  0.88804958057E+00  0.88000000000E+00 0. -1.
        -11    1    4    4    0    0 -0.45205124609E-01  0.40397368132E-01 -0.96813993342E-03  0.60635377948E-01  0.51100000000E-03 0.  1.
         11    1    4    4    0    0 -0.66365097837E-01  0.15257842261E-01  0.33223836233E-01  0.75770788411E-01  0.51100000000E-03 0. -1.
</event>
<event>
 8    1  0.2077555E+004  0.1043930E+01  0.7957747E-01            NaN
         13   -1    0    0    0    0  0.00000000000E+00  0.00000000000E+00  0.74505805969E-08  0.10566000000E+00  0.10566000000E+00 0. -1.
     999900   -1    0    0    0    0 -0.00000000000E+00 -0.00000000000E+00 -0.74505805969E-08  0.93827000000E+00  0.93827000000E+00 0.  1.
     999902    2    1    2    0    0  0.15110180711E-01  0.18535897050E-02 -0.74938508111E-04  0.10287063680E+01  0.10285937160E+01 0.  0.
     999903    2    3    3    0    0 -0.60309709962E-01 -0.60329674598E-01 -0.98426554291E-01  0.13784837785E+00  0.45138209230E-01 0.  0.
         14    1    1    2    0    0 -0.15110180711E-01 -0.18535897050E-02  0.74938508111E-04  0.15223632014E-01  0.00000000000E+00 0. -1.
     999901    1    3    3    0    0  0.75419890673E-01  0.62183264303E-01  0.98351615783E-01  0.89085799014E+00  0.88000000000E+00 0.  1.
        -11    1    4    4    0    0 -0.39969988376E-02 -0.32963506776E-01 -0.42162861198E-01  0.53670632231E-01  0.51100000000E-03 0. -1.
         11    1    4    4    0    0 -0.56312711124E-01 -0.27366167822E-01 -0.56263693093E-01  0.84177745616E-01  0.51100000000E-03 0.  1.
</event>
<event>
 8    1  0.2077555E+004  0.1043930E+01  0.7957747E-01            NaN
         13   -1    0    0    0    0  0.00000000000E+00  0.00000000000E+00  0.74505805969E-08  0.10566000000E+00  0.10566000000E+00 0. -1.
     999900   -1    0    0    0    0 -0.00000000000E+00 -0.00000000000E+00 -0.74505805969E-08  0.93827000000E+00  0.93827000000E+00 0. -1.
     999902    2    1    2    0    0 -0.11875047154E-01 -0.29155498020E-02  0.90064904108E-02  0.10287433597E+01  0.10286312585E+01 0.  0.
     999903    2    3    3    0    0  0.67473624947E-01  0.10830174879E+00  0.28713853692E-01  0.13798307796E+00  0.43964594351E-01 0.  0.
         14    1    1    2    0    0  0.11875047154E-01  0.29155498020E-02 -0.90064904108E-02  0.15186640348E-01  0.00000000000E+00 0.  1.
     999901    1    3    3    0    0 -0.79348672101E-01 -0.11121729859E+00 -0.19707363282E-01  0.89076028169E+00  0.88000000000E+00 0.  1.
        -11    1    4    4    0    0  0.17589802725E-01  0.47654892958E-02  0.12049843811E-01  0.21853395731E-01  0.51100000000E-03 0.  1.
         11    1    4    4    0    0  0.49883822222E-01  0.10353625949E+00  0.16664009882E-01  0.11612968223E+00  0.51100000000E-03 0. -1.
</event>
<event>
 8    1  0.2782417E+004  0.1043930E+01  0.7957747E-01            NaN
         13   -1    0    0    0    0  0.00000000000E+00  0.00000000000E+00  0.74505805969E-08  0.10566000000E+00  0.10566000000E+00 0.  1.
     999900   -1    0    0    0    0 -0.00000000000E+00 -0.00000000000E+00 -0.74505805969E-08  0.93827000000E+00  0.93827000000E+00 0. -1.
     999902    2    1    2    0    0  0.69647887353E-02 -0.85450155918E-02 -0.12641607201E-01  0.10271569321E+01  0.10270199742E+01 0.  0.
     999903    2    3    3    0    0  0.44184177921E-01 -0.64980429020E-01  0.10255541102E+00  0.13707795145E+00  0.45804527163E-01 0.  0.
         14    1    1    2    0    0 -0.69647887353E-02  0.85450155918E-02  0.12641607201E-01  0.16773067883E-01  0.00000000000E+00 0.  1.
     999901    1    3    3    0    0 -0.37219389186E-01  0.56435413428E-01 -0.11519701823E+00  0.89007898067E+00  0.88000000000E+00 0. -1.
        -11    1    4    4    0    0  0.42379679967E-01 -0.23316057179E-01  0.45540052157E-01  0.66436686160E-01  0.51100000000E-03 0.  1.
         11    1    4    4    0    0  0.18044979546E-02 -0.41664371841E-01  0.57015358867E-01  0.70641265288E-01  0.51100000000E-03 0. -1.
</event>
<event>
 8    1  0.2077555E+004  0.1043930E+01  0.7957747E-01            NaN
         13   -1    0    0    0    0  0.00000000000E+00  0.00000000000E+00  0.74505805969E-08  0.10566000000E+00  0.10566000000E+00 0.  1.
     999900   -1    0    0    0    0 -0.00000000000E+00 -0.00000000000E+00 -0.74505805969E-08  0.93827000000E+00  0.93827000000E+00 0. -1.
     999902    2    1    2    0    0  0.13084246308E-01 -0.49554430601E-02 -0.81526793946E-03  0.10299150587E+01  0.10298196976E+01 0.  0.
     999903    2    3    3    0    0 -0.34033800404E-01 -0.71193641631E-01 -0.10648138652E+00  0.13987408332E+00  0.44717326956E-01 0.  0.
         14    1    1    2    0    0 -0.13084246308E-01  0.49554430601E-02  0.81526793946E-03  0.14014941283E-01  0.00000000000E+00 0.  1.
     999901    1    3    3    0    0  0.47118046712E-01  0.66238198571E-01  0.10566611858E+00  0.89004097540E+00  0.88000000000E+00 0.  1.
        -11    1    4    4    0    0 -0.43824668663E-03 -0.50459598708E-01 -0.50701365481E-01  0.71534975674E-01  0.51100000000E-03 0. -1.
         11    1    4    4    0    0 -0.33595553717E-01 -0.20734042923E-01 -0.55780021037E-01  0.68339107643E-01  0.51100000000E-03 0.  1.
</event>
<event>
 8    1  0.2077555E+004  0.1043930E+01  0.7957747E-01            NaN
         13   -1    0    0    0    0  0.00000000000E+00  0.00000000000E+00  0.74505805969E-08  0.10566000000E+00  0.10566000000E+00 0.  1.
     999900   -1    0    0    0    0 -0.00000000000E+00 -0.00000000000E+00 -0.74505805969E-08  0.93827000000E+00  0.93827000000E+00 0. -1.
     999902    2    1    2    0    0  0.93250249623E-02  0.37155750662E-02 -0.79644195876E-02  0.10311161962E+01  0.10310365738E+01 0.  0.
     999903    2    3    3    0    0 -0.40198671236E-01 -0.67382776993E-01  0.10684080412E+00  0.13943923028E+00  0.43266265293E-01 0.  0.
         14    1    1    2    0    0 -0.93250249623E-02 -0.37155750662E-02  0.79644195876E-02  0.12813803806E-01  0.00000000000E+00 0.  1.
     999901    1    3    3    0    0  0.49523696198E-01  0.71098352060E-01 -0.11480522370E+00  0.89167696591E+00  0.88000000000E+00 0. -1.
        -11    1    4    4    0    0 -0.40512600547E-01 -0.39703578363E-01  0.47613133602E-01  0.74060222457E-01  0.51100000000E-03 0. -1.
         11    1    4    4    0    0  0.31392931133E-03 -0.27679198630E-01  0.59227670515E-01  0.65379007824E-01  0.51100000000E-03 0.  1.
</event>
<event>
 8    1  0.2077555E+004  0.1043930E+01  0.7957747E-01            NaN
         13   -1    0    0    0    0  0.00000000000E+00  0.00000000000E+00  0.74505805969E-08  0.10566000000E+00  0.10566000000E+00 0.  1.
     999900   -1    0    0    0    0 -0.00000000000E+00 -0.00000000000E+00 -0.74505805969E-08  0.93827000000E+00  0.93827000000E+00 0.  1.
     999902    2    1    2    0    0  0.65345708119E-02  0.63744978755E-02  0.99338408596E-02  0.10304386682E+01  0.10303503448E+01 0.  0.
     999903    2    3    3    0    0  0.12937947158E+00 -0.29981621649E-01 -0.13291384427E-01  0.14085896513E+00  0.45018239120E-01 0.  0.
         14    1    1    2    0    0 -0.65345708119E-02 -0.63744978755E-02 -0.99338408596E-02  0.13491331776E-01  0.00000000000E+00 0. -1.
     999901    1    3    3    0    0 -0.12284490077E+00  0.36356119524E-01  0.23225225287E-01  0.88957970310E+00  0.88000000000E+00 0. -1.
        -11    1    4    4    0    0  0.12005573111E+00 -0.13059666244E-01 -0.92905156168E-02  0.12112187356E+00  0.51100000000E-03 0.  1.
         11    1    4    4    0    0  0.93237404735E-02 -0.16921955405E-01 -0.40008688104E-02  0.19737091563E-01  0.51100000000E-03 0. -1.
</event>
<event>
 8    1  0.2077555E+004  0.1043930E+01  0.7957747E-01            NaN
         13   -1    0    0    0    0  0.00000000000E+00  0.00000000000E+00  0.74505805969E-08  0.10566000000E+00  0.10566000000E+00 0. -1.
     999900   -1    0    0    0    0 -0.00000000000E+00 -0.00000000000E+00 -0.74505805969E-08  0.93827000000E+00  0.93827000000E+00 0.  1.
     999902    2    1    2    0    0  0.12965218209E-01  0.42528702026E-02  0.18890651458E-03  0.10302837744E+01  0.10301933975E+01 0.  0.
     999903    2    3    3    0    0 -0.38791578907E-01 -0.83377146144E-01 -0.94683828495E-01  0.13935245173E+00  0.44693884733E-01 0.  0.
         14    1    1    2    0    0 -0.12965218209E-01 -0.42528702026E-02 -0.18890651458E-03  0.13646225626E-01  0.00000000000E+00 0. -1.
     999901    1    3    3    0    0  0.51756797116E-01  0.87630016347E-01  0.94872735010E-01  0.89093132264E+00  0.88000000000E+00 0. -1.
        -11    1    4    4    0    0 -0.49993366481E-02 -0.21876741381E-01 -0.53421568007E-01  0.57945752473E-01  0.51100000000E-03 0.  1.
         11    1    4    4    0    0 -0.33792242259E-01 -0.61500404763E-01 -0.41262260489E-01  0.81406699261E-01  0.51100000000E-03 0. -1.
</event>
<event>
 8    1  0.2077555E+004  0.1043930E+01  0.7957747E-01            NaN
         13   -1    0    0    0    0  0.00000000000E+00  0.00000000000E+00  0.74505805969E-08  0.10566000000E+00  0.10566000000E+00 0.  1.
     999900   -1    0    0    0    0 -0.00000000000E+00 -0.00000000000E+00 -0.74505805969E-08  0.93827000000E+00  0.93827000000E+00 0. -1.
     999902    2    1    2    0    0  0.22329231529E-02 -0.16939819174E-01  0.43526189762E-02  0.10262979635E+01  0.10261464911E+01 0.  0.
     999903    2    3    3    0    0 -0.41968661840E-01  0.11430659763E-01 -0.12061728021E+00  0.13591819065E+00  0.45090993601E-01 0.  0.
         14    1    1    2    0    0 -0.22329231529E-02  0.16939819174E-01 -0.43526189762E-02  0.17632036508E-01  0.00000000000E+00 0. -1.
     999901    1    3    3    0    0  0.44201584993E-01 -0.28370478937E-01  0.12496989919E+00  0.89037977285E+00  0.88000000000E+00 0.  1.
        -11    1    4    4    0    0 -0.33847318410E-01 -0.12235729534E-01 -0.55425816550E-01  0.66088095009E-01  0.51100000000E-03 0. -1.
         11    1    4    4    0    0 -0.81213434305E-02  0.23666389296E-01 -0.65191463660E-01  0.69830095637E-01  0.51100000000E-03 0.  1.
</event>
<event>
 8    1  0.2077555E+004  0.1043930E+01  0.7957747E-01            NaN
         13   -1    0    0    0    0  0.00000000000E+00  0.00000000000E+00  0.74505805969E-08  0.10566000000E+00  0.10566000000E+00 0. -1.
     999900   -1    0    0    0    0 -0.00000000000E+00 -0.00000000000E+00 -0.74505805969E-08  0.93827000000E+00  0.93827000000E+00 0.  1.
     999902    2    1    2    0    0 -0.13731629811E-01 -0.90800462524E-02  0.56656120512E-02  0.10265201161E+01  0.10263724688E+01 0.  0.
     999903    2    3    3    0    0  0.80070886105E-01  0.21854127612E-01  0.98287003964E-01  0.13616369459E+00  0.44623613480E-01 0.  0.
         14    1    1    2    0    0  0.13731629811E-01  0.90800462524E-02 -0.56656120512E-02  0.17409883892E-01  0.00000000000E+00 0. -1.
     999901    1    3    3    0    0 -0.93802515916E-01 -0.30934173865E-01 -0.92621391913E-01  0.89035642152E+00  0.88000000000E+00 0. -1.
        -11    1    4    4    0    0  0.91487431581E-02 -0.12203289302E-01  0.20171927036E-01  0.25294021675E-01  0.51100000000E-03 0. -1.
         11    1    4    4    0    0  0.70922142947E-01  0.34057416915E-01  0.78115076928E-01  0.11086967291E+00  0.51100000000E-03 0.  1.
</event>
<event>
 8    1  0.2077555E+004  0.1043930E+01  0.7957747E-01            NaN
         13   -1    0    0    0    0  0.00000000000E+00  0.00000000000E+00  0.74505805969E-08  0.10566000000E+00  0.10566000000E+00 0. -1.
     999900   -1    0    0    0    0 -0.00000000000E+00 -0.00000000000E+00 -0.74505805969E-08  0.93827000000E+00  0.93827000000E+00 0. -1.
     999902    2    1    2    0    0  0.13112741998E-01 -0.41780568792E-02  0.67794466281E-02  0.10285885184E+01  0.10284741023E+01 0.  0.
     999903    2    3    3    0    0  0.87367220152E-01  0.80022433648E-01 -0.56836632810E-01  0.13917834545E+00  0.45864888194E-01 0.  0.
         14    1    1    2    0    0 -0.13112741998E-01  0.41780568792E-02 -0.67794466281E-02  0.15341481629E-01  0.00000000000E+00 0.  1.
     999901    1    3    3    0    0 -0.74254478153E-01 -0.84200490528E-01  0.63616079439E-01  0.88941017292E+00  0.88000000000E+00 0.  1.
        -11    1    4    4    0    0  0.70821556594E-01  0.75928294996E-01 -0.62522782179E-01  0.12120296313E+00  0.51100000000E-03 0. -1.
         11    1    4    4    0    0  0.16545663558E-01  0.40941386523E-02  0.56861493687E-02  0.17975382319E-01  0.51100000000E-03 0.  1.
</event>
<event>
 8    1  0.2077555E+004  0.1043930E+01  0.7957747E-01            NaN
         13   -1    0    0    0    0  0.00000000000E+00  0.00000000000E+00  0.74505805969E-08  0.10566000000E+00  0.10566000000E+00 0.  1.
     999900   -1    0    0    0    0 -0.00000000000E+00 -0.00000000000E+00 -0.74505805969E-08  0.93827000000E+00  0.93827000000E+00 0. -1.
     999902    2    1    2    0    0  0.27620729842E-03 -0.34413499452E-02 -0.13726828096E-01  0.10297756724E+01  0.10296783918E+01 0.  0.
     999903    2    3    3    0    0  0.90130047581E-02 -0.15297242834E-01  0.12927852777E+00  0.13811013779E+00  0.45235301749E-01 0.  0.
         14    1    1    2    0    0 -0.27620729842E-03  0.34413499452E-02  0.13726828096E-01  0.14154327589E-01  0.00000000000E+00 0.  1.
     999901    1    3    3    0    0 -0.87367974597E-02  0.11855892889E-01 -0.14300535587E+00  0.89166553462E+00  0.88000000000E+00 0. -1.
        -11    1    4    4    0    0  0.22306316574E-01  0.53288159628E-03  0.98731441386E-01  0.10122259808E+00  0.51100000000E-03 0.  1.
         11    1    4    4    0    0 -0.13293311816E-01 -0.15830124431E-01  0.30547086385E-01  0.36887539714E-01  0.51100000000E-03 0. -1.
</event>
<event>
 8    1  0.2077555E+004  0.1043930E+01  0.7957747E-01            NaN
         13   -1    0    0    0    0  0.00000000000E+00  0.00000000000E+00  0.74505805969E-08  0.10566000000E+00  0.10566000000E+00 0. -1.
     999900   -1    0    0    0    0 -0.00000000000E+00 -0.00000000000E+00 -0.74505805969E-08  0.93827000000E+00  0.93827000000E+00 0.  1.
     999902    2    1    2    0    0  0.18272977803E-01  0.92040750745E-02 -0.11062661238E-01  0.10206706107E+01  0.10204055549E+01 0.  0.
     999903    2    3    3    0    0 -0.10687508105E+00  0.12676081644E-01 -0.57346995522E-01  0.13060525859E+00  0.46755637974E-01 0.  0.
         14    1    1    2    0    0 -0.18272977803E-01 -0.92040750745E-02  0.11062661238E-01  0.23259389275E-01  0.00000000000E+00 0. -1.
     999901    1    3    3    0    0  0.12514805885E+00 -0.34720065694E-02  0.46284334284E-01  0.89006535213E+00  0.88000000000E+00 0.  1.
        -11    1    4    4    0    0 -0.59649726711E-01 -0.54940922564E-02 -0.52705862764E-01  0.79789999606E-01  0.51100000000E-03 0. -1.
         11    1    4    4    0    0 -0.47225354337E-01  0.18170173900E-01 -0.46411327580E-02  0.50815258989E-01  0.51100000000E-03 0.  1.
</event>
<event>
 8    1  0.2077555E+004  0.1043930E+01  0.7957747E-01            NaN
         13   -1    0    0    0    0  0.00000000000E+00  0.00000000000E+00  0.74505805969E-08  0.10566000000E+00  0.10566000000E+00 0. -1.
     999900   -1    0    0    0    0 -0.00000000000E+00 -0.00000000000E+00 -0.74505805969E-08  0.93827000000E+00  0.93827000000E+00 0. -1.
     999902    2    1    2    0    0  0.90722397657E-02  0.82465242875E-04 -0.10128683527E-01  0.10303321117E+01  0.10302423782E+01 0.  0.
     999903    2    3    3    0    0 -0.26952919170E-01 -0.12630447575E-01 -0.13078390151E+00  0.14127805723E+00  0.44374232431E-01 0.  0.
         14    1    1    2    0    0 -0.90722397657E-02 -0.82465242875E-04  0.10128683527E-01  0.13597888250E-01  0.00000000000E+00 0. -1.
     999901    1    3    3    0    0  0.36025158936E-01  0.12712912818E-01  0.12065521798E+00  0.88905405452E+00  0.88000000000E+00 0.  1.
        -11    1    4    4    0    0 -0.12630985105E-01  0.12249344342E-01 -0.88063989799E-01  0.89805988898E-01  0.51100000000E-03 0. -1.
         11    1    4    4    0    0 -0.14321934065E-01 -0.24879791917E-01 -0.42719911709E-01  0.51472068334E-01  0.51100000000E-03 0.  1.
</event>
<event>
 8    1  0.2077555E+004  0.1043930E+01  0.7957747E-01            NaN
         13   -1    0    0    0    0  0.00000000000E+00  0.00000000000E+00  0.74505805969E-08  0.10566000000E+00  0.10566000000E+00 0. -1.
     999900   -1    0    0    0    0 -0.00000000000E+00 -0.00000000000E+00 -0.74505805969E-08  0.93827000000E+00  0.93827000000E+00 0. -1.
     999902    2    1    2    0    0  0.72586892378E-02  0.37870157157E-02 -0.10963591475E-01  0.10302467842E+01  0.10301559134E+01 0.  0.
     999903    2    3    3    0    0 -0.91274725941E-01  0.25212856203E-01  0.91001181400E-01  0.13863884597E+00  0.44415660330E-01 0.  0.
         14    1    1    2    0    0 -0.72586892378E-02 -0.37870157157E-02  0.10963591475E-01  0.13683215832E-01  0.00000000000E+00 0. -1.
     999901    1    3    3    0    0  0.98533415178E-01 -0.21425840488E-01 -0.10196477288E+00  0.89160793820E+00  0.88000000000E+00 0. -1.
        -11    1    4    4    0    0 -0.62950471450E-01 -0.46484622105E-02  0.60218194544E-01  0.87240255225E-01  0.51100000000E-03 0. -1.
         11    1    4    4    0    0 -0.28324254491E-01  0.29861318414E-01  0.30782986856E-01  0.51398590746E-01  0.51100000000E-03 0.  1.
</event>
<event>
 8    1  0.2077555E+004  0.1043930E+01  0.7957747E-01            NaN
         13   -1    0    0    0    0  0.00000000000E+00  0.00000000000E+00  0.74505805969E-08  0.10566000000E+00  0.10566000000E+00 0.  1.
     999900   -1    0    0    0    0 -0.00000000000E+00 -0.00000000000E+00 -0.74505805969E-08  0.93827000000E+00  0.93827000000E+00 0.  1.
     999902    2    1    2    0    0  0.15431018597E-02  0.12624340678E-01  0.44279913190E-02  0.10304629198E+01  0.10303749157E+01 0.  0.
     999903    2    3    3    0    0  0.19584372501E-01  0.67919333692E-02 -0.12931399257E+00  0.14015599373E+00  0.49919093544E-01 0.  0.
         14    1    1    2    0    0 -0.15431018597E-02 -0.12624340678E-01 -0.44279913190E-02  0.13467080159E-01  0.00000000000E+00 0.  1.
     999901    1    3    3    0    0 -0.18041270641E-01  0.58324073085E-02  0.13374198389E+00  0.89030692611E+00  0.88000000000E+00 0. -1.
        -11    1    4    4    0    0  0.17697139714E-01 -0.15806245557E-01 -0.10163897671E+00  0.10437321908E+00  0.51100000000E-03 0. -1.
         11    1    4    4    0    0  0.18872327872E-02  0.22598178926E-01 -0.27675015857E-01  0.35782774656E-01  0.51100000000E-03 0.  1.
</event>
<event>
 8    1  0.2077555E+004  0.1043930E+01  0.7957747E-01            NaN
         13   -1    0    0    0    0  0.00000000000E+00  0.00000000000E+00  0.74505805969E-08  0.10566000000E+00  0.10566000000E+00 0. -1.
     999900   -1    0    0    0    0 -0.00000000000E+00 -0.00000000000E+00 -0.74505805969E-08  0.93827000000E+00  0.93827000000E+00 0.  1.
     999902    2    1    2    0    0  0.94714544985E-02  0.11924159621E-01  0.29225166219E-02  0.10284240290E+01  0.10283071274E+01 0.  0.
     999903    2    3    3    0    0 -0.12537151329E+00 -0.16718928023E-01 -0.26868178045E-01  0.13719423938E+00  0.45856530931E-01 0.  0.
         14    1    1    2    0    0 -0.94714544985E-02 -0.11924159621E-01 -0.29225166219E-02  0.15505970992E-01  0.00000000000E+00 0. -1.
     999901    1    3    3    0    0  0.13484296779E+00  0.28643087644E-01  0.29790694667E-01  0.89122978963E+00  0.88000000000E+00 0. -1.
        -11    1    4    4    0    0 -0.61430269202E-01 -0.19838106045E-02 -0.35547663371E-01  0.71003598295E-01  0.51100000000E-03 0. -1.
         11    1    4    4    0    0 -0.63941244088E-01 -0.14735117418E-01  0.86794853254E-02  0.66190641085E-01  0.51100000000E-03 0.  1.
</event>
<event>
 8    1  0.2077555E+004  0.1043930E+01  0.7957747E-01            NaN
         13   -1    0    0    0    0  0.00000000000E+00  0.00000000000E+00  0.74505805969E-08  0.10566000000E+00  0.10566000000E+00 0.  1.
     999900   -1    0    0    0    0 -0.00000000000E+00 -0.00000000000E+00 -0.74505805969E-08  0.93827000000E+00  0.93827000000E+00 0. -1.
     999902    2    1    2    0    0 -0.29968377191E-02  0.12259288950E-01  0.63774998989E-02  0.10297898548E+01  0.10296927703E+01 0.  0.
     999903    2    3    3    0    0  0.68926773226E-01  0.59074371700E-01  0.97709764658E-01  0.14091065018E+00  0.45474517761E-01 0.  0.
         14    1    1    2    0    0  0.29968377191E-02 -0.12259288950E-01 -0.63774998989E-02  0.14140145220E-01  0.00000000000E+00 0. -1.
     999901    1    3    3    0    0 -0.71923610945E-01 -0.46815082750E-01 -0.91332264759E-01  0.88887920460E+00  0.88000000000E+00 0. -1.
        -11    1    4    4    0    0  0.14612352083E-02  0.15421498634E-01  0.15227770635E-02  0.15573625122E-01  0.51100000000E-03 0.  1.
         11    1    4    4    0    0  0.67465538018E-01  0.43652873066E-01  0.96186987594E-01  0.12533702506E+00  0.51100000000E-03 0. -1.
</event>
<event>
 8    1  0.2077555E+004  0.1043930E+01  0.7957747E-01            NaN
         13   -1    0    0    0    0  0.00000000000E+00  0.00000000000E+00  0.74505805969E-08  0.10566000000E+00  0.10566000000E+00 0. -1.
     999900   -1    0    0    0    0 -0.00000000000E+00 -0.00000000000E+00 -0.74505805969E-08  0.93827000000E+00  0.93827000000E+00 0. -1.
     999902    2    1    2    0    0 -0.13451137738E-01  0.48856794277E-02 -0.10270685959E-02  0.10295822531E+01  0.10294822768E+01 0.  0.
     999903    2    3    3    0    0  0.46156283531E-01  0.12236422343E+00  0.19317984223E-01  0.13954395389E+00  0.44675774933E-01 0.  0.
         14    1    1    2    0    0  0.13451137738E-01 -0.48856794277E-02  0.10270685959E-02  0.14347746855E-01  0.00000000000E+00 0. -1.
     999901    1    3    3    0    0 -0.59607421270E-01 -0.11747854401E+00 -0.20345052818E-01  0.89003829926E+00  0.88000000000E+00 0. -1.
        -11    1    4    4    0    0  0.30493008039E-01  0.27703422263E-01 -0.20186503181E-02  0.41250929861E-01  0.51100000000E-03 0.  1.
         11    1    4    4    0    0  0.15663275493E-01  0.94660801171E-01  0.21336634541E-01  0.98293024025E-01  0.51100000000E-03 0. -1.
</event>
<event>
 8    1  0.2077555E+004  0.1043930E+01  0.7957747E-01            NaN
         13   -1    0    0    0    0  0.00000000000E+00  0.00000000000E+00  0.74505805969E-08  0.10566000000E+00  0.10566000000E+00 0.  1.
     999900   -1    0    0    0    0 -0.00000000000E+00 -0.00000000000E+00 -0.74505805969E-08  0.93827000000E+00  0.93827000000E+00 0. -1.
     999902    2    1    2    0    0  0.89179872893E-02  0.85961483543E-03 -0.11533750098E-01  0.10293253149E+01  0.10292216997E+01 0.  0.
     999903    2    3    3    0    0  0.10995784052E+00  0.21628536218E-01 -0.72941653635E-01  0.14117480366E+00  0.45291501218E-01 0.  0.
         14    1    1    2    0    0 -0.89179872893E-02 -0.85961483543E-03  0.11533750098E-01  0.14604685080E-01  0.00000000000E+00 0.  1.
     999901    1    3    3    0    0 -0.10103985323E+00 -0.20768921383E-01  0.61407903537E-01  0.88815051126E+00  0.88000000000E+00 0.  1.
        -11    1    4    4    0    0  0.97054754354E-01  0.20754473391E-01 -0.42255904979E-01  0.10787120160E+00  0.51100000000E-03 0. -1.
         11    1    4    4    0    0  0.12903086166E-01  0.87406282688E-03 -0.30685748656E-01  0.33303602057E-01  0.51100000000E-03 0.  1.
</event>
<event>
 8    1  0.2077555E+004  0.1043930E+01  0.7957747E-01            NaN
         13   -1    0    0    0    0  0.00000000000E+00  0.00000000000E+00  0.74505805969E-08  0.10566000000E+00  0.10566000000E+00 0. -1.
     999900   -1    0    0    0    0 -0.00000000000E+00 -0.00000000000E+00 -0.74505805969E-08  0.93827000000E+00  0.93827000000E+00 0. -1.
     999902    2    1    2    0    0  0.93323233296E-02  0.96702564582E-02 -0.31775783044E-02  0.10301204699E+01  0.10300279022E+01 0.  0.
     999903    2    3    3    0    0  0.71446387278E-01 -0.19994938468E-01 -0.11249011666E+00  0.14068952158E+00  0.40436756973E-01 0.  0.
         14    1    1    2    0    0 -0.93323233296E-02 -0.96702564582E-02  0.31775783044E-02  0.13809530136E-01  0.00000000000E+00 0. -1.
     999901    1    3    3    0    0 -0.62114063949E-01  0.29665194926E-01  0.10931253836E+00  0.88943094829E+00  0.88000000000E+00 0.  1.
        -11    1    4    4    0    0  0.74273258669E-01 -0.13225152722E-01 -0.92348487270E-01  0.11924733054E+00  0.51100000000E-03 0.  1.
         11    1    4    4    0    0 -0.28268713912E-02 -0.67697857460E-02 -0.20141629395E-01  0.21442191040E-01  0.51100000000E-03 0. -1.
</event>
<event>
 8    1  0.2077555E+004  0.1043930E+01  0.7957747E-01            NaN
         13   -1    0    0    0    0  0.00000000000E+00  0.00000000000E+00  0.74505805969E-08  0.10566000000E+00  0.10566000000E+00 0.  1.
     999900   -1    0    0    0    0 -0.00000000000E+00 -0.00000000000E+00 -0.74505805969E-08  0.93827000000E+00  0.93827000000E+00 0. -1.
     999902    2    1    2    0    0  0.14421586038E-02  0.92574893441E-02 -0.10262812848E-01  0.10300337322E+01  0.10299399901E+01 0.  0.
     999903    2    3    3    0    0  0.44522616430E-01 -0.10301192176E+00  0.67104404382E-01  0.13849235191E+00  0.45644397808E-01 0.  0.
         14    1    1    2    0    0 -0.14421586038E-02 -0.92574893441E-02  0.10262812848E-01  0.13896267770E-01  0.00000000000E+00 0. -1.
     999901    1    3    3    0    0 -0.43080457826E-01  0.11226941111E+00 -0.77367217230E-01  0.89154138032E+00  0.88000000000E+00 0. -1.
        -11    1    4    4    0    0  0.32410808505E-01 -0.24395355353E-01  0.14300557388E-01  0.43015821896E-01  0.51100000000E-03 0.  1.
         11    1    4    4    0    0  0.12111807925E-01 -0.78616566412E-01  0.52803846994E-01  0.95476530016E-01  0.51100000000E-03 0. -1.
</event>
<event>
 8    1  0.2077555E+004  0.1043930E+01  0.7957747E-01            NaN
         13   -1    0    0    0    0  0.00000000000E+00  0.00000000000E+00  0.74505805969E-08  0.10566000000E+00  0.10566000000E+00 0.  1.
     999900   -1    0    0    0    0 -0.00000000000E+00 -0.00000000000E+00 -0.74505805969E-08  0.93827000000E+00  0.93827000000E+00 0.  1.
     999902    2    1    2    0    0 -0.41050344705E-02 -0.57234079655E-03  0.13582998382E-01  0.10297287069E+01  0.10296307751E+01 0.  0.
     999903    2    3    3    0    0  0.88009438040E-02 -0.12152062514E-01 -0.12964443116E+00  0.13798056371E+00  0.44786473359E-01 0.  0.
         14    1    1    2    0    0  0.41050344705E-02  0.57234079655E-03 -0.13582998382E-01  0.14201293147E-01  0.00000000000E+00 0. -1.
     999901    1    3    3    0    0 -0.12905978275E-01  0.11579721718E-01  0.14322742954E+00  0.89174814315E+00  0.88000000000E+00 0. -1.
        -11    1    4    4    0    0  0.23562016237E-01 -0.11999057918E-02 -0.10258992756E+00  0.10526900181E+00  0.51100000000E-03 0. -1.
         11    1    4    4    0    0 -0.14761072433E-01 -0.10952156722E-01 -0.27054503592E-01  0.32711561899E-01  0.51100000000E-03 0.  1.
</event>
<event>
 8    1  0.2077555E+004  0.1043930E+01  0.7957747E-01            NaN
         13   -1    0    0    0    0  0.00000000000E+00  0.00000000000E+00  0.74505805969E-08  0.10566000000E+00  0.10566000000E+00 0. -1.
     999900   -1    0    0    0    0 -0.00000000000E+00 -0.00000000000E+00 -0.74505805969E-08  0.93827000000E+00  0.93827000000E+00 0.  1.
     999902    2    1    2    0    0  0.61220948473E-03  0.83165991978E-02 -0.90449802857E-02  0.10316274681E+01  0.10315541094E+01 0.  0.
     999903    2    3    3    0    0 -0.12713782691E+00 -0.36803489726E-01  0.17233036954E-01  0.14087136882E+00  0.45047098715E-01 0.  0.
         14    1    1    2    0    0 -0.61220948473E-03 -0.83165991978E-02  0.90449802857E-02  0.12302531895E-01  0.00000000000E+00 0. -1.
     999901    1    3    3    0    0  0.12775003640E+00  0.45120088924E-01 -0.26278017240E-01  0.89075609929E+00  0.88000000000E+00 0. -1.
        -11    1    4    4    0    0 -0.13525929351E-01 -0.19946324613E-01  0.89609906551E-02  0.25717058636E-01  0.51100000000E-03 0. -1.
         11    1    4    4    0    0 -0.11361189756E+00 -0.16857165114E-01  0.82720462991E-02  0.11515431018E+00  0.51100000000E-03 0.  1.
</event>
<event>
 8    1  0.2077555E+004  0.1043930E+01  0.7957747E-01            NaN
         13   -1    0    0    0    0  0.00000000000E+00  0.00000000000E+00  0.74505805969E-08  0.10566000000E+00  0.10566000000E+00 0.  1.
     999900   -1    0    0    0    0 -0.00000000000E+00 -0.00000000000E+00 -0.74505805969E-08  0.93827000000E+00  0.93827000000E+00 0.  1.
     999902    2    1    2    0    0  0.11684965313E-01  0.67930003622E-02 -0.24164034052E-02  0.10301996586E+01  0.10301081567E+01 0.  0.
     999903    2    3    3    0    0 -0.77744708311E-01 -0.10675082756E+00  0.11762438267E-01  0.13829668918E+00  0.39340061391E-01 0.  0.
         14    1    1    2    0    0 -0.11684965313E-01 -0.67930003622E-02  0.24164034052E-02  0.13730341354E-01  0.00000000000E+00 0. -1.
     999901    1    3    3    0    0  0.89429673623E-01  0.11354382792E+00 -0.14178841672E-01  0.89190296946E+00  0.88000000000E+00 0.  1.
        -11    1    4    4    0    0 -0.56472132892E-02 -0.33569058605E-01  0.10247585277E-01  0.35553436382E-01  0.51100000000E-03 0.  1.
         11    1    4    4    0    0 -0.72097495022E-01 -0.73181768955E-01  0.15148529895E-02  0.10274325280E+00  0.51100000000E-03 0. -1.
</event>
<event>
 8    1  0.2077555E+004  0.1043930E+01  0.7957747E-01            NaN
         13   -1    0    0    0    0  0.00000000000E+00  0.00000000000E+00  0.74505805969E-08  0.10566000000E+00  0.10566000000E+00 0. -1.
     999900   -1    0    0    0    0 -0.00000000000E+00 -0.00000000000E+00 -0.74505805969E-08  0.93827000000E+00  0.93827000000E+00 0. -1.
     999902    2    1    2    0    0  0.84893730992E-02 -0.82409318386E-02  0.72140908206E-02  0.10300726727E+01  0.10299794588E+01 0.  0.
     999903    2    3    3    0    0  0.39505990528E-01 -0.64133758960E-01  0.11120131466E+00  0.14164744716E+00  0.44993383710E-01 0.  0.
         14    1    1    2    0    0 -0.84893730992E-02  0.82409318386E-02 -0.72140908206E-02  0.13857327288E-01  0.00000000000E+00 0.  1.
     999901    1    3    3    0    0 -0.31016617428E-01  0.55892827122E-01 -0.10398722384E+00  0.88842522556E+00  0.88000000000E+00 0. -1.
        -11    1    4    4    0    0  0.24025751845E-01 -0.58511575041E-01  0.10754695314E+00  0.12476958530E+00  0.51100000000E-03 0.  1.
         11    1    4    4    0    0  0.15480238682E-01 -0.56221839196E-02  0.36543615214E-02  0.16877861856E-01  0.51100000000E-03 0. -1.
</event>
<event>
 8    1  0.2152981E+004  0.1043930E+01  0.7957747E-01            NaN
         13   -1    0    0    0    0  0.00000000000E+00  0.00000000000E+00  0.74505805969E-08  0.10566000000E+00  0.10566000000E+00 0. -1.
     999900   -1    0    0    0    0 -0.00000000000E+00 -0.00000000000E+00 -0.74505805969E-08  0.93827000000E+00  0.93827000000E+00 0. -1.
     999902    2    1    2    0    0  0.30117237807E-02 -0.16625140403E-01 -0.82910087678E-03  0.10270139372E+01  0.10268746145E+01 0.  0.
     999903    2    3    3    0    0  0.21581778733E-01  0.10399088871E+00 -0.67101231537E-01  0.13612389416E+00  0.52414322278E-01 0.  0.
         14    1    1    2    0    0 -0.30117237807E-02  0.16625140403E-01  0.82910087678E-03  0.16916062834E-01  0.00000000000E+00 0. -1.
     999901    1    3    3    0    0 -0.18570054952E-01 -0.12061602911E+00  0.66272130660E-01  0.89089004300E+00  0.88000000000E+00 0.  1.
        -11    1    4    4    0    0 -0.14915296972E-01  0.41595174035E-01 -0.13753087988E-01  0.46282103852E-01  0.51100000000E-03 0.  1.
         11    1    4    4    0    0  0.36497075705E-01  0.62395714676E-01 -0.53348143549E-01  0.89841790310E-01  0.51100000000E-03 0. -1.
</event>
<event>
 8    1  0.2077555E+004  0.1043930E+01  0.7957747E-01            NaN
         13   -1    0    0    0    0  0.00000000000E+00  0.00000000000E+00  0.74505805969E-08  0.10566000000E+00  0.10566000000E+00 0. -1.
     999900   -1    0    0    0    0 -0.00000000000E+00 -0.00000000000E+00 -0.74505805969E-08  0.93827000000E+00  0.93827000000E+00 0.  1.
     999902    2    1    2    0    0 -0.45825725570E-02  0.11383571837E-01  0.38957595295E-02  0.10310551166E+01  0.10309747286E+01 0.  0.
     999903    2    3    3    0    0 -0.12858040277E+00  0.13969606768E-01 -0.35013021792E-01  0.14150689270E+00  0.45499660401E-01 0.  0.
         14    1    1    2    0    0  0.45825725570E-02 -0.11383571837E-01 -0.38957595295E-02  0.12874883352E-01  0.00000000000E+00 0. -1.
     999901    1    3    3    0    0  0.12399783021E+00 -0.25860349310E-02  0.38908781322E-01  0.88954822395E+00  0.88000000000E+00 0. -1.
        -11    1    4    4    0    0 -0.21315407992E-01  0.18183821421E-01  0.16467972253E-02  0.28070821887E-01  0.51100000000E-03 0.  1.
         11    1    4    4    0    0 -0.10726499477E+00 -0.42142146528E-02 -0.36659819017E-01  0.11343607081E+00  0.51100000000E-03 0. -1.
</event>
<event>
 8    1  0.2077555E+004  0.1043930E+01  0.7957747E-01            NaN
         13   -1    0    0    0    0  0.00000000000E+00  0.00000000000E+00  0.74505805969E-08  0.10566000000E+00  0.10566000000E+00 0. -1.
     999900   -1    0    0    0    0 -0.00000000000E+00 -0.00000000000E+00 -0.74505805969E-08  0.93827000000E+00  0.93827000000E+00 0.  1.
     999902    2    1    2    0    0 -0.42513190706E-02 -0.93302182379E-02 -0.95144343617E-02  0.10299424646E+01  0.10298474786E+01 0.  0.
     999903    2    3    3    0    0  0.84079926189E-01  0.68441660895E-01  0.72408568081E-01  0.13833590762E+00  0.46261513921E-01 0.  0.
         14    1    1    2    0    0  0.42513190706E-02  0.93302182379E-02  0.95144343617E-02  0.13987535431E-01  0.00000000000E+00 0. -1.
     999901    1    3    3    0    0 -0.88331245260E-01 -0.77771879132E-01 -0.81923002443E-01  0.89160655695E+00  0.88000000000E+00 0.  1.
        -11    1    4    4    0    0  0.13421167511E-02  0.23334877213E-01  0.10839875545E-01  0.25769784531E-01  0.51100000000E-03 0. -1.
         11    1    4    4    0    0  0.82737809438E-01  0.45106783681E-01  0.61568692537E-01  0.11256612309E+00  0.51100000000E-03 0.  1.
</event>
<event>
 8    1  0.2255689E+004  0.1043930E+01  0.7957747E-01            NaN
         13   -1    0    0    0    0  0.00000000000E+00  0.00000000000E+00  0.74505805969E-08  0.10566000000E+00  0.10566000000E+00 0. -1.
     999900   -1    0    0    0    0 -0.00000000000E+00 -0.00000000000E+00 -0.74505805969E-08  0.93827000000E+00  0.93827000000E+00 0.  1.
     999902    2    1    2    0    0 -0.16289024023E-01 -0.10590408805E-01  0.38336081498E-02  0.10241263232E+01  0.10239348321E+01 0.  0.
     999903    2    3    3    0    0  0.21768403143E-01  0.12308666676E+00 -0.35280282823E-02  0.13318742410E+00  0.45850322195E-01 0.  0.
         14    1    1    2    0    0  0.16289024023E-01  0.10590408805E-01 -0.38336081498E-02  0.19803676773E-01  0.00000000000E+00 0. -1.
     999901    1    3    3    0    0 -0.38057427166E-01 -0.13367707556E+00  0.73616364321E-02  0.89093889913E+00  0.88000000000E+00 0.  1.
        -11    1    4    4    0    0 -0.14355393166E-01  0.41306361248E-01 -0.15918888045E-02  0.43761718699E-01  0.51100000000E-03 0. -1.
         11    1    4    4    0    0  0.36123796309E-01  0.81780305508E-01 -0.19361394778E-02  0.89425705398E-01  0.51100000000E-03 0.  1.
</event>
<event>
 8    1  0.2077555E+004  0.1043930E+01  0.7957747E-01            NaN
         13   -1    0    0    0    0  0.00000000000E+00  0.00000000000E+00  0.74505805969E-08  0.10566000000E+00  0.10566000000E+00 0. -1.
     999900   -1    0    0    0    0 -0.00000000000E+00 -0.00000000000E+00 -0.74505805969E-08  0.93827000000E+00  0.93827000000E+00 0.  1.
     999902    2    1    2    0    0  0.70361067146E-02  0.55951005322E-02  0.11355745619E-01  0.10294467370E+01  0.10293448496E+01 0.  0.
     999903    2    3    3    0    0  0.10495276998E+00 -0.80827415258E-01 -0.65269475289E-02  0.13962860118E+00  0.43650775912E-01 0.  0.
         14    1    1    2    0    0 -0.70361067146E-02 -0.55951005322E-02 -0.11355745619E-01  0.14483262969E-01  0.00000000000E+00 0.  1.
     999901    1    3    3    0    0 -0.97916663270E-01  0.86422515790E-01  0.17882693148E-01  0.88981813585E+00  0.88000000000E+00 0.  1.
        -11    1    4    4    0    0  0.42507788067E-01 -0.17795273031E-01  0.14744236668E-01  0.48386335101E-01  0.51100000000E-03 0. -1.
         11    1    4    4    0    0  0.62444981918E-01 -0.63032142227E-01 -0.21271184197E-01  0.91242266075E-01  0.51100000000E-03 0.  1.
</event>
<event>
 8    1  0.2077555E+004  0.1043930E+01  0.7957747E-01            NaN
         13   -1    0    0    0    0  0.00000000000E+00  0.00000000000E+00  0.74505805969E-08  0.10566000000E+00  0.10566000000E+00 0.  1.
     999900   -1    0    0    0    0 -0.00000000000E+00 -0.00000000000E+00 -0.74505805969E-08  0.93827000000E+00  0.93827000000E+00 0. -1.
     999902    2    1    2    0    0 -0.10479797841E-01  0.17425108107E-02  0.43333239276E-02  0.10324565435E+01  0.10323927906E+01 0.  0.
     999903    2    3    3    0    0  0.54210654798E-01 -0.14038877584E-01 -0.12078152988E+00  0.14111618570E+00  0.46794387793E-01 0.  0.
         14    1    1    2    0    0  0.10479797841E-01 -0.17425108107E-02 -0.43333239276E-02  0.11473456453E-01  0.00000000000E+00 0.  1.
     999901    1    3    3    0    0 -0.64690452639E-01  0.15781388394E-01  0.12511485381E+00  0.89134035785E+00  0.88000000000E+00 0.  1.
        -11    1    4    4    0    0  0.31600304089E-01 -0.16629322530E-01 -0.27434602228E-01  0.45033677473E-01  0.51100000000E-03 0.  1.
         11    1    4    4    0    0  0.22610350710E-01  0.25904449461E-02 -0.93346927653E-01  0.96082508228E-01  0.51100000000E-03 0. -1.
</event>
<event>
 8    1  0.2077555E+004  0.1043930E+01  0.7957747E-01            NaN
         13   -1    0    0    0    0  0.00000000000E+00  0.00000000000E+00  0.74505805969E-08  0.10566000000E+00  0.10566000000E+00 0. -1.
     999900   -1    0    0    0    0 -0.00000000000E+00 -0.00000000000E+00 -0.74505805969E-08  0.93827000000E+00  0.93827000000E+00 0. -1.
     999902    2    1    2    0    0  0.28732026809E-02 -0.46523591266E-02  0.11938833328E-01  0.10307985309E+01  0.10307148858E+01 0.  0.
     999903    2    3    3    0    0  0.94836476115E-01 -0.72455054948E-01  0.62651346611E-01  0.14196434603E+00  0.44553250402E-01 0.  0.
         14    1    1    2    0    0 -0.28732026809E-02  0.46523591266E-02 -0.11938833328E-01  0.13131469085E-01  0.00000000000E+00 0.  1.
     999901    1    3    3    0    0 -0.91963273435E-01  0.67802695821E-01 -0.50712513283E-01  0.88883418489E+00  0.88000000000E+00 0. -1.
        -11    1    4    4    0    0  0.54906030339E-01 -0.30107048716E-01  0.54832712928E-01  0.83234572612E-01  0.51100000000E-03 0.  1.
         11    1    4    4    0    0  0.39930445776E-01 -0.42348006232E-01  0.78186336837E-02  0.58729773415E-01  0.51100000000E-03 0. -1.
</event>
<event>
 8    1  0.2077555E+004  0.1043930E+01  0.7957747E-01            NaN
         13   -1    0    0    0    0  0.00000000000E+00  0.00000000000E+00  0.74505805969E-08  0.10566000000E+00  0.10566000000E+00 0. -1.
     999900   -1    0    0    0    0 -0.00000000000E+00 -0.00000000000E+00 -0.74505805969E-08  0.93827000000E+00  0.93827000000E+00 0. -1.
     999902    2    1    2    0    0  0.10181502029E-01 -0.56690857927E-02  0.78864646028E-02  0.10298588294E+01  0.10297626963E+01 0.  0.
     999903    2    3    3    0    0 -0.94585654820E-01  0.79081631763E-01  0.45244636472E-01  0.13881759902E+00  0.44976639365E-01 0.  0.
         14    1    1    2    0    0 -0.10181502029E-01  0.56690857927E-02 -0.78864646028E-02  0.14071170571E-01  0.00000000000E+00 0. -1.
     999901    1    3    3    0    0  0.10476715685E+00 -0.84750717556E-01 -0.37358171869E-01  0.89104123041E+00  0.88000000000E+00 0.  1.
        -11    1    4    4    0    0 -0.80538902820E-01  0.45184917116E-01  0.20614270747E-01  0.94622412153E-01  0.51100000000E-03 0. -1.
         11    1    4    4    0    0 -0.14046752001E-01  0.33896714647E-01  0.24630365725E-01  0.44195186869E-01  0.51100000000E-03 0.  1.
</event>
<event>
 8    1  0.2077555E+004  0.1043930E+01  0.7957747E-01            NaN
         13   -1    0    0    0    0  0.00000000000E+00  0.00000000000E+00  0.74505805969E-08  0.10566000000E+00  0.10566000000E+00 0.  1.
     999900   -1    0    0    0    0 -0.00000000000E+00 -0.00000000000E+00 -0.74505805969E-08  0.93827000000E+00  0.93827000000E+00 0.  1.
     999902    2    1    2    0    0  0.99226191958E-02 -0.23168280058E-02  0.10716049399E-01  0.10291428509E+01  0.10290366115E+01 0.  0.
     999903    2    3    3    0    0  0.23596748829E-01 -0.11457883349E-01 -0.12775760840E+00  0.13816277558E+00  0.45594477803E-01 0.  0.
         14    1    1    2    0    0 -0.99226191958E-02  0.23168280058E-02 -0.10716049399E-01  0.14787149098E-01  0.00000000000E+00 0. -1.
     999901    1    3    3    0    0 -0.13674129633E-01  0.91410553429E-02  0.13847365780E+00  0.89098007532E+00  0.88000000000E+00 0. -1.
        -11    1    4    4    0    0  0.33408329449E-01  0.36626690745E-02 -0.69924771894E-01  0.77583931756E-01  0.51100000000E-03 0.  1.
         11    1    4    4    0    0 -0.98115806202E-02 -0.15120552423E-01 -0.57832836507E-01  0.60578843826E-01  0.51100000000E-03 0. -1.
</event>
<event>
 8    1  0.2077555E+004  0.1043930E+01  0.7957747E-01            NaN
         13   -1    0    0    0    0  0.00000000000E+00  0.00000000000E+00  0.74505805969E-08  0.10566000000E+00  0.10566000000E+00 0.  1.
     999900   -1    0    0    0    0 -0.00000000000E+00 -0.00000000000E+00 -0.74505805969E-08  0.93827000000E+00  0.93827000000E+00 0.  1.
     999902    2    1    2    0    0 -0.44564019800E-04  0.84767591581E-02  0.11568744946E-01  0.10295879886E+01  0.10294880927E+01 0.  0.
     999903    2    3    3    0    0 -0.38285590089E-02 -0.95130098324E-01  0.92035948169E-01  0.13985562977E+00  0.44995421444E-01 0.  0.
         14    1    1    2    0    0  0.44564019800E-04 -0.84767591581E-02 -0.11568744946E-01  0.14342011414E-01  0.00000000000E+00 0. -1.
     999901    1    3    3    0    0  0.37839949891E-02  0.10360685748E+00 -0.80467203223E-01  0.88973235882E+00  0.88000000000E+00 0. -1.
        -11    1    4    4    0    0 -0.21916231499E-01 -0.28934337967E-01  0.26304796903E-01  0.44829907181E-01  0.51100000000E-03 0.  1.
         11    1    4    4    0    0  0.18087672490E-01 -0.66195760358E-01  0.65731151265E-01  0.95025722586E-01  0.51100000000E-03 0. -1.
</event>
<event>
 8    1  0.2077555E+004  0.1043930E+01  0.7957747E-01            NaN
         13   -1    0    0    0    0  0.00000000000E+00  0.00000000000E+00  0.74505805969E-08  0.10566000000E+00  0.10566000000E+00 0. -1.
     999900   -1    0    0    0    0 -0.00000000000E+00 -0.00000000000E+00 -0.74505805969E-08  0.93827000000E+00  0.93827000000E+00 0.  1.
     999902    2    1    2    0    0 -0.40902376902E-02  0.36848218671E-02  0.13065021093E-01  0.10297524567E+01  0.10296548545E+01 0.  0.
     999903    2    3    3    0    0 -0.61518667636E-01 -0.56841544243E-01  0.10406776078E+00  0.14113388605E+00  0.45532047378E-01 0.  0.
         14    1    1    2    0    0  0.40902376902E-02 -0.36848218671E-02 -0.13065021093E-01  0.14177543254E-01  0.00000000000E+00 0.  1.
     999901    1    3    3    0    0  0.57428429946E-01  0.60526366110E-01 -0.91002739682E-01  0.88861857070E+00  0.88000000000E+00 0.  1.
        -11    1    4    4    0    0 -0.32077798709E-01 -0.40090286875E-02  0.52470890138E-01  0.61632076988E-01  0.51100000000E-03 0.  1.
         11    1    4    4    0    0 -0.29440868927E-01 -0.52832515556E-01  0.51596870638E-01  0.79501809059E-01  0.51100000000E-03 0. -1.
</event>
<event>
 8    1  0.2077555E+004  0.1043930E+01  0.7957747E-01            NaN
         13   -1    0    0    0    0  0.00000000000E+00  0.00000000000E+00  0.74505805969E-08  0.10566000000E+00  0.10566000000E+00 0.  1.
     999900   -1    0    0    0    0 -0.00000000000E+00 -0.00000000000E+00 -0.74505805969E-08  0.93827000000E+00  0.93827000000E+00 0.  1.
     999902    2    1    2    0    0 -0.50725986973E-02 -0.71654876407E-03  0.11823559252E-01  0.10310443004E+01  0.10309637764E+01 0.  0.
     999903    2    3    3    0    0  0.12307365071E+00 -0.49176244817E-01  0.12847234558E-01  0.14044290179E+00  0.44651211341E-01 0.  0.
         14    1    1    2    0    0  0.50725986973E-02  0.71654876407E-03 -0.11823559252E-01  0.12885699557E-01  0.00000000000E+00 0. -1.
     999901    1    3    3    0    0 -0.12814624940E+00  0.48459696053E-01 -0.10236753060E-02  0.89060139866E+00  0.88000000000E+00 0. -1.
        -11    1    4    4    0    0  0.37766896743E-01 -0.37143431485E-01  0.11856238555E-01  0.54284477577E-01  0.51100000000E-03 0. -1.
         11    1    4    4    0    0  0.85306753962E-01 -0.12032813332E-01  0.99099600309E-03  0.86158424210E-01  0.51100000000E-03 0.  1.
</event>
<event>
 8    1  0.2077555E+004  0.1043930E+01  0.7957747E-01            NaN
         13   -1    0    0    0    0  0.00000000000E+00  0.00000000000E+00  0.74505805969E-08  0.10566000000E+00  0.10566000000E+00 0. -1.
     999900   -1    0    0    0    0 -0.00000000000E+00 -0.00000000000E+00 -0.74505805969E-08  0.93827000000E+00  0.93827000000E+00 0.  1.
     999902    2    1    2    0    0  0.80373385112E-02 -0.11096021695E-01 -0.15443554064E-02  0.10301421234E+01  0.10300498477E+01 0.  0.
     999903    2    3    3    0    0  0.66228664906E-01  0.64652878053E-01 -0.95145347142E-01  0.14003804412E+00  0.44629429999E-01 0.  0.
         14    1    1    2    0    0 -0.80373385112E-02  0.11096021695E-01  0.15443554064E-02  0.13787876611E-01  0.00000000000E+00 0.  1.
     999901    1    3    3    0    0 -0.58191326395E-01 -0.75748899748E-01  0.93600991736E-01  0.89010407927E+00  0.88000000000E+00 0. -1.
        -11    1    4    4    0    0  0.39447988091E-01  0.44868758078E-01 -0.87366159974E-01  0.10584165648E+00  0.51100000000E-03 0.  1.
         11    1    4    4    0    0  0.26780676814E-01  0.19784119975E-01 -0.77791871682E-02  0.34196387643E-01  0.51100000000E-03 0. -1.
</event>
<event>
 8    1  0.2077555E+004  0.1043930E+01  0.7957747E-01            NaN
         13   -1    0    0    0    0  0.00000000000E+00  0.00000000000E+00  0.74505805969E-08  0.10566000000E+00  0.10566000000E+00 0.  1.
     999900   -1    0    0    0    0 -0.00000000000E+00 -0.00000000000E+00 -0.74505805969E-08  0.93827000000E+00  0.93827000000E+00 0. -1.
     999902    2    1    2    0    0  0.11129529225E-01  0.80719008729E-02  0.18363300772E-02  0.10300593795E+01  0.10299659855E+01 0.  0.
     999903    2    3    3    0    0 -0.72652707266E-01 -0.10562699217E+00 -0.27282760171E-01  0.13832240997E+00  0.44195732271E-01 0.  0.
         14    1    1    2    0    0 -0.11129529225E-01 -0.80719008729E-02 -0.18363300772E-02  0.13870620484E-01  0.00000000000E+00 0. -1.
     999901    1    3    3    0    0  0.83782236491E-01  0.11369889304E+00  0.29119090248E-01  0.89173696954E+00  0.88000000000E+00 0.  1.
        -11    1    4    4    0    0 -0.13848453279E-01 -0.48049994876E-01 -0.25192870847E-01  0.55995745627E-01  0.51100000000E-03 0. -1.
         11    1    4    4    0    0 -0.58804253987E-01 -0.57576997292E-01 -0.20898893234E-02  0.82326664347E-01  0.51100000000E-03 0.  1.
</event>
<event>
 8    1  0.2077555E+004  0.1043930E+01  0.7957747E-01            NaN
         13   -1    0    0    0    0  0.00000000000E+00  0.00000000000E+00  0.74505805969E-08  0.10566000000E+00  0.10566000000E+00 0.  1.
     999900   -1    0    0    0    0 -0.00000000000E+00 -0.00000000000E+00 -0.74505805969E-08  0.93827000000E+00  0.93827000000E+00 0.  1.
     999902    2    1    2    0    0 -0.12460709399E-01 -0.57717919194E-02 -0.25585037793E-02  0.10299611489E+01  0.10298664182E+01 0.  0.
     999903    2    3    3    0    0  0.89024167947E-02  0.95604780743E-01 -0.91080842501E-01  0.13947263287E+00  0.44015546391E-01 0.  0.
         14    1    1    2    0    0  0.12460709399E-01  0.57717919194E-02  0.25585037793E-02  0.13968851144E-01  0.00000000000E+00 0. -1.
     999901    1    3    3    0    0 -0.21363126194E-01 -0.10137657266E+00  0.88522338722E-01  0.89048851598E+00  0.88000000000E+00 0. -1.
        -11    1    4    4    0    0 -0.14167007718E-01  0.31729654489E-01 -0.16082523676E-01  0.38293390689E-01  0.51100000000E-03 0. -1.
         11    1    4    4    0    0  0.23069424513E-01  0.63875126254E-01 -0.74998318825E-01  0.10117924218E+00  0.51100000000E-03 0.  1.
</event>
<event>
 8    1  0.2077555E+004  0.1043930E+01  0.7957747E-01            NaN
         13   -1    0    0    0    0  0.00000000000E+00  0.00000000000E+00  0.74505805969E-08  0.10566000000E+00  0.10566000000E+00 0.  1.
     999900   -1    0    0    0    0 -0.00000000000E+00 -0.00000000000E+00 -0.74505805969E-08  0.93827000000E+00  0.93827000000E+00 0. -1.
     999902    2    1    2    0    0 -0.52720007621E-02 -0.11053028243E-01  0.57422616021E-02  0.10304045797E+01  0.10303158064E+01 0.  0.
     999903    2    3    3    0    0  0.46378748892E-01  0.72146235118E-01  0.10075168962E+00  0.13988972371E+00  0.45411058668E-01 0.  0.
         14    1    1    2    0    0  0.52720007621E-02  0.11053028243E-01 -0.57422616021E-02  0.13525420277E-01  0.00000000000E+00 0. -1.
     999901    1    3    3    0    0 -0.51650749654E-01 -0.83199263361E-01 -0.95009428014E-01  0.89051485601E+00  0.88000000000E+00 0. -1.
        -11    1    4    4    0    0  0.85435047889E-02  0.47184233321E-01  0.32404295405E-01  0.57876098952E-01  0.51100000000E-03 0.  1.
         11    1    4    4    0    0  0.37835244103E-01  0.24962001798E-01  0.68347394210E-01  0.82013624761E-01  0.51100000000E-03 0. -1.
</event>
<event>
 8    1  0.2077555E+004  0.1043930E+01  0.7957747E-01            NaN
         13   -1    0    0    0    0  0.00000000000E+00  0.00000000000E+00  0.74505805969E-08  0.10566000000E+00  0.10566000000E+00 0.  1.
     999900   -1    0    0    0    0 -0.00000000000E+00 -0.00000000000E+00 -0.74505805969E-08  0.93827000000E+00  0.93827000000E+00 0. -1.
     999902    2    1    2    0    0 -0.92492935517E-02  0.51896379427E-02 -0.75385960373E-02  0.10309179977E+01  0.10308358772E+01 0.  0.
     999903    2    3    3    0    0 -0.94911795341E-01  0.95770600280E-01  0.15398509997E-02  0.14208427134E+00  0.44780712897E-01 0.  0.
         14    1    1    2    0    0  0.92492935517E-02 -0.51896379427E-02  0.75385960373E-02  0.13012002282E-01  0.00000000000E+00 0. -1.
     999901    1    3    3    0    0  0.85662501789E-01 -0.90580962337E-01 -0.90784470370E-02  0.88883372638E+00  0.88000000000E+00 0.  1.
        -11    1    4    4    0    0 -0.80054296831E-01  0.77899457559E-01  0.18613175345E-01  0.11324189749E+00  0.51100000000E-03 0. -1.
         11    1    4    4    0    0 -0.14857498510E-01  0.17871142721E-01 -0.17073324345E-01  0.28842373850E-01  0.51100000000E-03 0.  1.
</event>
<event>
 8    1  0.2077555E+004  0.1043930E+01  0.7957747E-01            NaN
         13   -1    0    0    0    0  0.00000000000E+00  0.00000000000E+00  0.74505805969E-08  0.10566000000E+00  0.10566000000E+00 0. -1.
     999900   -1    0    0    0    0 -0.00000000000E+00 -0.00000000000E+00 -0.74505805969E-08  0.93827000000E+00  0.93827000000E+00 0.  1.
     999902    2    1    2    0    0 -0.14000289853E-02 -0.58781255781E-02 -0.71949943660E-02  0.10345342358E+01  0.10344915682E+01 0.  0.
     999903    2    3    3    0    0  0.39303318755E-01  0.57600725888E-01  0.11613443816E+00  0.14274027076E+00  0.44999807576E-01 0.  0.
         14    1    1    2    0    0  0.14000289853E-02  0.58781255781E-02  0.71949943660E-02  0.93957642264E-02  0.00000000000E+00 0. -1.
     999901    1    3    3    0    0 -0.40703347740E-01 -0.63478851466E-01 -0.12332943253E+00  0.89179396501E+00  0.88000000000E+00 0.  1.
        -11    1    4    4    0    0  0.21684098523E-01  0.14341457855E-03  0.42303994219E-01  0.47540611527E-01  0.51100000000E-03 0.  1.
         11    1    4    4    0    0  0.17619220231E-01  0.57457311309E-01  0.73830443946E-01  0.95199659236E-01  0.51100000000E-03 0. -1.
</event>
<event>
 8    1  0.2077555E+004  0.1043930E+01  0.7957747E-01            NaN
         13   -1    0    0    0    0  0.00000000000E+00  0.00000000000E+00  0.74505805969E-08  0.10566000000E+00  0.10566000000E+00 0. -1.
     999900   -1    0    0    0    0 -0.00000000000E+00 -0.00000000000E+00 -0.74505805969E-08  0.93827000000E+00  0.93827000000E+00 0.  1.
     999902    2    1    2    0    0  0.58945382943E-02 -0.14304445832E-01  0.53634913681E-02  0.10275553308E+01  0.10274248527E+01 0.  0.
     999903    2    3    3    0    0  0.28084346722E-01 -0.39859990318E-01 -0.12082118643E+00  0.13791043176E+00  0.45210383098E-01 0.  0.
         14    1    1    2    0    0 -0.58945382943E-02  0.14304445832E-01 -0.53634913681E-02  0.16374669215E-01  0.00000000000E+00 0. -1.
     999901    1    3    3    0    0 -0.22189808427E-01  0.25555544487E-01  0.12618467779E+00  0.88964489903E+00  0.88000000000E+00 0. -1.
        -11    1    4    4    0    0  0.26001477372E-01 -0.31533964264E-01 -0.12250954055E+00  0.12914842769E+00  0.51100000000E-03 0.  1.
         11    1    4    4    0    0  0.20828693492E-02 -0.83260260545E-02  0.16883541295E-02  0.87620040660E-02  0.51100000000E-03 0. -1.
</event>
<event>
 6    1  0.2162994E+004  0.1043930E+01  0.7957747E-01            NaN
         13   -1    0    0    0    0  0.00000000000E+00  0.00000000000E+00  0.74505805969E-08  0.10566000000E+00  0.10566000000E+00 0. -1.
     999900   -1    0    0    0    0 -0.00000000000E+00 -0.00000000000E+00 -0.74505805969E-08  0.93827000000E+00  0.93827000000E+00 0.  1.
         14    1    1    2    0    0  0.57711874226E-02 -0.26940276390E-01 -0.12115750505E-01  0.30097782419E-01  0.00000000000E+00 0.  1.
     999901    1    1    2    0    0 -0.45904768925E-01 -0.89927558515E-01 -0.13348176509E-01  0.88587379880E+00  0.88000000000E+00 0. -1.
        -11    1    1    2    0    0  0.35021399932E-01  0.72265459467E-01  0.19750180183E-01  0.82699007391E-01  0.51100000000E-03 0.  1.
         11    1    1    2    0    0  0.51121815705E-02  0.44602375438E-01  0.57137468306E-02  0.45259411386E-01  0.51100000000E-03 0. -1.
</event>
<event>
 8    1  0.2077555E+004  0.1043930E+01  0.7957747E-01            NaN
         13   -1    0    0    0    0  0.00000000000E+00  0.00000000000E+00  0.74505805969E-08  0.10566000000E+00  0.10566000000E+00 0. -1.
     999900   -1    0    0    0    0 -0.00000000000E+00 -0.00000000000E+00 -0.74505805969E-08  0.93827000000E+00  0.93827000000E+00 0. -1.
     999902    2    1    2    0    0  0.53109956353E-02  0.27368727201E-02  0.11776366492E-01  0.10307246998E+01  0.10306401053E+01 0.  0.
     999903    2    3    3    0    0  0.78540303108E-01 -0.10913657319E+00  0.98809660122E-03  0.14055921730E+00  0.40945651959E-01 0.  0.
         14    1    1    2    0    0 -0.53109956353E-02 -0.27368727201E-02 -0.11776366492E-01  0.13205300249E-01  0.00000000000E+00 0.  1.
     999901    1    3    3    0    0 -0.73229307472E-01  0.11187344591E+00  0.10788269891E-01  0.89016548245E+00  0.88000000000E+00 0. -1.
        -11    1    4    4    0    0  0.26576541937E-01 -0.14424137174E-01 -0.10277130506E-01  0.31941334459E-01  0.51100000000E-03 0. -1.
         11    1    4    4    0    0  0.51963761170E-01 -0.94712436015E-01  0.11265227107E-01  0.10861788284E+00  0.51100000000E-03 0.  1.
</event>
<event>
 8    1  0.2077555E+004  0.1043930E+01  0.7957747E-01            NaN
         13   -1    0    0    0    0  0.00000000000E+00  0.00000000000E+00  0.74505805969E-08  0.10566000000E+00  0.10566000000E+00 0. -1.
     999900   -1    0    0    0    0 -0.00000000000E+00 -0.00000000000E+00 -0.74505805969E-08  0.93827000000E+00  0.93827000000E+00 0.  1.
     999902    2    1    2    0    0  0.81854328659E-02 -0.47492830547E-02 -0.10913169361E-01  0.10294851301E+01  0.10293837860E+01 0.  0.
     999903    2    3    3    0    0  0.85714192958E-02  0.41515527071E-01 -0.12628450007E+00  0.14074944072E+00  0.45449113181E-01 0.  0.
         14    1    1    2    0    0 -0.81854328659E-02  0.47492830547E-02  0.10913169361E-01  0.14444869894E-01  0.00000000000E+00 0. -1.
     999901    1    3    3    0    0 -0.38598642988E-03 -0.46264810126E-01  0.11537133071E+00  0.88873568939E+00  0.88000000000E+00 0. -1.
        -11    1    4    4    0    0  0.69149897375E-02 -0.22305532892E-02 -0.65146946559E-01  0.65552865826E-01  0.51100000000E-03 0. -1.
         11    1    4    4    0    0  0.16564295583E-02  0.43746080360E-01 -0.61137553507E-01  0.75196574893E-01  0.51100000000E-03 0.  1.
</event>
<event>
 8    1  0.2077555E+004  0.1043930E+01  0.7957747E-01            NaN
         13   -1    0    0    0    0  0.00000000000E+00  0.00000000000E+00  0.74505805969E-08  0.10566000000E+00  0.10566000000E+00 0.  1.
     999900   -1    0    0    0    0 -0.00000000000E+00 -0.00000000000E+00 -0.74505805969E-08  0.93827000000E+00  0.93827000000E+00 0. -1.
     999902    2    1    2    0    0 -0.95920700243E-02 -0.54640730917E-02 -0.78706420030E-02  0.10303723119E+01  0.10302831116E+01 0.  0.
     999903    2    3    3    0    0 -0.98143193143E-01  0.33039296367E-01 -0.85561555968E-01  0.14168806592E+00  0.45067135487E-01 0.  0.
         14    1    1    2    0    0  0.95920700243E-02  0.54640730917E-02  0.78706420030E-02  0.13557688138E-01  0.00000000000E+00 0.  1.
     999901    1    3    3    0    0  0.88551123118E-01 -0.38503369459E-01  0.77690913966E-01  0.88868424594E+00  0.88000000000E+00 0.  1.
        -11    1    4    4    0    0 -0.36957526311E-01 -0.34954636113E-02 -0.49335144581E-01  0.61743782106E-01  0.51100000000E-03 0. -1.
         11    1    4    4    0    0 -0.61185666832E-01  0.36534759978E-01 -0.36226411388E-01  0.79944283819E-01  0.51100000000E-03 0.  1.
</event>
<event>
 8    1  0.2077555E+004  0.1043930E+01  0.7957747E-01            NaN
         13   -1    0    0    0    0  0.00000000000E+00  0.00000000000E+00  0.74505805969E-08  0.10566000000E+00  0.10566000000E+00 0. -1.
     999900   -1    0    0    0    0 -0.00000000000E+00 -0.00000000000E+00 -0.74505805969E-08  0.93827000000E+00  0.93827000000E+00 0.  1.
     999902    2    1    2    0    0 -0.38284060021E-02 -0.10156409509E-01  0.88566417988E-02  0.10299210939E+01  0.10298258155E+01 0.  0.
     999903    2    3    3    0    0  0.12711736083E+00  0.26334537695E-01  0.21586973430E-01  0.13939291105E+00  0.45957098800E-01 0.  0.
         14    1    1    2    0    0  0.38284060021E-02  0.10156409509E-01 -0.88566417988E-02  0.14008906117E-01  0.00000000000E+00 0.  1.
     999901    1    3    3    0    0 -0.13094576683E+00 -0.36490947204E-01 -0.12730331631E-01  0.89052818283E+00  0.88000000000E+00 0.  1.
        -11    1    4    4    0    0  0.56793208049E-01  0.24863986912E-01  0.29403419887E-01  0.68618572907E-01  0.51100000000E-03 0. -1.
         11    1    4    4    0    0  0.70324152777E-01  0.14705507833E-02 -0.78164464577E-02  0.70774338143E-01  0.51100000000E-03 0.  1.
</event>
<event>
 8    1  0.2077555E+004  0.1043930E+01  0.7957747E-01            NaN
         13   -1    0    0    0    0  0.00000000000E+00  0.00000000000E+00  0.74505805969E-08  0.10566000000E+00  0.10566000000E+00 0.  1.
     999900   -1    0    0    0    0 -0.00000000000E+00 -0.00000000000E+00 -0.74505805969E-08  0.93827000000E+00  0.93827000000E+00 0. -1.
     999902    2    1    2    0    0  0.12040075795E-01  0.58678774724E-02 -0.37964070181E-02  0.10300085016E+01  0.10299144165E+01 0.  0.
     999903    2    3    3    0    0  0.64161442070E-01 -0.84737856669E-01 -0.80147492212E-01  0.14053926432E+00  0.45060729080E-01 0.  0.
         14    1    1    2    0    0 -0.12040075795E-01 -0.58678774724E-02  0.37964070181E-02  0.13921498390E-01  0.00000000000E+00 0.  1.
     999901    1    3    3    0    0 -0.52121366275E-01  0.90605734142E-01  0.76351085193E-01  0.88946923729E+00  0.88000000000E+00 0.  1.
        -11    1    4    4    0    0  0.35200678944E-01 -0.78170986841E-01 -0.58609962836E-01  0.10385172048E+00  0.51100000000E-03 0.  1.
         11    1    4    4    0    0  0.28960763126E-01 -0.65668698285E-02 -0.21537529376E-01  0.36687543837E-01  0.51100000000E-03 0. -1.
</event>
<event>
 8    1  0.2077555E+004  0.1043930E+01  0.7957747E-01            NaN
         13   -1    0    0    0    0  0.00000000000E+00  0.00000000000E+00  0.74505805969E-08  0.10566000000E+00  0.10566000000E+00 0.  1.
     999900   -1    0    0    0    0 -0.00000000000E+00 -0.00000000000E+00 -0.74505805969E-08  0.93827000000E+00  0.93827000000E+00 0.  1.
     999902    2    1    2    0    0 -0.22733222999E-02  0.92270837946E-02  0.10065756938E-01  0.10300870765E+01  0.10299940575E+01 0.  0.
     999903    2    3    3    0    0  0.68563232689E-01 -0.11105580399E+00  0.46353506080E-02  0.13906783989E+00  0.47791935915E-01 0.  0.
         14    1    1    2    0    0  0.22733222999E-02 -0.92270837946E-02 -0.10065756938E-01  0.13842923549E-01  0.00000000000E+00 0. -1.
     999901    1    3    3    0    0 -0.70836554989E-01  0.12028288778E+00  0.54304063304E-02  0.89101923657E+00  0.88000000000E+00 0. -1.
        -11    1    4    4    0    0  0.42527772121E-01 -0.26377710509E-01  0.64304754638E-02  0.50457974087E-01  0.51100000000E-03 0.  1.
         11    1    4    4    0    0  0.26035460568E-01 -0.84678093481E-01 -0.17951248558E-02  0.88609865799E-01  0.51100000000E-03 0. -1.
</event>
<event>
 8    1  0.2077555E+004  0.1043930E+01  0.7957747E-01            NaN
         13   -1    0    0    0    0  0.00000000000E+00  0.00000000000E+00  0.74505805969E-08  0.10566000000E+00  0.10566000000E+00 0.  1.
     999900   -1    0    0    0    0 -0.00000000000E+00 -0.00000000000E+00 -0.74505805969E-08  0.93827000000E+00  0.93827000000E+00 0.  1.
     999902    2    1    2    0    0 -0.45374258850E-02  0.11493751165E-01  0.66027025893E-02  0.10299196384E+01  0.10298243401E+01 0.  0.
     999903    2    3    3    0    0  0.74684430204E-01  0.24676710985E-01 -0.10523877587E+00  0.13921294754E+00  0.46025434659E-01 0.  0.
         14    1    1    2    0    0  0.45374258850E-02 -0.11493751165E-01 -0.66027025893E-02  0.14010361558E-01  0.00000000000E+00 0. -1.
     999901    1    3    3    0    0 -0.79221856089E-01 -0.13182959820E-01  0.11184147846E+00  0.89070669090E+00  0.88000000000E+00 0. -1.
        -11    1    4    4    0    0  0.25354286825E-01  0.18944224639E-01 -0.74140861617E-01  0.80615457512E-01  0.51100000000E-03 0. -1.
         11    1    4    4    0    0  0.49330143379E-01  0.57324863466E-02 -0.31097914257E-01  0.58597490029E-01  0.51100000000E-03 0.  1.
</event>
<event>
 8    1  0.2077555E+004  0.1043930E+01  0.7957747E-01            NaN
         13   -1    0    0    0    0  0.00000000000E+00  0.00000000000E+00  0.74505805969E-08  0.10566000000E+00  0.10566000000E+00 0.  1.
     999900   -1    0    0    0    0 -0.00000000000E+00 -0.00000000000E+00 -0.74505805969E-08  0.93827000000E+00  0.93827000000E+00 0. -1.
     999902    2    1    2    0    0  0.12396078322E-01 -0.39572380319E-02  0.41873359291E-02  0.10302604619E+01  0.10301697739E+01 0.  0.
     999903    2    3    3    0    0 -0.86291072671E-01  0.72679234958E-01 -0.66638836062E-01  0.13861667122E+00  0.45226393300E-01 0.  0.
         14    1    1    2    0    0 -0.12396078322E-01  0.39572380319E-02 -0.41873359291E-02  0.13669538133E-01  0.00000000000E+00 0. -1.
     999901    1    3    3    0    0  0.98687150993E-01 -0.76636472990E-01  0.70826171991E-01  0.89164379065E+00  0.88000000000E+00 0.  1.
        -11    1    4    4    0    0 -0.55251253396E-02  0.19331981758E-01  0.16148641788E-02  0.20177250458E-01  0.51100000000E-03 0.  1.
         11    1    4    4    0    0 -0.80765947332E-01  0.53347253200E-01 -0.68253700241E-01  0.11843942076E+00  0.51100000000E-03 0. -1.
</event>
<event>
 8    1  0.2077555E+004  0.1043930E+01  0.7957747E-01            NaN
         13   -1    0    0    0    0  0.00000000000E+00  0.00000000000E+00  0.74505805969E-08  0.10566000000E+00  0.10566000000E+00 0.  1.
     999900   -1    0    0    0    0 -0.00000000000E+00 -0.00000000000E+00 -0.74505805969E-08  0.93827000000E+00  0.93827000000E+00 0.  1.
     999902    2    1    2    0    0 -0.88672524591E-03  0.13788239438E-02  0.13361888086E-01  0.10304679240E+01  0.10303799857E+01 0.  0.
     999903    2    3    3    0    0  0.85129835519E-01 -0.59655253582E-02  0.10356001904E+00  0.14165495659E+00  0.45373701579E-01 0.  0.
         14    1    1    2    0    0  0.88672524591E-03 -0.13788239438E-02 -0.13361888086E-01  0.13462076004E-01  0.00000000000E+00 0. -1.
     999901    1    3    3    0    0 -0.86016560765E-01  0.73443493020E-02 -0.90198130959E-01  0.88881296740E+00  0.88000000000E+00 0. -1.
        -11    1    4    4    0    0  0.44355198045E-01 -0.17148948783E-01  0.28329983058E-01  0.55356292317E-01  0.51100000000E-03 0. -1.
         11    1    4    4    0    0  0.40774637474E-01  0.11183423424E-01  0.75230035986E-01  0.86298664278E-01  0.51100000000E-03 0.  1.
</event>
<event>
 8    1  0.2077555E+004  0.1043930E+01  0.7957747E-01            NaN
         13   -1    0    0    0    0  0.00000000000E+00  0.00000000000E+00  0.74505805969E-08  0.10566000000E+00  0.10566000000E+00 0. -1.
     999900   -1    0    0    0    0 -0.00000000000E+00 -0.00000000000E+00 -0.74505805969E-08  0.93827000000E+00  0.93827000000E+00 0.  1.
     999902    2    1    2    0    0  0.98365246216E-02 -0.92223897843E-02  0.44416124586E-02  0.10297336057E+01  0.10296357419E+01 0.  0.
     999903    2    3    3    0    0  0.67923626706E-01 -0.99334677578E-01  0.59008529968E-01  0.14154900533E+00  0.45531495330E-01 0.  0.
         14    1    1    2    0    0 -0.98365246216E-02  0.92223897843E-02 -0.44416124586E-02  0.14196394303E-01  0.00000000000E+00 0.  1.
     999901    1    3    3    0    0 -0.58087102084E-01  0.90112287794E-01 -0.54566917509E-01  0.88818460037E+00  0.88000000000E+00 0.  1.
        -11    1    4    4    0    0  0.23452898238E-01 -0.45198737041E-02  0.95044297293E-02  0.25711145434E-01  0.51100000000E-03 0. -1.
         11    1    4    4    0    0  0.44470728468E-01 -0.94814803874E-01  0.49504100239E-01  0.11583785990E+00  0.51100000000E-03 0.  1.
</event>
<event>
 8    1  0.2077555E+004  0.1043930E+01  0.7957747E-01            NaN
         13   -1    0    0    0    0  0.00000000000E+00  0.00000000000E+00  0.74505805969E-08  0.10566000000E+00  0.10566000000E+00 0. -1.
     999900   -1    0    0    0    0 -0.00000000000E+00 -0.00000000000E+00 -0.74505805969E-08  0.93827000000E+00  0.93827000000E+00 0. -1.
     999902    2    1    2    0    0  0.93040543174E-02 -0.82060098703E-02  0.61619792797E-02  0.10300781404E+01  0.10299850006E+01 0.  0.
     999903    2    3    3    0    0  0.11698619035E+00 -0.38376843679E-01  0.54135523748E-01  0.14170480529E+00  0.44621139023E-01 0.  0.
         14    1    1    2    0    0 -0.93040543174E-02  0.82060098703E-02 -0.61619792797E-02  0.13851859564E-01  0.00000000000E+00 0.  1.
     999901    1    3    3    0    0 -0.10768213603E+00  0.30170833809E-01 -0.47973544468E-01  0.88837333515E+00  0.88000000000E+00 0. -1.
        -11    1    4    4    0    0  0.38055732888E-01 -0.31671905438E-01  0.33702958811E-01  0.59895734017E-01  0.51100000000E-03 0. -1.
         11    1    4    4    0    0  0.78930457459E-01 -0.67049382408E-02  0.20432564936E-01  0.81809071272E-01  0.51100000000E-03 0.  1.
</event>
<event>
 7    1  0.2337503E+004  0.1043930E+01  0.7957747E-01            NaN
         13   -1    0    0    0    0  0.00000000000E+00  0.00000000000E+00  0.74505805969E-08  0.10566000000E+00  0.10566000000E+00 0. -1.
     999900   -1    0    0    0    0 -0.00000000000E+00 -0.00000000000E+00 -0.74505805969E-08  0.93827000000E+00  0.93827000000E+00 0.  1.
     999903    2    1    2    0    0  0.36290507602E-01  0.79875628617E-01 -0.80939959174E-01  0.12771262142E+00  0.45410568030E-01 0.  0.
         14    1    1    2    0    0  0.19007143464E-01 -0.21783151780E-01  0.46710144477E-02  0.29284732885E-01  0.00000000000E+00 0.  1.
     999901    1    1    2    0    0 -0.55297651066E-01 -0.58092476836E-01  0.76268944726E-01  0.88693264570E+00  0.88000000000E+00 0. -1.
        -11    1    3    3    0    0  0.18536738212E-01  0.26357050353E-01 -0.42244182878E-02  0.32502486023E-01  0.51100000000E-03 0.  1.
         11    1    3    3    0    0  0.17753769390E-01  0.53518578264E-01 -0.76715540886E-01  0.95210135392E-01  0.51100000000E-03 0. -1.
</event>
<event>
 8    1  0.2077555E+004  0.1043930E+01  0.7957747E-01            NaN
         13   -1    0    0    0    0  0.00000000000E+00  0.00000000000E+00  0.74505805969E-08  0.10566000000E+00  0.10566000000E+00 0.  1.
     999900   -1    0    0    0    0 -0.00000000000E+00 -0.00000000000E+00 -0.74505805969E-08  0.93827000000E+00  0.93827000000E+00 0. -1.
     999902    2    1    2    0    0 -0.44176868711E-02 -0.12587159716E-01 -0.33849067656E-02  0.10301673643E+01  0.10300754285E+01 0.  0.
     999903    2    3    3    0    0 -0.99548430409E-01  0.44004797729E-02 -0.86693924396E-01  0.14096613250E+00  0.49258093393E-01 0.  0.
         14    1    1    2    0    0  0.44176868711E-02  0.12587159716E-01  0.33849067656E-02  0.13762635678E-01  0.00000000000E+00 0.  1.
     999901    1    3    3    0    0  0.95130743538E-01 -0.16987639489E-01  0.83309017630E-01  0.88920123183E+00  0.88000000000E+00 0.  1.
        -11    1    4    4    0    0 -0.34795202346E-02  0.14149920764E-01 -0.12070105481E-01  0.18928177039E-01  0.51100000000E-03 0.  1.
         11    1    4    4    0    0 -0.96068910174E-01 -0.97494409915E-02 -0.74623818915E-01  0.12203795546E+00  0.51100000000E-03 0. -1.
</event>
<event>
 8    1  0.2077555E+004  0.1043930E+01  0.7957747E-01            NaN
         13   -1    0    0    0    0  0.00000000000E+00  0.00000000000E+00  0.74505805969E-08  0.10566000000E+00  0.10566000000E+00 0.  1.
     999900   -1    0    0    0    0 -0.00000000000E+00 -0.00000000000E+00 -0.74505805969E-08  0.93827000000E+00  0.93827000000E+00 0. -1.
     999902    2    1    2    0    0  0.42705078425E-02 -0.82763532553E-02 -0.13574978564E-01  0.10274674576E+01  0.10273355640E+01 0.  0.
     999903    2    3    3    0    0 -0.93956453355E-01 -0.60118896250E-01 -0.68825535537E-01  0.13876682787E+00  0.45576105166E-01 0.  0.
         14    1    1    2    0    0 -0.42705078425E-02  0.82763532553E-02  0.13574978564E-01  0.16462542436E-01  0.00000000000E+00 0.  1.
     999901    1    3    3    0    0  0.98226961198E-01  0.51842542994E-01  0.55250556973E-01  0.88870062969E+00  0.88000000000E+00 0.  1.
        -11    1    4    4    0    0 -0.96282053383E-01 -0.53659965772E-01 -0.54698986079E-01  0.12305228941E+00  0.51100000000E-03 0. -1.
         11    1    4    4    0    0  0.23256000278E-02 -0.64589304776E-02 -0.14126549459E-01  0.15714538460E-01  0.51100000000E-03 0.  1.
</event>
<event>
 8    1  0.2077555E+004  0.1043930E+01  0.7957747E-01            NaN
         13   -1    0    0    0    0  0.00000000000E+00  0.00000000000E+00  0.74505805969E-08  0.10566000000E+00  0.10566000000E+00 0. -1.
     999900   -1    0    0    0    0 -0.00000000000E+00 -0.00000000000E+00 -0.74505805969E-08  0.93827000000E+00  0.93827000000E+00 0. -1.
     999902    2    1    2    0    0 -0.87295394894E-02  0.10642463997E-01 -0.30644180380E-02  0.10298283137E+01  0.10297317602E+01 0.  0.
     999903    2    3    3    0    0  0.10132712827E+00 -0.75304996840E-01 -0.34606193720E-01  0.13825985317E+00  0.44499088539E-01 0.  0.
         14    1    1    2    0    0  0.87295394894E-02 -0.10642463997E-01  0.30644180380E-02  0.14101686336E-01  0.00000000000E+00 0.  1.
     999901    1    3    3    0    0 -0.11005666776E+00  0.85947460837E-01  0.31541775682E-01  0.89156846050E+00  0.88000000000E+00 0. -1.
        -11    1    4    4    0    0  0.12528958636E-01 -0.28397060880E-01  0.26244660602E-02  0.31153118853E-01  0.51100000000E-03 0.  1.
         11    1    4    4    0    0  0.88798169634E-01 -0.46907935960E-01 -0.37230659780E-01  0.10710673431E+00  0.51100000000E-03 0. -1.
</event>
<event>
 8    1  0.2077555E+004  0.1043930E+01  0.7957747E-01            NaN
         13   -1    0    0    0    0  0.00000000000E+00  0.00000000000E+00  0.74505805969E-08  0.10566000000E+00  0.10566000000E+00 0.  1.
     999900   -1    0    0    0    0 -0.00000000000E+00 -0.00000000000E+00 -0.74505805969E-08  0.93827000000E+00  0.93827000000E+00 0.  1.
     999902    2    1    2    0    0 -0.29809077238E-02  0.33454374045E-02 -0.13124518700E-01  0.10300616636E+01  0.10299683006E+01 0.  0.
     999903    2    3    3    0    0  0.12724831398E+00  0.79608836122E-02 -0.35875109515E-01  0.14017484954E+00  0.45896142346E-01 0.  0.
         14    1    1    2    0    0  0.29809077238E-02 -0.33454374045E-02  0.13124518700E-01  0.13868336360E-01  0.00000000000E+00 0.  1.
     999901    1    3    3    0    0 -0.13022922170E+00 -0.46154462076E-02  0.22750590814E-01  0.88988681410E+00  0.88000000000E+00 0.  1.
        -11    1    4    4    0    0  0.33716325972E-01 -0.12513575865E-01  0.45282969167E-02  0.36251162905E-01  0.51100000000E-03 0. -1.
         11    1    4    4    0    0  0.93531988006E-01  0.20474459477E-01 -0.40403406431E-01  0.10392368663E+00  0.51100000000E-03 0.  1.
</event>
<event>
 8    1  0.2077555E+004  0.1043930E+01  0.7957747E-01            NaN
         13   -1    0    0    0    0  0.00000000000E+00  0.00000000000E+00  0.74505805969E-08  0.10566000000E+00  0.10566000000E+00 0. -1.
     999900   -1    0    0    0    0 -0.00000000000E+00 -0.00000000000E+00 -0.74505805969E-08  0.93827000000E+00  0.93827000000E+00 0.  1.
     999902    2    1    2    0    0  0.10048176848E-01 -0.62102054198E-02 -0.71412668074E-02  0.10301267322E+01  0.10300342491E+01 0.  0.
     999903    2    3    3    0    0  0.72114554426E-01 -0.11200219924E+00  0.58694318018E-02  0.14152476315E+00  0.47432127947E-01 0.  0.
         14    1    1    2    0    0 -0.10048176848E-01  0.62102054198E-02  0.71412668074E-02  0.13803267763E-01  0.00000000000E+00 0. -1.
     999901    1    3    3    0    0 -0.62066377578E-01  0.10579199382E+00 -0.13010698609E-01  0.88860196908E+00  0.88000000000E+00 0.  1.
        -11    1    4    4    0    0  0.38665917916E-01 -0.71692079575E-01 -0.18840180673E-01  0.83606345518E-01  0.51100000000E-03 0.  1.
         11    1    4    4    0    0  0.33448636510E-01 -0.40310119663E-01  0.24709612475E-01  0.57918417635E-01  0.51100000000E-03 0. -1.
</event>
<event>
 8    1  0.2077555E+004  0.1043930E+01  0.7957747E-01            NaN
         13   -1    0    0    0    0  0.00000000000E+00  0.00000000000E+00  0.74505805969E-08  0.10566000000E+00  0.10566000000E+00 0.  1.
     999900   -1    0    0    0    0 -0.00000000000E+00 -0.00000000000E+00 -0.74505805969E-08  0.93827000000E+00  0.93827000000E+00 0.  1.
     999902    2    1    2    0    0 -0.43038419342E-02  0.64878268837E-02 -0.10505673237E-01  0.10308539102E+01  0.10307709737E+01 0.  0.
     999903    2    3    3    0    0  0.12773307564E-01  0.13339204865E+00  0.46239641201E-02  0.14145792619E+00  0.45081790194E-01 0.  0.
         14    1    1    2    0    0  0.43038419342E-02 -0.64878268837E-02  0.10505673237E-01  0.13076089753E-01  0.00000000000E+00 0.  1.
     999901    1    3    3    0    0 -0.17077149499E-01 -0.12690422177E+00 -0.15129637357E-01  0.88939598406E+00  0.88000000000E+00 0. -1.
        -11    1    4    4    0    0  0.68237859684E-02  0.78879920495E-01  0.24887674219E-01  0.82995562299E-01  0.51100000000E-03 0. -1.
         11    1    4    4    0    0  0.59495215961E-02  0.54512128156E-01 -0.20263710099E-01  0.58462363887E-01  0.51100000000E-03 0.  1.
</event>
<event>
 8    1  0.2077555E+004  0.1043930E+01  0.7957747E-01            NaN
         13   -1    0    0    0    0  0.00000000000E+00  0.00000000000E+00  0.74505805969E-08  0.10566000000E+00  0.10566000000E+00 0. -1.
     999900   -1    0    0    0    0 -0.00000000000E+00 -0.00000000000E+00 -0.74505805969E-08  0.93827000000E+00  0.93827000000E+00 0.  1.
     999902    2    1    2    0    0  0.27163552383E-02 -0.97267148207E-02 -0.72830507401E-02  0.10314788798E+01  0.10314037275E+01 0.  0.
     999903    2    3    3    0    0 -0.51345148669E-01 -0.10511136464E+00 -0.68277254163E-01  0.14258002698E+00  0.44525918194E-01 0.  0.
         14    1    1    2    0    0 -0.27163552383E-02  0.97267148207E-02  0.72830507401E-02  0.12451120233E-01  0.00000000000E+00 0. -1.
     999901    1    3    3    0    0  0.54061503907E-01  0.95384649818E-01  0.60994203423E-01  0.88889885278E+00  0.88000000000E+00 0.  1.
        -11    1    4    4    0    0 -0.18958178153E-01 -0.32239367015E-01  0.29584730021E-03  0.37405052480E-01  0.51100000000E-03 0.  1.
         11    1    4    4    0    0 -0.32386970516E-01 -0.72871997624E-01 -0.68573101463E-01  0.10517497450E+00  0.51100000000E-03 0. -1.
</event>
<event>
 8    1  0.2077555E+004  0.1043930E+01  0.7957747E-01            NaN
         13   -1    0    0    0    0  0.00000000000E+00  0.00000000000E+00  0.74505805969E-08  0.10566000000E+00  0.10566000000E+00 0.  1.
     999900   -1    0    0    0    0 -0.00000000000E+00 -0.00000000000E+00 -0.74505805969E-08  0.93827000000E+00  0.93827000000E+00 0.  1.
     999902    2    1    2    0    0 -0.71685808619E-02  0.36353489025E-02  0.93335391955E-02  0.10316125625E+01  0.10315390249E+01 0.  0.
     999903    2    3    3    0    0  0.32602998621E-02 -0.63058486133E-01  0.11981211461E+00  0.14213949104E+00  0.43147304396E-01 0.  0.
         14    1    1    2    0    0  0.71685808619E-02 -0.36353489025E-02 -0.93335391955E-02  0.12317437523E-01  0.00000000000E+00 0. -1.
     999901    1    3    3    0    0 -0.10428880724E-01  0.66693835035E-01 -0.11047857542E+00  0.88947307144E+00  0.88000000000E+00 0.  1.
        -11    1    4    4    0    0  0.85778977780E-02 -0.65043276388E-01  0.11962755861E+00  0.13643761224E+00  0.51100000000E-03 0. -1.
         11    1    4    4    0    0 -0.53175979158E-02  0.19847902546E-02  0.18455600320E-03  0.57018788015E-02  0.51100000000E-03 0.  1.
</event>
<event>
 8    1  0.2077555E+004  0.1043930E+01  0.7957747E-01            NaN
         13   -1    0    0    0    0  0.00000000000E+00  0.00000000000E+00  0.74505805969E-08  0.10566000000E+00  0.10566000000E+00 0. -1.
     999900   -1    0    0    0    0 -0.00000000000E+00 -0.00000000000E+00 -0.74505805969E-08  0.93827000000E+00  0.93827000000E+00 0.  1.
     999902    2    1    2    0    0 -0.12884881457E-01  0.46011929298E-02 -0.48192818712E-03  0.10302397333E+01  0.10301487683E+01 0.  0.
     999903    2    3    3    0    0 -0.93352275899E-01  0.65180563076E-01 -0.71155765211E-01  0.14167929482E+00  0.45240760822E-01 0.  0.
         14    1    1    2    0    0  0.12884881457E-01 -0.46011929298E-02  0.48192818712E-03  0.13690266664E-01  0.00000000000E+00 0.  1.
     999901    1    3    3    0    0  0.80467394442E-01 -0.60579370146E-01  0.70673837024E-01  0.88856043852E+00  0.88000000000E+00 0. -1.
        -11    1    4    4    0    0 -0.59491525019E-01  0.64201112641E-01 -0.42473833006E-01  0.97289835156E-01  0.51100000000E-03 0. -1.
         11    1    4    4    0    0 -0.33860750880E-01  0.97945043466E-03 -0.28681932206E-01  0.44389459665E-01  0.51100000000E-03 0.  1.
</event>
<event>
 8    1  0.2077555E+004  0.1043930E+01  0.7957747E-01            NaN
         13   -1    0    0    0    0  0.00000000000E+00  0.00000000000E+00  0.74505805969E-08  0.10566000000E+00  0.10566000000E+00 0. -1.
     999900   -1    0    0    0    0 -0.00000000000E+00 -0.00000000000E+00 -0.74505805969E-08  0.93827000000E+00  0.93827000000E+00 0.  1.
     999902    2    1    2    0    0 -0.10954602772E-01  0.15520170030E-03  0.82007301660E-02  0.10302449942E+01  0.10301540995E+01 0.  0.
     999903    2    3    3    0    0 -0.11308579218E+00  0.65977281981E-01  0.30276298855E-01  0.14162209505E+00  0.44707554215E-01 0.  0.
         14    1    1    2    0    0  0.10954602772E-01 -0.15520170030E-03 -0.82007301660E-02  0.13685005835E-01  0.00000000000E+00 0. -1.
     999901    1    3    3    0    0  0.10213118940E+00 -0.65822080280E-01 -0.22075568689E-01  0.88862289912E+00  0.88000000000E+00 0. -1.
        -11    1    4    4    0    0 -0.77222071543E-01  0.31523364435E-01  0.25598929109E-04  0.83410027065E-01  0.51100000000E-03 0. -1.
         11    1    4    4    0    0 -0.35863720633E-01  0.34453917546E-01  0.30250699926E-01  0.58212067983E-01  0.51100000000E-03 0.  1.
</event>
<event>
 7    1  0.2077555E+004  0.1043930E+01  0.7957747E-01            NaN
         13   -1    0    0    0    0  0.00000000000E+00  0.00000000000E+00  0.74505805969E-08  0.10566000000E+00  0.10566000000E+00 0. -1.
     999900   -1    0    0    0    0 -0.00000000000E+00 -0.00000000000E+00 -0.74505805969E-08  0.93827000000E+00  0.93827000000E+00 0. -1.
     999902    2    1    2    0    0 -0.71443089250E-02 -0.19093027505E-01  0.32220125468E-02  0.10232910510E+01  0.10230828945E+01 0.  0.
         14    1    1    2    0    0  0.71443089250E-02  0.19093027505E-01 -0.32220125468E-02  0.20638948960E-01  0.00000000000E+00 0.  1.
     999901    1    3    3    0    0  0.11153721694E+00 -0.85228152016E-02  0.22586681534E-01  0.88736877752E+00  0.88000000000E+00 0. -1.
        -11    1    3    3    0    0 -0.81426929360E-01 -0.33246666812E-01 -0.26199980730E-01  0.91773557141E-01  0.51100000000E-03 0. -1.
         11    1    3    3    0    0 -0.37254596506E-01  0.22676454509E-01  0.68353117424E-02  0.44148716374E-01  0.51100000000E-03 0.  1.
</event>
<event>
 8    1  0.2077555E+004  0.1043930E+01  0.7957747E-01            NaN
         13   -1    0    0    0    0  0.00000000000E+00  0.00000000000E+00  0.74505805969E-08  0.10566000000E+00  0.10566000000E+00 0.  1.
     999900   -1    0    0    0    0 -0.00000000000E+00 -0.00000000000E+00 -0.74505805969E-08  0.93827000000E+00  0.93827000000E+00 0.  1.
     999902    2    1    2    0    0 -0.86388245283E-02 -0.38451244664E-02  0.10346745353E-01  0.10299132454E+01  0.10298178594E+01 0.  0.
     999903    2    3    3    0    0 -0.77659486033E-01 -0.64833249772E-01 -0.84062057346E-01  0.14008380936E+00  0.48194378422E-01 0.  0.
         14    1    1    2    0    0  0.86388245283E-02  0.38451244664E-02 -0.10346745353E-01  0.14016754646E-01  0.00000000000E+00 0. -1.
     999901    1    3    3    0    0  0.69020661505E-01  0.60988125305E-01  0.94408802699E-01  0.88982943600E+00  0.88000000000E+00 0. -1.
        -11    1    4    4    0    0 -0.49055074381E-01 -0.11768918411E-01 -0.49076899721E-01  0.70382604174E-01  0.51100000000E-03 0.  1.
         11    1    4    4    0    0 -0.28604411652E-01 -0.53064331361E-01 -0.34985157625E-01  0.69701205181E-01  0.51100000000E-03 0. -1.
</event>
<event>
 8    1  0.2077555E+004  0.1043930E+01  0.7957747E-01            NaN
         13   -1    0    0    0    0  0.00000000000E+00  0.00000000000E+00  0.74505805969E-08  0.10566000000E+00  0.10566000000E+00 0. -1.
     999900   -1    0    0    0    0 -0.00000000000E+00 -0.00000000000E+00 -0.74505805969E-08  0.93827000000E+00  0.93827000000E+00 0. -1.
     999902    2    1    2    0    0 -0.68264509561E-02  0.70099054226E-02  0.87441858298E-02  0.10308075005E+01  0.10307239704E+01 0.  0.
     999903    2    3    3    0    0  0.66240030006E-01  0.40092522675E-01 -0.10693454203E+00  0.13962023722E+00  0.45427551246E-01 0.  0.
         14    1    1    2    0    0  0.68264509561E-02 -0.70099054226E-02 -0.87441858298E-02  0.13122499477E-01  0.00000000000E+00 0.  1.
     999901    1    3    3    0    0 -0.73066480963E-01 -0.33082617252E-01  0.11567872785E+00  0.89118726331E+00  0.88000000000E+00 0.  1.
        -11    1    4    4    0    0  0.32434427372E-01  0.44400806745E-01 -0.74282968677E-01  0.92421016415E-01  0.51100000000E-03 0. -1.
         11    1    4    4    0    0  0.33805602634E-01 -0.43082840704E-02 -0.32651573348E-01  0.47199220800E-01  0.51100000000E-03 0.  1.
</event>
<event>
 8    1  0.2077555E+004  0.1043930E+01  0.7957747E-01            NaN
         13   -1    0    0    0    0  0.00000000000E+00  0.00000000000E+00  0.74505805969E-08  0.10566000000E+00  0.10566000000E+00 0. -1.
     999900   -1    0    0    0    0 -0.00000000000E+00 -0.00000000000E+00 -0.74505805969E-08  0.93827000000E+00  0.93827000000E+00 0.  1.
     999902    2    1    2    0    0 -0.93664191890E-02 -0.78064567627E-02 -0.93605442823E-02  0.10285582608E+01  0.10284433896E+01 0.  0.
     999903    2    3    3    0    0  0.24842020284E-01  0.10589699283E+00 -0.72363279178E-01  0.13835152284E+00  0.45534609215E-01 0.  0.
         14    1    1    2    0    0  0.93664191890E-02  0.78064567627E-02  0.93605442823E-02  0.15371739162E-01  0.00000000000E+00 0. -1.
     999901    1    3    3    0    0 -0.34208439473E-01 -0.11370344959E+00  0.63002734896E-01  0.89020673800E+00  0.88000000000E+00 0. -1.
        -11    1    4    4    0    0 -0.44360346582E-02  0.45653030631E-01 -0.10251782856E-01  0.47002529528E-01  0.51100000000E-03 0. -1.
         11    1    4    4    0    0  0.29278054942E-01  0.60243962195E-01 -0.62111496322E-01  0.91348993308E-01  0.51100000000E-03 0.  1.
</event>
<event>
 8    1  0.2077555E+004  0.1043930E+01  0.7957747E-01            NaN
         13   -1    0    0    0    0  0.00000000000E+00  0.00000000000E+00  0.74505805969E-08  0.10566000000E+00  0.10566000000E+00 0.  1.
     999900   -1    0    0    0    0 -0.00000000000E+00 -0.00000000000E+00 -0.74505805969E-08  0.93827000000E+00  0.93827000000E+00 0. -1.
     999902    2    1    2    0    0  0.12547762056E-01 -0.72543043055E-02 -0.15166653796E-02  0.10293570272E+01  0.10292538646E+01 0.  0.
     999903    2    3    3    0    0 -0.85157012537E-01 -0.70651001856E-01  0.69263041710E-01  0.13886551615E+00  0.47360128605E-01 0.  0.
         14    1    1    2    0    0 -0.12547762056E-01  0.72543043055E-02  0.15166653796E-02  0.14572972842E-01  0.00000000000E+00 0.  1.
     999901    1    3    3    0    0  0.97704774594E-01  0.63396697551E-01 -0.70779707090E-01  0.89049151101E+00  0.88000000000E+00 0. -1.
        -11    1    4    4    0    0 -0.28756752817E-01 -0.83193761279E-02  0.39768281328E-01  0.49778912930E-01  0.51100000000E-03 0. -1.
         11    1    4    4    0    0 -0.56400259721E-01 -0.62331625728E-01  0.29494760382E-01  0.89086603221E-01  0.51100000000E-03 0.  1.
</event>
<event>
 8    1  0.2077555E+004  0.1043930E+01  0.7957747E-01            NaN
         13   -1    0    0    0    0  0.00000000000E+00  0.00000000000E+00  0.74505805969E-08  0.10566000000E+00  0.10566000000E+00 0. -1.
     999900   -1    0    0    0    0 -0.00000000000E+00 -0.00000000000E+00 -0.74505805969E-08  0.93827000000E+00  0.93827000000E+00 0. -1.
     999902    2    1    2    0    0 -0.10291847142E-01 -0.30747630048E-02 -0.94102249254E-02  0.10296496422E+01  0.10295506093E+01 0.  0.
     999903    2    3    3    0    0 -0.12231601135E+00  0.52396701609E-01  0.58511097206E-02  0.14068428570E+00  0.45290305651E-01 0.  0.
         14    1    1    2    0    0  0.10291847142E-01  0.30747630048E-02  0.94102249254E-02  0.14280357778E-01  0.00000000000E+00 0. -1.
     999901    1    3    3    0    0  0.11202416421E+00 -0.55471464613E-01 -0.15261334646E-01  0.88896535652E+00  0.88000000000E+00 0. -1.
        -11    1    4    4    0    0 -0.51008391521E-01  0.27972543312E-01 -0.19185186209E-01  0.61258890585E-01  0.51100000000E-03 0. -1.
         11    1    4    4    0    0 -0.71307619834E-01  0.24424158297E-01  0.25036295930E-01  0.79425395119E-01  0.51100000000E-03 0.  1.
</event>
<event>
 8    1  0.2077555E+004  0.1043930E+01  0.7957747E-01            NaN
         13   -1    0    0    0    0  0.00000000000E+00  0.00000000000E+00  0.74505805969E-08  0.10566000000E+00  0.10566000000E+00 0. -1.
     999900   -1    0    0    0    0 -0.00000000000E+00 -0.00000000000E+00 -0.74505805969E-08  0.93827000000E+00  0.93827000000E+00 0. -1.
     999902    2    1    2    0    0 -0.35535754193E-02 -0.12748756024E-01 -0.38142026435E-02  0.10301565901E+01  0.10300645093E+01 0.  0.
     999903    2    3    3    0    0 -0.34723290161E-01  0.11938537247E+00  0.41358110922E-01  0.13860091773E+00  0.45179055061E-01 0.  0.
         14    1    1    2    0    0  0.35535754193E-02  0.12748756024E-01  0.38142026435E-02  0.13773409899E-01  0.00000000000E+00 0. -1.
     999901    1    3    3    0    0  0.31169714742E-01 -0.13213412849E+00 -0.45172313566E-01  0.89155567237E+00  0.88000000000E+00 0. -1.
        -11    1    4    4    0    0 -0.17118631244E-01  0.32091620979E-01  0.33074035161E-01  0.49163732523E-01  0.51100000000E-03 0. -1.
         11    1    4    4    0    0 -0.17604658917E-01  0.87293751491E-01  0.82840757610E-02  0.89437185204E-01  0.51100000000E-03 0.  1.
</event>
<event>
 8    1  0.2077555E+004  0.1043930E+01  0.7957747E-01            NaN
         13   -1    0    0    0    0  0.00000000000E+00  0.00000000000E+00  0.74505805969E-08  0.10566000000E+00  0.10566000000E+00 0.  1.
     999900   -1    0    0    0    0 -0.00000000000E+00 -0.00000000000E+00 -0.74505805969E-08  0.93827000000E+00  0.93827000000E+00 0. -1.
     999902    2    1    2    0    0 -0.10331079630E-01 -0.86674577387E-02 -0.39116123187E-03  0.10304389275E+01  0.10303506075E+01 0.  0.
     999903    2    3    3    0    0  0.10481452859E-01 -0.13072319225E+00  0.27221782572E-01  0.14134206073E+00  0.45145751085E-01 0.  0.
         14    1    1    2    0    0  0.10331079630E-01  0.86674577387E-02  0.39116123187E-03  0.13491072496E-01  0.00000000000E+00 0.  1.
     999901    1    3    3    0    0 -0.20812532489E-01  0.12205573451E+00 -0.27612943804E-01  0.88909686677E+00  0.88000000000E+00 0. -1.
        -11    1    4    4    0    0  0.24769663563E-01 -0.53632031787E-01  0.24981948962E-02  0.59130644893E-01  0.51100000000E-03 0.  1.
         11    1    4    4    0    0 -0.14288210705E-01 -0.77091160459E-01  0.24723587676E-01  0.82211415842E-01  0.51100000000E-03 0. -1.
</event>
<event>
 8    1  0.2077555E+004  0.1043930E+01  0.7957747E-01            NaN
         13   -1    0    0    0    0  0.00000000000E+00  0.00000000000E+00  0.74505805969E-08  0.10566000000E+00  0.10566000000E+00 0. -1.
     999900   -1    0    0    0    0 -0.00000000000E+00 -0.00000000000E+00 -0.74505805969E-08  0.93827000000E+00  0.93827000000E+00 0. -1.
     999902    2    1    2    0    0 -0.38932313527E-03 -0.99149714326E-02  0.10069834503E-01  0.10297928221E+01  0.10296957787E+01 0.  0.
     999903    2    3    3    0    0 -0.52089919341E-01  0.11659026778E+00  0.28421041742E-01  0.13905532208E+00  0.47137848349E-01 0.  0.
         14    1    1    2    0    0  0.38932313527E-03  0.99149714326E-02 -0.10069834503E-01  0.14137177863E-01  0.00000000000E+00 0.  1.
     999901    1    3    3    0    0  0.51700596206E-01 -0.12650523922E+00 -0.18351207239E-01  0.89073750005E+00  0.88000000000E+00 0.  1.
        -11    1    4    4    0    0 -0.34559223964E-02  0.22479745248E-01  0.23939858010E-01  0.33025146004E-01  0.51100000000E-03 0. -1.
         11    1    4    4    0    0 -0.48633996945E-01  0.94110522534E-01  0.44811837325E-02  0.10603017608E+00  0.51100000000E-03 0.  1.
</event>
<event>
 8    1  0.2077555E+004  0.1043930E+01  0.7957747E-01            NaN
         13   -1    0    0    0    0  0.00000000000E+00  0.00000000000E+00  0.74505805969E-08  0.10566000000E+00  0.10566000000E+00 0. -1.
     999900   -1    0    0    0    0 -0.00000000000E+00 -0.00000000000E+00 -0.74505805969E-08  0.93827000000E+00  0.93827000000E+00 0.  1.
     999902    2    1    2    0    0  0.18653648304E-02 -0.11479935224E-01  0.59057081209E-02  0.10308860019E+01  0.10308034745E+01 0.  0.
     999903    2    3    3    0    0 -0.10250927780E+00 -0.14463989351E-02 -0.84822869139E-01  0.14002887943E+00  0.43622515291E-01 0.  0.
         14    1    1    2    0    0 -0.18653648304E-02  0.11479935224E-01 -0.59057081209E-02  0.13043998126E-01  0.00000000000E+00 0.  1.
     999901    1    3    3    0    0  0.10437464263E+00 -0.10033536289E-01  0.90728577260E-01  0.89085712244E+00  0.88000000000E+00 0. -1.
        -11    1    4    4    0    0 -0.39940968469E-01  0.13575337359E-01 -0.54426004068E-01  0.68862339391E-01  0.51100000000E-03 0.  1.
         11    1    4    4    0    0 -0.62568309333E-01 -0.15021736294E-01 -0.30396865072E-01  0.71166540040E-01  0.51100000000E-03 0. -1.
</event>
<event>
 8    1  0.2077555E+004  0.1043930E+01  0.7957747E-01            NaN
         13   -1    0    0    0    0  0.00000000000E+00  0.00000000000E+00  0.74505805969E-08  0.10566000000E+00  0.10566000000E+00 0.  1.
     999900   -1    0    0    0    0 -0.00000000000E+00 -0.00000000000E+00 -0.74505805969E-08  0.93827000000E+00  0.93827000000E+00 0. -1.
     999902    2    1    2    0    0 -0.24822192788E-02 -0.34249229077E-02  0.13755174782E-01  0.10295391577E+01  0.10294385756E+01 0.  0.
     999903    2    3    3    0    0  0.44789701561E-01  0.59199422557E-01  0.11079147357E+00  0.14073519367E+00  0.44955034485E-01 0.  0.
         14    1    1    2    0    0  0.24822192788E-02  0.34249229077E-02 -0.13755174782E-01  0.14390842323E-01  0.00000000000E+00 0. -1.
     999901    1    3    3    0    0 -0.47271920840E-01 -0.62624345465E-01 -0.97036298788E-01  0.88880396400E+00  0.88000000000E+00 0. -1.
        -11    1    4    4    0    0  0.16245183806E-01  0.28571164620E-01  0.86018333034E-01  0.92084918329E-01  0.51100000000E-03 0.  1.
         11    1    4    4    0    0  0.28544517756E-01  0.30628257937E-01  0.24773140536E-01  0.48650275345E-01  0.51100000000E-03 0. -1.
</event>
<event>
 8    1  0.2077555E+004  0.1043930E+01  0.7957747E-01            NaN
         13   -1    0    0    0    0  0.00000000000E+00  0.00000000000E+00  0.74505805969E-08  0.10566000000E+00  0.10566000000E+00 0. -1.
     999900   -1    0    0    0    0 -0.00000000000E+00 -0.00000000000E+00 -0.74505805969E-08  0.93827000000E+00  0.93827000000E+00 0.  1.
     999902    2    1    2    0    0 -0.11118281203E-01  0.39424520439E-02 -0.58563208402E-02  0.10307597457E+01  0.10306756026E+01 0.  0.
     999903    2    3    3    0    0  0.27803293901E-01  0.11438753212E+00 -0.63683373746E-01  0.14112107028E+00  0.44744315045E-01 0.  0.
         14    1    1    2    0    0  0.11118281203E-01 -0.39424520439E-02  0.58563208402E-02  0.13170254319E-01  0.00000000000E+00 0. -1.
     999901    1    3    3    0    0 -0.38921575104E-01 -0.11044508008E+00  0.57827052906E-01  0.88963867540E+00  0.88000000000E+00 0. -1.
        -11    1    4    4    0    0  0.28759233447E-01  0.58493424909E-01 -0.14762355556E-01  0.66833842689E-01  0.51100000000E-03 0. -1.
         11    1    4    4    0    0 -0.95593954563E-03  0.55894107213E-01 -0.48921018189E-01  0.74287227591E-01  0.51100000000E-03 0.  1.
</event>
<event>
 8    1  0.2077555E+004  0.1043930E+01  0.7957747E-01            NaN
         13   -1    0    0    0    0  0.00000000000E+00  0.00000000000E+00  0.74505805969E-08  0.10566000000E+00  0.10566000000E+00 0. -1.
     999900   -1    0    0    0    0 -0.00000000000E+00 -0.00000000000E+00 -0.74505805969E-08  0.93827000000E+00  0.93827000000E+00 0. -1.
     999902    2    1    2    0    0  0.11040744539E-01 -0.60045729580E-02  0.25699947026E-03  0.10313594397E+01  0.10312828298E+01 0.  0.
     999903    2    3    3    0    0 -0.77195207765E-01 -0.47101057872E-01  0.97972880856E-01  0.14061654877E+00  0.44684657880E-01 0.  0.
         14    1    1    2    0    0 -0.11040744539E-01  0.60045729580E-02 -0.25699947026E-03  0.12570560254E-01  0.00000000000E+00 0. -1.
     999901    1    3    3    0    0  0.88235952304E-01  0.41096484914E-01 -0.97715881386E-01  0.89074289098E+00  0.88000000000E+00 0. -1.
        -11    1    4    4    0    0  0.29497150897E-02  0.31298164376E-02  0.12144700436E-01  0.12893852788E-01  0.51100000000E-03 0.  1.
         11    1    4    4    0    0 -0.80144922855E-01 -0.50230874310E-01  0.85828180420E-01  0.12772269598E+00  0.51100000000E-03 0. -1.
</event>
<event>
 8    1  0.2077555E+004  0.1043930E+01  0.7957747E-01            NaN
         13   -1    0    0    0    0  0.00000000000E+00  0.00000000000E+00  0.74505805969E-08  0.10566000000E+00  0.10566000000E+00 0.  1.
     999900   -1    0    0    0    0 -0.00000000000E+00 -0.00000000000E+00 -0.74505805969E-08  0.93827000000E+00  0.93827000000E+00 0.  1.
     999902    2    1    2    0    0  0.10190423604E-01  0.62732888927E-02  0.92424636495E-02  0.10288097480E+01  0.10286986320E+01 0.  0.
     999903    2    3    3    0    0 -0.82067268565E-01  0.40998848541E-01 -0.92308304818E-01  0.13750177380E+00  0.44384372359E-01 0.  0.
         14    1    1    2    0    0 -0.10190423604E-01 -0.62732888927E-02 -0.92424636495E-02  0.15120252017E-01  0.00000000000E+00 0. -1.
     999901    1    3    3    0    0  0.92257692168E-01 -0.34725559648E-01  0.10155076847E+00  0.89130797418E+00  0.88000000000E+00 0. -1.
        -11    1    4    4    0    0 -0.41392268847E-01  0.26522379248E-01 -0.77648103540E-01  0.91903458181E-01  0.51100000000E-03 0. -1.
         11    1    4    4    0    0 -0.40674999717E-01  0.14476469293E-01 -0.14660201278E-01  0.45598315624E-01  0.51100000000E-03 0.  1.
</event>
<event>
 8    1  0.2077555E+004  0.1043930E+01  0.7957747E-01            NaN
         13   -1    0    0    0    0  0.00000000000E+00  0.00000000000E+00  0.74505805969E-08  0.10566000000E+00  0.10566000000E+00 0. -1.
     999900   -1    0    0    0    0 -0.00000000000E+00 -0.00000000000E+00 -0.74505805969E-08  0.93827000000E+00  0.93827000000E+00 0. -1.
     999902    2    1    2    0    0 -0.51709182790E-02 -0.10744117655E-01 -0.60194787662E-02  0.10305730324E+01  0.10304864708E+01 0.  0.
     999903    2    3    3    0    0  0.41524078050E-01  0.58862278987E-01  0.11015817537E+00  0.13898864462E+00  0.44654258336E-01 0.  0.
         14    1    1    2    0    0  0.51709182790E-02  0.10744117655E-01  0.60194787662E-02  0.13356967644E-01  0.00000000000E+00 0. -1.
     999901    1    3    3    0    0 -0.46694996329E-01 -0.69606396642E-01 -0.11617765413E+00  0.89158438774E+00  0.88000000000E+00 0. -1.
        -11    1    4    4    0    0  0.28142825921E-01  0.21905743962E-01  0.20611371222E-01  0.41194295891E-01  0.51100000000E-03 0. -1.
         11    1    4    4    0    0  0.13381252129E-01  0.36956535025E-01  0.89546804145E-01  0.97794348728E-01  0.51100000000E-03 0.  1.
</event>
<event>
 8    1  0.2077555E+004  0.1043930E+01  0.7957747E-01            NaN
         13   -1    0    0    0    0  0.00000000000E+00  0.00000000000E+00  0.74505805969E-08  0.10566000000E+00  0.10566000000E+00 0.  1.
     999900   -1    0    0    0    0 -0.00000000000E+00 -0.00000000000E+00 -0.74505805969E-08  0.93827000000E+00  0.93827000000E+00 0.  1.
     999902    2    1    2    0    0  0.13021045869E-01 -0.20924495067E-02  0.59311240666E-02  0.10294695639E+01  0.10293679997E+01 0.  0.
     999903    2    3    3    0    0  0.14625879462E-01  0.13135784024E+00  0.18669576604E-01  0.13931574373E+00  0.39893919575E-01 0.  0.
         14    1    1    2    0    0 -0.13021045869E-01  0.20924495067E-02 -0.59311240666E-02  0.14460436133E-01  0.00000000000E+00 0.  1.
     999901    1    3    3    0    0 -0.16048335925E-02 -0.13345028975E+00 -0.12738452538E-01  0.89015382013E+00  0.88000000000E+00 0.  1.
        -11    1    4    4    0    0  0.70601828391E-02  0.69046954331E-01  0.29853270066E-01  0.75556647218E-01  0.51100000000E-03 0. -1.
         11    1    4    4    0    0  0.75656966226E-02  0.62310885909E-01 -0.11183693462E-01  0.63759096516E-01  0.51100000000E-03 0.  1.
</event>
<event>
 8    1  0.3335235E+004  0.1043930E+01  0.7957747E-01            NaN
         13   -1    0    0    0    0  0.00000000000E+00  0.00000000000E+00  0.74505805969E-08  0.10566000000E+00  0.10566000000E+00 0.  1.
     999900   -1    0    0    0    0 -0.00000000000E+00 -0.00000000000E+00 -0.74505805969E-08  0.93827000000E+00  0.93827000000E+00 0. -1.
     999902    2    1    2    0    0  0.58318305473E-02 -0.12382767331E-01 -0.73790550091E-03  0.10302227873E+01  0.10301315954E+01 0.  0.
     999903    2    3    3    0    0  0.44802460017E-01  0.99120381923E-01  0.74071888318E-01  0.13918509594E+00  0.45318161433E-01 0.  0.
         14    1    1    2    0    0 -0.58318305473E-02  0.12382767331E-01  0.73790550091E-03  0.13707212658E-01  0.00000000000E+00 0. -1.
     999901    1    3    3    0    0 -0.38970629469E-01 -0.11150314925E+00 -0.74809793818E-01  0.89103769141E+00  0.88000000000E+00 0.  1.
        -11    1    4    4    0    0  0.73719111730E-02  0.38039109997E-01  0.50734398806E-01  0.63840107353E-01  0.51100000000E-03 0. -1.
         11    1    4    4    0    0  0.37430548844E-01  0.61081271926E-01  0.23337489512E-01  0.75344988583E-01  0.51100000000E-03 0.  1.
</event>
<event>
 8    1  0.2077555E+004  0.1043930E+01  0.7957747E-01            NaN
         13   -1    0    0    0    0  0.00000000000E+00  0.00000000000E+00  0.74505805969E-08  0.10566000000E+00  0.10566000000E+00 0.  1.
     999900   -1    0    0    0    0 -0.00000000000E+00 -0.00000000000E+00 -0.74505805969E-08  0.93827000000E+00  0.93827000000E+00 0.  1.
     999902    2    1    2    0    0  0.44570263413E-02  0.43538199563E-02 -0.12698993634E-01  0.10297848499E+01  0.10296876963E+01 0.  0.
     999903    2    3    3    0    0 -0.35745198829E-01  0.99111648849E-01  0.78359863445E-01  0.13911825656E+00  0.45965018564E-01 0.  0.
         14    1    1    2    0    0 -0.44570263413E-02 -0.43538199563E-02  0.12698993634E-01  0.14145150100E-01  0.00000000000E+00 0.  1.
     999901    1    3    3    0    0  0.40202225171E-01 -0.94757828893E-01 -0.91058857079E-01  0.89066659334E+00  0.88000000000E+00 0. -1.
        -11    1    4    4    0    0  0.54745549979E-02  0.47904912005E-01  0.24242563967E-01  0.53970495415E-01  0.51100000000E-03 0.  1.
         11    1    4    4    0    0 -0.41219753827E-01  0.51206736844E-01  0.54117299478E-01  0.85147761142E-01  0.51100000000E-03 0. -1.
</event>
<event>
 8    1  0.2077555E+004  0.1043930E+01  0.7957747E-01            NaN
         13   -1    0    0    0    0  0.00000000000E+00  0.00000000000E+00  0.74505805969E-08  0.10566000000E+00  0.10566000000E+00 0. -1.
     999900   -1    0    0    0    0 -0.00000000000E+00 -0.00000000000E+00 -0.74505805969E-08  0.93827000000E+00  0.93827000000E+00 0. -1.
     999902    2    1    2    0    0  0.19094817578E-02 -0.11410069713E-01 -0.80229245797E-02  0.10298515367E+01  0.10297553032E+01 0.  0.
     999903    2    3    3    0    0 -0.10374197736E+00 -0.83672907161E-01 -0.22537051173E-03  0.14055690025E+00  0.44638975745E-01 0.  0.
         14    1    1    2    0    0 -0.19094817578E-02  0.11410069713E-01  0.80229245797E-02  0.14078463348E-01  0.00000000000E+00 0. -1.
     999901    1    3    3    0    0  0.10565145912E+00  0.72262837448E-01 -0.77975540680E-02  0.88929463641E+00  0.88000000000E+00 0.  1.
        -11    1    4    4    0    0 -0.55020249274E-01 -0.69076664018E-01  0.93285032059E-02  0.88803690437E-01  0.51100000000E-03 0. -1.
         11    1    4    4    0    0 -0.48721728086E-01 -0.14596243142E-01 -0.95538737176E-02  0.51753209810E-01  0.51100000000E-03 0.  1.
</event>
<event>
 8    1  0.2077555E+004  0.1043930E+01  0.7957747E-01            NaN
         13   -1    0    0    0    0  0.00000000000E+00  0.00000000000E+00  0.74505805969E-08  0.10566000000E+00  0.10566000000E+00 0. -1.
     999900   -1    0    0    0    0 -0.00000000000E+00 -0.00000000000E+00 -0.74505805969E-08  0.93827000000E+00  0.93827000000E+00 0.  1.
     999902    2    1    2    0    0  0.84101073523E-02  0.11269785335E-01  0.75398714276E-03  0.10298478672E+01  0.10297515832E+01 0.  0.
     999903    2    3    3    0    0  0.10764095556E+00 -0.55621098366E-01 -0.54572716665E-01  0.14002642686E+00  0.44146765653E-01 0.  0.
         14    1    1    2    0    0 -0.84101073523E-02 -0.11269785335E-01 -0.75398714276E-03  0.14082132785E-01  0.00000000000E+00 0. -1.
     999901    1    3    3    0    0 -0.99230848209E-01  0.66890883701E-01  0.55326703808E-01  0.88982144035E+00  0.88000000000E+00 0. -1.
        -11    1    4    4    0    0  0.36770144102E-01 -0.36863811335E-01 -0.39056617368E-01  0.65089665575E-01  0.51100000000E-03 0.  1.
         11    1    4    4    0    0  0.70870811459E-01 -0.18757287031E-01 -0.15516099298E-01  0.74936761286E-01  0.51100000000E-03 0. -1.
</event>
<event>
 8    1  0.2077555E+004  0.1043930E+01  0.7957747E-01            NaN
         13   -1    0    0    0    0  0.00000000000E+00  0.00000000000E+00  0.74505805969E-08  0.10566000000E+00  0.10566000000E+00 0. -1.
     999900   -1    0    0    0    0 -0.00000000000E+00 -0.00000000000E+00 -0.74505805969E-08  0.93827000000E+00  0.93827000000E+00 0.  1.
     999902    2    1    2    0    0  0.11764249232E-01  0.47150287995E-02 -0.52574225349E-02  0.10302088649E+01  0.10301174864E+01 0.  0.
     999903    2    3    3    0    0  0.60803212950E-01  0.96672320625E-01 -0.68853152185E-01  0.14178026321E+00  0.48148916807E-01 0.  0.
         14    1    1    2    0    0 -0.11764249232E-01 -0.47150287995E-02  0.52574225349E-02  0.13721135095E-01  0.00000000000E+00 0. -1.
     999901    1    3    3    0    0 -0.49038963718E-01 -0.91957291826E-01  0.63595729650E-01  0.88842860170E+00  0.88000000000E+00 0. -1.
        -11    1    4    4    0    0  0.18132302785E-01  0.50294685416E-01 -0.77963811815E-02  0.54031291544E-01  0.51100000000E-03 0.  1.
         11    1    4    4    0    0  0.42670910165E-01  0.46377635210E-01 -0.61056771004E-01  0.87748971665E-01  0.51100000000E-03 0. -1.
</event>
<event>
 8    1  0.2077555E+004  0.1043930E+01  0.7957747E-01            NaN
         13   -1    0    0    0    0  0.00000000000E+00  0.00000000000E+00  0.74505805969E-08  0.10566000000E+00  0.10566000000E+00 0.  1.
     999900   -1    0    0    0    0 -0.00000000000E+00 -0.00000000000E+00 -0.74505805969E-08  0.93827000000E+00  0.93827000000E+00 0. -1.
     999902    2    1    2    0    0 -0.78644777940E-02  0.12406850135E-02  0.13335645738E-01  0.10283984593E+01  0.10282811689E+01 0.  0.
     999903    2    3    3    0    0  0.13688832799E-01  0.10677160959E+00 -0.73447346901E-01  0.13759398630E+00  0.44159161466E-01 0.  0.
         14    1    1    2    0    0  0.78644777940E-02 -0.12406850135E-02 -0.13335645738E-01  0.15531540732E-01  0.00000000000E+00 0. -1.
     999901    1    3    3    0    0 -0.21553310593E-01 -0.10553092458E+00  0.86782992639E-01  0.89080447296E+00  0.88000000000E+00 0.  1.
        -11    1    4    4    0    0  0.28208483069E-01  0.46872883760E-01 -0.33790572438E-01  0.64302796640E-01  0.51100000000E-03 0. -1.
         11    1    4    4    0    0 -0.14519650269E-01  0.59898725834E-01 -0.39656774463E-01  0.73291189664E-01  0.51100000000E-03 0.  1.
</event>
<event>
 8    1  0.2077555E+004  0.1043930E+01  0.7957747E-01            NaN
         13   -1    0    0    0    0  0.00000000000E+00  0.00000000000E+00  0.74505805969E-08  0.10566000000E+00  0.10566000000E+00 0.  1.
     999900   -1    0    0    0    0 -0.00000000000E+00 -0.00000000000E+00 -0.74505805969E-08  0.93827000000E+00  0.93827000000E+00 0.  1.
     999902    2    1    2    0    0  0.92463217584E-03 -0.23708733426E-02  0.13825985802E-01  0.10298717687E+01  0.10297758135E+01 0.  0.
     999903    2    3    3    0    0 -0.25635728391E-01 -0.75758914256E-01  0.10754440041E+00  0.14146060341E+00  0.45262573923E-01 0.  0.
         14    1    1    2    0    0 -0.92463217584E-03  0.23708733426E-02 -0.13825985802E-01  0.14058231341E-01  0.00000000000E+00 0. -1.
     999901    1    3    3    0    0  0.26560360567E-01  0.73388040914E-01 -0.93718414608E-01  0.88841116525E+00  0.88000000000E+00 0.  1.
        -11    1    4    4    0    0 -0.14426588625E-02 -0.33779064633E-01  0.14985421562E-01  0.36985543831E-01  0.51100000000E-03 0. -1.
         11    1    4    4    0    0 -0.24193069529E-01 -0.41979849623E-01  0.92558978848E-01  0.10447505958E+00  0.51100000000E-03 0.  1.
</event>
<event>
 8    1  0.2077555E+004  0.1043930E+01  0.7957747E-01            NaN
         13   -1    0    0    0    0  0.00000000000E+00  0.00000000000E+00  0.74505805969E-08  0.10566000000E+00  0.10566000000E+00 0.  1.
     999900   -1    0    0    0    0 -0.00000000000E+00 -0.00000000000E+00 -0.74505805969E-08  0.93827000000E+00  0.93827000000E+00 0. -1.
     999902    2    1    2    0    0 -0.84742804942E-02 -0.75622782930E-02 -0.78515134509E-02  0.10301224750E+01  0.10300299344E+01 0.  0.
     999903    2    3    3    0    0 -0.13127685505E+00 -0.20267437506E-01  0.16360626766E-01  0.14117471438E+00  0.44924917136E-01 0.  0.
         14    1    1    2    0    0  0.84742804942E-02  0.75622782930E-02  0.78515134509E-02  0.13807524990E-01  0.00000000000E+00 0.  1.
     999901    1    3    3    0    0  0.12280257455E+00  0.12705159213E-01 -0.24212140217E-01  0.88894776063E+00  0.88000000000E+00 0. -1.
        -11    1    4    4    0    0 -0.10443875976E+00 -0.33191303136E-01  0.64482814361E-02  0.10977685821E+00  0.51100000000E-03 0.  1.
         11    1    4    4    0    0 -0.26838095286E-01  0.12923865631E-01  0.99123453302E-02  0.31397856175E-01  0.51100000000E-03 0. -1.
</event>
<event>
 8    1  0.2077555E+004  0.1043930E+01  0.7957747E-01            NaN
         13   -1    0    0    0    0  0.00000000000E+00  0.00000000000E+00  0.74505805969E-08  0.10566000000E+00  0.10566000000E+00 0.  1.
     999900   -1    0    0    0    0 -0.00000000000E+00 -0.00000000000E+00 -0.74505805969E-08  0.93827000000E+00  0.93827000000E+00 0. -1.
     999902    2    1    2    0    0 -0.92502348854E-02  0.98246693469E-02  0.41608159049E-03  0.10304294779E+01  0.10303410333E+01 0.  0.
     999903    2    3    3    0    0 -0.11640681588E+00  0.41223159102E-01  0.53295585399E-01  0.14179871097E+00  0.44906117404E-01 0.  0.
         14    1    1    2    0    0  0.92502348854E-02 -0.98246693469E-02 -0.41608159049E-03  0.13500522105E-01  0.00000000000E+00 0.  1.
     999901    1    3    3    0    0  0.10715658099E+00 -0.31398489755E-01 -0.52879503808E-01  0.88863076693E+00  0.88000000000E+00 0. -1.
        -11    1    4    4    0    0 -0.51861327735E-01  0.94107614730E-03  0.60167397870E-02  0.52220161024E-01  0.51100000000E-03 0. -1.
         11    1    4    4    0    0 -0.64545488141E-01  0.40282082955E-01  0.47278845612E-01  0.89578549943E-01  0.51100000000E-03 0.  1.
</event>
<event>
 8    1  0.2077555E+004  0.1043930E+01  0.7957747E-01            NaN
         13   -1    0    0    0    0  0.00000000000E+00  0.00000000000E+00  0.74505805969E-08  0.10566000000E+00  0.10566000000E+00 0. -1.
     999900   -1    0    0    0    0 -0.00000000000E+00 -0.00000000000E+00 -0.74505805969E-08  0.93827000000E+00  0.93827000000E+00 0. -1.
     999902    2    1    2    0    0  0.12184667766E-01  0.50477601501E-02 -0.55112360870E-03  0.10307296308E+01  0.10306450999E+01 0.  0.
     999903    2    3    3    0    0 -0.16587448880E-02  0.13131051286E+00 -0.16469349458E-01  0.14146740131E+00  0.49965827710E-01 0.  0.
         14    1    1    2    0    0 -0.12184667766E-01 -0.50477601501E-02  0.55112360870E-03  0.13200369250E-01  0.00000000000E+00 0.  1.
     999901    1    3    3    0    0  0.13843412654E-01 -0.12626275271E+00  0.15918225850E-01  0.88926222944E+00  0.88000000000E+00 0.  1.
        -11    1    4    4    0    0 -0.25063683193E-01  0.79891908798E-01 -0.14172170096E-01  0.84923594088E-01  0.51100000000E-03 0.  1.
         11    1    4    4    0    0  0.23404938305E-01  0.51418604065E-01 -0.22971793627E-02  0.56543807221E-01  0.51100000000E-03 0. -1.
</event>
<event>
 8    1  0.2077555E+004  0.1043930E+01  0.7957747E-01            NaN
         13   -1    0    0    0    0  0.00000000000E+00  0.00000000000E+00  0.74505805969E-08  0.10566000000E+00  0.10566000000E+00 0. -1.
     999900   -1    0    0    0    0 -0.00000000000E+00 -0.00000000000E+00 -0.74505805969E-08  0.93827000000E+00  0.93827000000E+00 0.  1.
     999902    2    1    2    0    0  0.60739377168E-02  0.10820682353E-01  0.62353168148E-02  0.10300426294E+01  0.10299490081E+01 0.  0.
     999903    2    3    3    0    0 -0.16965766457E-02  0.51777071249E-02 -0.13163877862E+00  0.13925562331E+00  0.45096269946E-01 0.  0.
         14    1    1    2    0    0 -0.60739377168E-02 -0.10820682353E-01 -0.62353168148E-02  0.13887370584E-01  0.00000000000E+00 0.  1.
     999901    1    3    3    0    0  0.77705143625E-02  0.56429752280E-02  0.13787409543E+00  0.89078700611E+00  0.88000000000E+00 0. -1.
        -11    1    4    4    0    0 -0.12788671307E-01 -0.16609463084E-01 -0.60119792656E-01  0.63671618228E-01  0.51100000000E-03 0.  1.
         11    1    4    4    0    0  0.11092094661E-01  0.21787170209E-01 -0.71518985961E-01  0.75584005078E-01  0.51100000000E-03 0. -1.
</event>
<event>
 8    1  0.2077555E+004  0.1043930E+01  0.7957747E-01            NaN
         13   -1    0    0    0    0  0.00000000000E+00  0.00000000000E+00  0.74505805969E-08  0.10566000000E+00  0.10566000000E+00 0. -1.
     999900   -1    0    0    0    0 -0.00000000000E+00 -0.00000000000E+00 -0.74505805969E-08  0.93827000000E+00  0.93827000000E+00 0.  1.
     999902    2    1    2    0    0 -0.74873624914E-02  0.23620301538E-02  0.10956480152E-01  0.10304509703E+01  0.10303628089E+01 0.  0.
     999903    2    3    3    0    0 -0.28886397702E-01 -0.71828510921E-01  0.11060582021E+00  0.14146719879E+00  0.42255909833E-01 0.  0.
         14    1    1    2    0    0  0.74873624914E-02 -0.23620301538E-02 -0.10956480152E-01  0.13479029670E-01  0.00000000000E+00 0.  1.
     999901    1    3    3    0    0  0.21399035211E-01  0.74190541075E-01 -0.99649340054E-01  0.88898377154E+00  0.88000000000E+00 0.  1.
        -11    1    4    4    0    0 -0.19563136870E-01 -0.32774875384E-01  0.86709676162E-01  0.94740370708E-01  0.51100000000E-03 0.  1.
         11    1    4    4    0    0 -0.93232608318E-02 -0.39053635537E-01  0.23896144044E-01  0.46726828079E-01  0.51100000000E-03 0. -1.
</event>
<event>
 8    1  0.2077555E+004  0.1043930E+01  0.7957747E-01            NaN
         13   -1    0    0    0    0  0.00000000000E+00  0.00000000000E+00  0.74505805969E-08  0.10566000000E+00  0.10566000000E+00 0.  1.
     999900   -1    0    0    0    0 -0.00000000000E+00 -0.00000000000E+00 -0.74505805969E-08  0.93827000000E+00  0.93827000000E+00 0. -1.
     999902    2    1    2    0    0 -0.66509813470E-02 -0.48970351364E-02  0.12120385019E-01  0.10292630222E+01  0.10291585148E+01 0.  0.
     999903    2    3    3    0    0  0.24227697316E-01  0.12774521914E+00 -0.16545524697E-01  0.13832576578E+00  0.44209057452E-01 0.  0.
         14    1    1    2    0    0  0.66509813470E-02  0.48970351364E-02 -0.12120385019E-01  0.14666977842E-01  0.00000000000E+00 0. -1.
     999901    1    3    3    0    0 -0.30878678663E-01 -0.13264225428E+00  0.28665909717E-01  0.89093725637E+00  0.88000000000E+00 0. -1.
        -11    1    4    4    0    0  0.57506732138E-02  0.32492319814E-01 -0.24306007526E-01  0.40986146588E-01  0.51100000000E-03 0. -1.
         11    1    4    4    0    0  0.18477024103E-01  0.95252899329E-01  0.77604828283E-02  0.97339619195E-01  0.51100000000E-03 0.  1.
</event>
<event>
 8    1  0.2077555E+004  0.1043930E+01  0.7957747E-01            NaN
         13   -1    0    0    0    0  0.00000000000E+00  0.00000000000E+00  0.74505805969E-08  0.10566000000E+00  0.10566000000E+00 0. -1.
     999900   -1    0    0    0    0 -0.00000000000E+00 -0.00000000000E+00 -0.74505805969E-08  0.93827000000E+00  0.93827000000E+00 0. -1.
     999902    2    1    2    0    0 -0.28760986358E-02  0.14304619650E-01 -0.36435176922E-02  0.10288910736E+01  0.10287811585E+01 0.  0.
     999903    2    3    3    0    0  0.87772739180E-01 -0.95013444615E-01 -0.12671414299E-01  0.13746011501E+00  0.44756117778E-01 0.  0.
         14    1    1    2    0    0  0.28760986358E-02 -0.14304619650E-01  0.36435176922E-02  0.15038926420E-01  0.00000000000E+00 0. -1.
     999901    1    3    3    0    0 -0.90648837816E-01  0.10931806427E+00  0.90278966068E-02  0.89143095857E+00  0.88000000000E+00 0.  1.
        -11    1    4    4    0    0  0.16345217552E-01 -0.44441320293E-01  0.66888767184E-02  0.47824672283E-01  0.51100000000E-03 0. -1.
         11    1    4    4    0    0  0.71427521628E-01 -0.50572124322E-01 -0.19360291017E-01  0.89635442731E-01  0.51100000000E-03 0.  1.
</event>
<event>
 8    1  0.2077555E+004  0.1043930E+01  0.7957747E-01            NaN
         13   -1    0    0    0    0  0.00000000000E+00  0.00000000000E+00  0.74505805969E-08  0.10566000000E+00  0.10566000000E+00 0. -1.
     999900   -1    0    0    0    0 -0.00000000000E+00 -0.00000000000E+00 -0.74505805969E-08  0.93827000000E+00  0.93827000000E+00 0. -1.
     999902    2    1    2    0    0 -0.75327634688E-02  0.10800683702E-01  0.85571823362E-03  0.10307341845E+01  0.10306497123E+01 0.  0.
     999903    2    3    3    0    0 -0.54684705780E-01 -0.72013455167E-01  0.97246320311E-01  0.14035637958E+00  0.45461100999E-01 0.  0.
         14    1    1    2    0    0  0.75327634688E-02 -0.10800683702E-01 -0.85571823362E-03  0.13195815534E-01  0.00000000000E+00 0.  1.
     999901    1    3    3    0    0  0.47151942311E-01  0.82814138870E-01 -0.96390602077E-01  0.89037780488E+00  0.88000000000E+00 0. -1.
        -11    1    4    4    0    0 -0.32057832020E-01 -0.25839138211E-01  0.72295222430E-01  0.83199915652E-01  0.51100000000E-03 0. -1.
         11    1    4    4    0    0 -0.22626873760E-01 -0.46174316957E-01  0.24951097881E-01  0.57156463931E-01  0.51100000000E-03 0.  1.
</event>
<event>
 8    1  0.2077555E+004  0.1043930E+01  0.7957747E-01            NaN
         13   -1    0    0    0    0  0.00000000000E+00  0.00000000000E+00  0.74505805969E-08  0.10566000000E+00  0.10566000000E+00 0.  1.
     999900   -1    0    0    0    0 -0.00000000000E+00 -0.00000000000E+00 -0.74505805969E-08  0.93827000000E+00  0.93827000000E+00 0. -1.
     999902    2    1    2    0    0 -0.54620933235E-04 -0.40117298012E-02  0.15488702777E-01  0.10279300977E+01  0.10278055696E+01 0.  0.
     999903    2    3    3    0    0 -0.37606140791E-02 -0.40980833370E-01  0.12621045449E+00  0.14021406468E+00  0.45136838494E-01 0.  0.
         14    1    1    2    0    0  0.54620933235E-04  0.40117298012E-02 -0.15488702777E-01  0.15999902285E-01  0.00000000000E+00 0. -1.
     999901    1    3    3    0    0  0.37059931459E-02  0.36969103568E-01 -0.11072175171E+00  0.88771603303E+00  0.88000000000E+00 0. -1.
        -11    1    4    4    0    0 -0.13032188713E-01 -0.13084328199E-01  0.11421973206E-01  0.21720040976E-01  0.51100000000E-03 0. -1.
         11    1    4    4    0    0  0.92715746335E-02 -0.27896505171E-01  0.11478848129E+00  0.11849402370E+00  0.51100000000E-03 0.  1.
</event>
<event>
 8    1  0.2077555E+004  0.1043930E+01  0.7957747E-01            NaN
         13   -1    0    0    0    0  0.00000000000E+00  0.00000000000E+00  0.74505805969E-08  0.10566000000E+00  0.10566000000E+00 0.  1.
     999900   -1    0    0    0    0 -0.00000000000E+00 -0.00000000000E+00 -0.74505805969E-08  0.93827000000E+00  0.93827000000E+00 0.  1.
     999902    2    1    2    0    0 -0.10247484913E-01  0.43452369424E-02 -0.83747093208E-02  0.10300006143E+01  0.10299064218E+01 0.  0.
     999903    2    3    3    0    0 -0.11575552358E+00  0.65137224208E-01 -0.23615538567E-01  0.14148505737E+00  0.42639519018E-01 0.  0.
         14    1    1    2    0    0  0.10247484913E-01 -0.43452369424E-02  0.83747093208E-02  0.13929385748E-01  0.00000000000E+00 0.  1.
     999901    1    3    3    0    0  0.10550803866E+00 -0.60791987265E-01  0.15240829246E-01  0.88851555688E+00  0.88000000000E+00 0. -1.
        -11    1    4    4    0    0 -0.75337093604E-01  0.55235798487E-01  0.43422783947E-03  0.93419060057E-01  0.51100000000E-03 0.  1.
         11    1    4    4    0    0 -0.40418429973E-01  0.99014257210E-02 -0.24049766407E-01  0.48065997316E-01  0.51100000000E-03 0. -1.
</event>
<event>
 8    1  0.2077555E+004  0.1043930E+01  0.7957747E-01            NaN
         13   -1    0    0    0    0  0.00000000000E+00  0.00000000000E+00  0.74505805969E-08  0.10566000000E+00  0.10566000000E+00 0.  1.
     999900   -1    0    0    0    0 -0.00000000000E+00 -0.00000000000E+00 -0.74505805969E-08  0.93827000000E+00  0.93827000000E+00 0. -1.
     999902    2    1    2    0    0  0.69506302764E-02  0.62025824943E-02  0.94219954597E-02  0.10306801966E+01  0.10305950274E+01 0.  0.
     999903    2    3    3    0    0  0.94958133511E-01 -0.61139209282E-01  0.72400709942E-01  0.14149711311E+00  0.44994668425E-01 0.  0.
         14    1    1    2    0    0 -0.69506302764E-02 -0.62025824943E-02 -0.94219954597E-02  0.13249803368E-01  0.00000000000E+00 0. -1.
     999901    1    3    3    0    0 -0.88007503235E-01  0.67341791776E-01 -0.62978714482E-01  0.88918308352E+00  0.88000000000E+00 0. -1.
        -11    1    4    4    0    0  0.59572976226E-01 -0.13588032834E-01  0.26860338983E-01  0.66748131539E-01  0.51100000000E-03 0.  1.
         11    1    4    4    0    0  0.35385157285E-01 -0.47551176448E-01  0.45540370959E-01  0.74748981570E-01  0.51100000000E-03 0. -1.
</event>
<event>
 8    1  0.2077555E+004  0.1043930E+01  0.7957747E-01            NaN
         13   -1    0    0    0    0  0.00000000000E+00  0.00000000000E+00  0.74505805969E-08  0.10566000000E+00  0.10566000000E+00 0. -1.
     999900   -1    0    0    0    0 -0.00000000000E+00 -0.00000000000E+00 -0.74505805969E-08  0.93827000000E+00  0.93827000000E+00 0. -1.
     999902    2    1    2    0    0  0.26966227349E-02 -0.47083705338E-02 -0.13121022495E-01  0.10297313466E+01  0.10296334515E+01 0.  0.
     999903    2    3    3    0    0 -0.14865017133E-01  0.19962767410E-01 -0.13191838797E+00  0.14123267451E+00  0.43871704412E-01 0.  0.
         14    1    1    2    0    0 -0.26966227349E-02  0.47083705338E-02  0.13121022495E-01  0.14198653407E-01  0.00000000000E+00 0. -1.
     999901    1    3    3    0    0  0.17561639868E-01 -0.24671137944E-01  0.11879736548E+00  0.88849867208E+00  0.88000000000E+00 0.  1.
        -11    1    4    4    0    0 -0.34319045848E-02  0.31440302393E-01 -0.63777415799E-01  0.71190522337E-01  0.51100000000E-03 0.  1.
         11    1    4    4    0    0 -0.11433112548E-01 -0.11477534983E-01 -0.68140972173E-01  0.70042152177E-01  0.51100000000E-03 0. -1.
</event>
<event>
 8    1  0.2077555E+004  0.1043930E+01  0.7957747E-01            NaN
         13   -1    0    0    0    0  0.00000000000E+00  0.00000000000E+00  0.74505805969E-08  0.10566000000E+00  0.10566000000E+00 0. -1.
     999900   -1    0    0    0    0 -0.00000000000E+00 -0.00000000000E+00 -0.74505805969E-08  0.93827000000E+00  0.93827000000E+00 0. -1.
     999902    2    1    2    0    0 -0.87830006686E-02 -0.60917049787E-02  0.79037331873E-02  0.10306364313E+01  0.10305506948E+01 0.  0.
     999903    2    3    3    0    0  0.14991372075E-01 -0.26776563505E-02  0.13330193980E+00  0.14142240378E+00  0.44709932421E-01 0.  0.
         14    1    1    2    0    0  0.87830006686E-02  0.60917049787E-02 -0.79037331873E-02  0.13293568693E-01  0.00000000000E+00 0.  1.
     999901    1    3    3    0    0 -0.23774372744E-01 -0.34140486282E-02 -0.12539820661E+00  0.88921402753E+00  0.88000000000E+00 0. -1.
        -11    1    4    4    0    0  0.19210399001E-01 -0.97691034218E-02  0.25878674937E-01  0.33681474863E-01  0.51100000000E-03 0. -1.
         11    1    4    4    0    0 -0.42190269256E-02  0.70914470713E-02  0.10742326486E+00  0.10774092892E+00  0.51100000000E-03 0.  1.
</event>
<event>
 7    1  0.2401275E+004  0.1043930E+01  0.7957747E-01            NaN
         13   -1    0    0    0    0  0.00000000000E+00  0.00000000000E+00  0.74505805969E-08  0.10566000000E+00  0.10566000000E+00 0.  1.
     999900   -1    0    0    0    0 -0.00000000000E+00 -0.00000000000E+00 -0.74505805969E-08  0.93827000000E+00  0.93827000000E+00 0.  1.
     999902    2    1    2    0    0  0.67704360793E-03 -0.19443278506E-01  0.29170979602E-02  0.10242574575E+01  0.10240685184E+01 0.  0.
         14    1    1    2    0    0 -0.67704360793E-03  0.19443278506E-01 -0.29170979602E-02  0.19672542480E-01  0.00000000000E+00 0.  1.
     999901    1    3    3    0    0 -0.96846645388E-01 -0.52082024421E-01  0.84141016172E-01  0.89082631337E+00  0.88000000000E+00 0. -1.
        -11    1    3    3    0    0  0.42505582929E-01  0.22959421720E-02 -0.26789518856E-01  0.50298462920E-01  0.51100000000E-03 0.  1.
         11    1    3    3    0    0  0.55018106067E-01  0.30342803743E-01 -0.54434399356E-01  0.83132681230E-01  0.51100000000E-03 0. -1.
</event>
<event>
 8    1  0.2077555E+004  0.1043930E+01  0.7957747E-01            NaN
         13   -1    0    0    0    0  0.00000000000E+00  0.00000000000E+00  0.74505805969E-08  0.10566000000E+00  0.10566000000E+00 0. -1.
     999900   -1    0    0    0    0 -0.00000000000E+00 -0.00000000000E+00 -0.74505805969E-08  0.93827000000E+00  0.93827000000E+00 0.  1.
     999902    2    1    2    0    0  0.53171156817E-02  0.11038614229E-01 -0.85162812850E-03  0.10316479809E+01  0.10315748681E+01 0.  0.
     999903    2    3    3    0    0 -0.70668364379E-01 -0.91428776691E-01 -0.66054402700E-01  0.14006244870E+00  0.43601221168E-01 0.  0.
         14    1    1    2    0    0 -0.53171156817E-02 -0.11038614229E-01  0.85162812850E-03  0.12282019123E-01  0.00000000000E+00 0. -1.
     999901    1    3    3    0    0  0.75985480061E-01  0.10246739092E+00  0.65202774572E-01  0.89158553218E+00  0.88000000000E+00 0. -1.
        -11    1    4    4    0    0 -0.37746308996E-01 -0.70145135585E-01 -0.25463072760E-01  0.83628661859E-01  0.51100000000E-03 0. -1.
         11    1    4    4    0    0 -0.32922055383E-01 -0.21283641106E-01 -0.40591329940E-01  0.56433786837E-01  0.51100000000E-03 0.  1.
</event>
<event>
 8    1  0.2077555E+004  0.1043930E+01  0.7957747E-01            NaN
         13   -1    0    0    0    0  0.00000000000E+00  0.00000000000E+00  0.74505805969E-08  0.10566000000E+00  0.10566000000E+00 0. -1.
     999900   -1    0    0    0    0 -0.00000000000E+00 -0.00000000000E+00 -0.74505805969E-08  0.93827000000E+00  0.93827000000E+00 0.  1.
     999902    2    1    2    0    0  0.64710340526E-02 -0.65828633837E-02 -0.99940922393E-02  0.10303252122E+01  0.10302353870E+01 0.  0.
     999903    2    3    3    0    0  0.88688533112E-01  0.98543049413E-01  0.88948155993E-02  0.14006234901E+00  0.44293965421E-01 0.  0.
         14    1    1    2    0    0 -0.64710340526E-02  0.65828633837E-02  0.99940922393E-02  0.13604787824E-01  0.00000000000E+00 0. -1.
     999901    1    3    3    0    0 -0.82217499059E-01 -0.10512591280E+00 -0.18888907839E-01  0.89026286317E+00  0.88000000000E+00 0.  1.
        -11    1    4    4    0    0  0.57903480091E-01  0.57074868717E-01 -0.15778932120E-01  0.82822638605E-01  0.51100000000E-03 0.  1.
         11    1    4    4    0    0  0.30785053021E-01  0.41468180696E-01  0.24673747720E-01  0.57239710405E-01  0.51100000000E-03 0. -1.
</event>
<event>
 8    1  0.2077555E+004  0.1043930E+01  0.7957747E-01            NaN
         13   -1    0    0    0    0  0.00000000000E+00  0.00000000000E+00  0.74505805969E-08  0.10566000000E+00  0.10566000000E+00 0. -1.
     999900   -1    0    0    0    0 -0.00000000000E+00 -0.00000000000E+00 -0.74505805969E-08  0.93827000000E+00  0.93827000000E+00 0.  1.
     999902    2    1    2    0    0  0.10395594686E-01  0.23711391467E-03 -0.12822852428E-01  0.10274209069E+01  0.10272882603E+01 0.  0.
     999903    2    3    3    0    0 -0.60404329824E-01 -0.11414531125E+00 -0.78931626710E-03  0.13711715280E+00  0.46072284844E-01 0.  0.
         14    1    1    2    0    0 -0.10395594686E-01 -0.23711391467E-03  0.12822852428E-01  0.16509093139E-01  0.00000000000E+00 0. -1.
     999901    1    3    3    0    0  0.70799924510E-01  0.11438242517E+00 -0.12033536160E-01  0.89030375406E+00  0.88000000000E+00 0. -1.
        -11    1    4    4    0    0 -0.53435940949E-01 -0.72448179163E-01  0.16349234699E-01  0.91496978340E-01  0.51100000000E-03 0. -1.
         11    1    4    4    0    0 -0.69683888756E-02 -0.41697132087E-01 -0.17138550966E-01  0.45620174463E-01  0.51100000000E-03 0.  1.
</event>
<event>
 8    1  0.2077555E+004  0.1043930E+01  0.7957747E-01            NaN
         13   -1    0    0    0    0  0.00000000000E+00  0.00000000000E+00  0.74505805969E-08  0.10566000000E+00  0.10566000000E+00 0.  1.
     999900   -1    0    0    0    0 -0.00000000000E+00 -0.00000000000E+00 -0.74505805969E-08  0.93827000000E+00  0.93827000000E+00 0. -1.
     999902    2    1    2    0    0 -0.10508259857E-01  0.29152425785E-02 -0.95063880284E-02  0.10294630177E+01  0.10293613608E+01 0.  0.
     999903    2    3    3    0    0  0.70324627528E-02 -0.98205100910E-01  0.86183993847E-01  0.13834593782E+00  0.44924607259E-01 0.  0.
         14    1    1    2    0    0  0.10508259857E-01 -0.29152425785E-02  0.95063880284E-02  0.14466982335E-01  0.00000000000E+00 0.  1.
     999901    1    3    3    0    0 -0.17540722610E-01  0.10112034349E+00 -0.95690381876E-01  0.89111707985E+00  0.88000000000E+00 0. -1.
        -11    1    4    4    0    0  0.17036950188E-01 -0.45967709694E-01  0.64233675475E-01  0.80805409424E-01  0.51100000000E-03 0. -1.
         11    1    4    4    0    0 -0.10004487435E-01 -0.52237391216E-01  0.21950318373E-01  0.57540528391E-01  0.51100000000E-03 0.  1.
</event>
<event>
 8    1  0.2077555E+004  0.1043930E+01  0.7957747E-01            NaN
         13   -1    0    0    0    0  0.00000000000E+00  0.00000000000E+00  0.74505805969E-08  0.10566000000E+00  0.10566000000E+00 0.  1.
     999900   -1    0    0    0    0 -0.00000000000E+00 -0.00000000000E+00 -0.74505805969E-08  0.93827000000E+00  0.93827000000E+00 0.  1.
     999902    2    1    2    0    0 -0.13240938032E-03 -0.73563010862E-02  0.12857097860E-01  0.10291165715E+01  0.10290099514E+01 0.  0.
     999903    2    3    3    0    0 -0.12537150929E+00  0.33483051749E-01  0.21534650041E-01  0.13926940217E+00  0.45750356647E-01 0.  0.
         14    1    1    2    0    0  0.13240938032E-03  0.73563010862E-02 -0.12857097860E-01  0.14813428478E-01  0.00000000000E+00 0.  1.
     999901    1    3    3    0    0  0.12523909991E+00 -0.40839352835E-01 -0.86775521817E-02  0.88984716935E+00  0.88000000000E+00 0. -1.
        -11    1    4    4    0    0 -0.11230623292E+00  0.17200635486E-01  0.70113431079E-02  0.11383308776E+00  0.51100000000E-03 0. -1.
         11    1    4    4    0    0 -0.13065276364E-01  0.16282416263E-01  0.14523306933E-01  0.25436314417E-01  0.51100000000E-03 0.  1.
</event>
<event>
 8    1  0.2077555E+004  0.1043930E+01  0.7957747E-01            NaN
         13   -1    0    0    0    0  0.00000000000E+00  0.00000000000E+00  0.74505805969E-08  0.10566000000E+00  0.10566000000E+00 0.  1.
     999900   -1    0    0    0    0 -0.00000000000E+00 -0.00000000000E+00 -0.74505805969E-08  0.93827000000E+00  0.93827000000E+00 0. -1.
     999902    2    1    2    0    0 -0.59753750044E-02 -0.30112054498E-02 -0.12168177925E-01  0.10300434231E+01  0.10299498126E+01 0.  0.
     999903    2    3    3    0    0 -0.43605540762E-01 -0.96532979748E-01  0.79483628754E-01  0.13955905751E+00  0.44034349428E-01 0.  0.
         14    1    1    2    0    0  0.59753750044E-02  0.30112054498E-02  0.12168177925E-01  0.13886576926E-01  0.00000000000E+00 0.  1.
     999901    1    3    3    0    0  0.37630165758E-01  0.93521774298E-01 -0.91651806680E-01  0.89048436556E+00  0.88000000000E+00 0. -1.
        -11    1    4    4    0    0 -0.98262139019E-02 -0.25406259503E-01 -0.59543814345E-03  0.27251571866E-01  0.51100000000E-03 0. -1.
         11    1    4    4    0    0 -0.33779326860E-01 -0.71126720244E-01  0.80079066898E-01  0.11230748565E+00  0.51100000000E-03 0.  1.
</event>
<event>
 8    1  0.2077555E+004  0.1043930E+01  0.7957747E-01            NaN
         13   -1    0    0    0    0  0.00000000000E+00  0.00000000000E+00  0.74505805969E-08  0.10566000000E+00  0.10566000000E+00 0.  1.
     999900   -1    0    0    0    0 -0.00000000000E+00 -0.00000000000E+00 -0.74505805969E-08  0.93827000000E+00  0.93827000000E+00 0.  1.
     999902    2    1    2    0    0 -0.55611112302E-02 -0.58843982287E-02  0.11621600429E-01  0.10297661835E+01  0.10296687715E+01 0.  0.
     999903    2    3    3    0    0  0.47603889275E-01 -0.51548128416E-01  0.11389663455E+00  0.14107508076E+00  0.44792803358E-01 0.  0.
         14    1    1    2    0    0  0.55611112302E-02  0.58843982287E-02 -0.11621600429E-01  0.14163816476E-01  0.00000000000E+00 0. -1.
     999901    1    3    3    0    0 -0.53165000505E-01  0.45663730187E-01 -0.10227503412E+00  0.88869110277E+00  0.88000000000E+00 0.  1.
        -11    1    4    4    0    0  0.43959551565E-01 -0.33771170576E-01  0.10897633800E+00  0.12226625659E+00  0.51100000000E-03 0.  1.
         11    1    4    4    0    0  0.36443377101E-02 -0.17776957839E-01  0.49202965429E-02  0.18808824164E-01  0.51100000000E-03 0. -1.
</event>
<event>
 8    1  0.2077555E+004  0.1043930E+01  0.7957747E-01            NaN
         13   -1    0    0    0    0  0.00000000000E+00  0.00000000000E+00  0.74505805969E-08  0.10566000000E+00  0.10566000000E+00 0.  1.
     999900   -1    0    0    0    0 -0.00000000000E+00 -0.00000000000E+00 -0.74505805969E-08  0.93827000000E+00  0.93827000000E+00 0. -1.
     999902    2    1    2    0    0  0.11240023136E-01  0.77981977118E-03 -0.68478683437E-02  0.10307451777E+01  0.10306608471E+01 0.  0.
     999903    2    3    3    0    0 -0.10314190311E-01  0.75525784263E-01 -0.11002957077E+00  0.14130827320E+00  0.45287912503E-01 0.  0.
         14    1    1    2    0    0 -0.11240023136E-01 -0.77981977118E-03  0.68478683437E-02  0.13184822329E-01  0.00000000000E+00 0.  1.
     999901    1    3    3    0    0  0.21554213447E-01 -0.74745964492E-01  0.10318170243E+00  0.88943690447E+00  0.88000000000E+00 0.  1.
        -11    1    4    4    0    0 -0.26576327356E-01  0.30039609372E-01 -0.55170563888E-01  0.68210934223E-01  0.51100000000E-03 0. -1.
         11    1    4    4    0    0  0.16262137045E-01  0.45486174891E-01 -0.54859006886E-01  0.73097338973E-01  0.51100000000E-03 0.  1.
</event>
<event>
 8    1  0.2077555E+004  0.1043930E+01  0.7957747E-01            NaN
         13   -1    0    0    0    0  0.00000000000E+00  0.00000000000E+00  0.74505805969E-08  0.10566000000E+00  0.10566000000E+00 0.  1.
     999900   -1    0    0    0    0 -0.00000000000E+00 -0.00000000000E+00 -0.74505805969E-08  0.93827000000E+00  0.93827000000E+00 0. -1.
     999902    2    1    2    0    0 -0.12918738510E-01 -0.78231595359E-04 -0.23759594562E-02  0.10307943573E+01  0.10307106587E+01 0.  0.
     999903    2    3    3    0    0 -0.12748069173E+00  0.10997181233E-01 -0.42616161488E-01  0.14238770509E+00  0.45671178906E-01 0.  0.
         14    1    1    2    0    0  0.12918738510E-01  0.78231595359E-04  0.23759594562E-02  0.13135642664E-01  0.00000000000E+00 0. -1.
     999901    1    3    3    0    0  0.11456195322E+00 -0.11075412829E-01  0.40240202032E-01  0.88840665225E+00  0.88000000000E+00 0. -1.
        -11    1    4    4    0    0 -0.85407530584E-01  0.15171291300E-01 -0.68665083625E-02  0.87017379979E-01  0.51100000000E-03 0.  1.
         11    1    4    4    0    0 -0.42073161143E-01 -0.41741100672E-02 -0.35749653126E-01  0.55370325112E-01  0.51100000000E-03 0. -1.
</event>
<event>
 8    1  0.2077555E+004  0.1043930E+01  0.7957747E-01            NaN
         13   -1    0    0    0    0  0.00000000000E+00  0.00000000000E+00  0.74505805969E-08  0.10566000000E+00  0.10566000000E+00 0.  1.
     999900   -1    0    0    0    0 -0.00000000000E+00 -0.00000000000E+00 -0.74505805969E-08  0.93827000000E+00  0.93827000000E+00 0. -1.
     999902    2    1    2    0    0 -0.84812334349E-02 -0.73661074209E-02 -0.90794286505E-02  0.10294860780E+01  0.10293847472E+01 0.  0.
     999903    2    3    3    0    0  0.94642609122E-01  0.89742192185E-01 -0.71257287396E-03  0.13811940087E+00  0.45448615134E-01 0.  0.
         14    1    1    2    0    0  0.84812334349E-02  0.73661074209E-02  0.90794286505E-02  0.14443922034E-01  0.00000000000E+00 0.  1.
     999901    1    3    3    0    0 -0.10312384256E+00 -0.97108299606E-01 -0.83668557765E-02  0.89136667709E+00  0.88000000000E+00 0. -1.
        -11    1    4    4    0    0  0.84331568280E-01  0.53927855948E-01  0.58556513856E-02  0.10027251283E+00  0.51100000000E-03 0.  1.
         11    1    4    4    0    0  0.10311040843E-01  0.35814336237E-01 -0.65682242596E-02  0.37846888040E-01  0.51100000000E-03 0. -1.
</event>
<event>
 8    1  0.2077555E+004  0.1043930E+01  0.7957747E-01            NaN
         13   -1    0    0    0    0  0.00000000000E+00  0.00000000000E+00  0.74505805969E-08  0.10566000000E+00  0.10566000000E+00 0. -1.
     999900   -1    0    0    0    0 -0.00000000000E+00 -0.00000000000E+00 -0.74505805969E-08  0.93827000000E+00  0.93827000000E+00 0. -1.
     999902    2    1    2    0    0  0.57890897733E-02 -0.12356003901E-01  0.71497212432E-02  0.10285253609E+01  0.10284099937E+01 0.  0.
     999903    2    3    3    0    0  0.23051168678E-01 -0.10205305658E+00  0.82743141295E-01  0.14057383867E+00  0.44366585975E-01 0.  0.
         14    1    1    2    0    0 -0.57890897733E-02  0.12356003901E-01 -0.71497212432E-02  0.15404639128E-01  0.00000000000E+00 0.  1.
     999901    1    3    3    0    0 -0.17262078905E-01  0.89697052682E-01 -0.75593420052E-01  0.88795152220E+00  0.88000000000E+00 0. -1.
        -11    1    4    4    0    0  0.29440532017E-01 -0.57880413010E-01  0.30162334625E-01  0.71602476819E-01  0.51100000000E-03 0. -1.
         11    1    4    4    0    0 -0.63893633390E-02 -0.44172643574E-01  0.52580806671E-01  0.68971361849E-01  0.51100000000E-03 0.  1.
</event>
<event>
 8    1  0.2390437E+004  0.1043930E+01  0.7957747E-01            NaN
         13   -1    0    0    0    0  0.00000000000E+00  0.00000000000E+00  0.74505805969E-08  0.10566000000E+00  0.10566000000E+00 0. -1.
     999900   -1    0    0    0    0 -0.00000000000E+00 -0.00000000000E+00 -0.74505805969E-08  0.93827000000E+00  0.93827000000E+00 0. -1.
     999902    2    1    2    0    0  0.71103062706E-02  0.22972276485E-01 -0.33730607044E-02  0.10196470949E+01  0.10193579051E+01 0.  0.
     999903    2    3    3    0    0  0.37727042437E-01 -0.11338622552E+00  0.13672750119E-01  0.12845599009E+00  0.45102454757E-01 0.  0.
         14    1    1    2    0    0 -0.71103062706E-02 -0.22972276485E-01  0.33730607044E-02  0.24282905112E-01  0.00000000000E+00 0.  1.
     999901    1    3    3    0    0 -0.30616736166E-01  0.13635850201E+00 -0.17045810823E-01  0.89119110480E+00  0.88000000000E+00 0. -1.
        -11    1    4    4    0    0  0.17841185540E-01 -0.45914298103E-01  0.28008017428E-01  0.56666928918E-01  0.51100000000E-03 0. -1.
         11    1    4    4    0    0  0.19885856897E-01 -0.67471927420E-01 -0.14335267309E-01  0.71789061173E-01  0.51100000000E-03 0.  1.
</event>
<event>
 8    1  0.2077555E+004  0.1043930E+01  0.7957747E-01            NaN
         13   -1    0    0    0    0  0.00000000000E+00  0.00000000000E+00  0.74505805969E-08  0.10566000000E+00  0.10566000000E+00 0. -1.
     999900   -1    0    0    0    0 -0.00000000000E+00 -0.00000000000E+00 -0.74505805969E-08  0.93827000000E+00  0.93827000000E+00 0.  1.
     999902    2    1    2    0    0  0.11724631298E-01 -0.38508772261E-02 -0.94197338070E-02  0.10284049358E+01  0.10282877439E+01 0.  0.
     999903    2    3    3    0    0 -0.25567523138E-01 -0.11771479623E+00  0.51163577747E-01  0.13822178918E+00  0.44464365787E-01 0.  0.
         14    1    1    2    0    0 -0.11724631298E-01  0.38508772261E-02  0.94197338070E-02  0.15525064234E-01  0.00000000000E+00 0. -1.
     999901    1    3    3    0    0  0.37292154436E-01  0.11386391900E+00 -0.60583311554E-01  0.89018314659E+00  0.88000000000E+00 0.  1.
        -11    1    4    4    0    0 -0.13059290722E-01 -0.39155663351E-01 -0.39156341943E-02  0.41464495158E-01  0.51100000000E-03 0.  1.
         11    1    4    4    0    0 -0.12508232416E-01 -0.78559132878E-01  0.55079211942E-01  0.96757294018E-01  0.51100000000E-03 0. -1.
</event>
<event>
 8    1  0.2077555E+004  0.1043930E+01  0.7957747E-01            NaN
         13   -1    0    0    0    0  0.00000000000E+00  0.00000000000E+00  0.74505805969E-08  0.10566000000E+00  0.10566000000E+00 0.  1.
     999900   -1    0    0    0    0 -0.00000000000E+00 -0.00000000000E+00 -0.74505805969E-08  0.93827000000E+00  0.93827000000E+00 0.  1.
     999902    2    1    2    0    0 -0.41544108057E-02  0.13039551407E-01 -0.61168138495E-03  0.10302309787E+01  0.10301398965E+01 0.  0.
     999903    2    3    3    0    0  0.12929770462E+00 -0.27116801603E-01  0.70792086124E-03  0.13926311109E+00  0.44051056829E-01 0.  0.
         14    1    1    2    0    0  0.41544108057E-02 -0.13039551407E-01  0.61168138495E-03  0.13699021284E-01  0.00000000000E+00 0. -1.
     999901    1    3    3    0    0 -0.13345211543E+00  0.40156353010E-01 -0.13196022462E-02  0.89096786763E+00  0.88000000000E+00 0. -1.
        -11    1    4    4    0    0  0.21763190680E-01 -0.52644920084E-02 -0.16989671334E-01  0.28111588317E-01  0.51100000000E-03 0. -1.
         11    1    4    4    0    0  0.10753451394E+00 -0.21852309595E-01  0.17697592195E-01  0.11115152277E+00  0.51100000000E-03 0.  1.
</event>
<event>
 8    1  0.2077555E+004  0.1043930E+01  0.7957747E-01            NaN
         13   -1    0    0    0    0  0.00000000000E+00  0.00000000000E+00  0.74505805969E-08  0.10566000000E+00  0.10566000000E+00 0. -1.
     999900   -1    0    0    0    0 -0.00000000000E+00 -0.00000000000E+00 -0.74505805969E-08  0.93827000000E+00  0.93827000000E+00 0.  1.
     999902    2    1    2    0    0  0.95533303464E-02  0.83599269565E-02  0.22168899876E-02  0.10310432199E+01  0.10309626823E+01 0.  0.
     999903    2    3    3    0    0  0.10051158837E+00  0.88964112540E-01  0.17826815101E-01  0.14255342865E+00  0.44570079283E-01 0.  0.
         14    1    1    2    0    0 -0.95533303464E-02 -0.83599269565E-02 -0.22168899876E-02  0.12886780073E-01  0.00000000000E+00 0. -1.
     999901    1    3    3    0    0 -0.90958258024E-01 -0.80604185584E-01 -0.15609925114E-01  0.88848979127E+00  0.88000000000E+00 0. -1.
        -11    1    4    4    0    0  0.52102646582E-01  0.41514598649E-01  0.31027991735E-01  0.73492483111E-01  0.51100000000E-03 0. -1.
         11    1    4    4    0    0  0.48408941789E-01  0.47449513891E-01 -0.13201176633E-01  0.69060945542E-01  0.51100000000E-03 0.  1.
</event>
<event>
 8    1  0.2077555E+004  0.1043930E+01  0.7957747E-01            NaN
         13   -1    0    0    0    0  0.00000000000E+00  0.00000000000E+00  0.74505805969E-08  0.10566000000E+00  0.10566000000E+00 0.  1.
     999900   -1    0    0    0    0 -0.00000000000E+00 -0.00000000000E+00 -0.74505805969E-08  0.93827000000E+00  0.93827000000E+00 0. -1.
     999902    2    1    2    0    0  0.57930769985E-02  0.97949121057E-02  0.83879366099E-02  0.10297929025E+01  0.10296958602E+01 0.  0.
     999903    2    3    3    0    0 -0.10678813954E+00 -0.74996184603E-01 -0.10886834315E-01  0.13836955911E+00  0.44715514947E-01 0.  0.
         14    1    1    2    0    0 -0.57930769985E-02 -0.97949121057E-02 -0.83879366099E-02  0.14137097469E-01  0.00000000000E+00 0. -1.
     999901    1    3    3    0    0  0.11258121653E+00  0.84791096709E-01  0.19274770925E-01  0.89142334342E+00  0.88000000000E+00 0.  1.
        -11    1    4    4    0    0 -0.35461817193E-01 -0.52087823418E-01 -0.42049684817E-02  0.63155559596E-01  0.51100000000E-03 0. -1.
         11    1    4    4    0    0 -0.71326322343E-01 -0.22908361186E-01 -0.66818658332E-02  0.75213999516E-01  0.51100000000E-03 0.  1.
</event>
<event>
 8    1  0.2101916E+004  0.1043930E+01  0.7957747E-01            NaN
         13   -1    0    0    0    0  0.00000000000E+00  0.00000000000E+00  0.74505805969E-08  0.10566000000E+00  0.10566000000E+00 0.  1.
     999900   -1    0    0    0    0 -0.00000000000E+00 -0.00000000000E+00 -0.74505805969E-08  0.93827000000E+00  0.93827000000E+00 0. -1.
     999902    2    1    2    0    0 -0.56758695342E-03  0.25632990846E-01  0.60445173220E-02  0.10175878557E+01  0.10172468410E+01 0.  0.
     999903    2    3    3    0    0  0.10948603637E+00 -0.23935687948E-01 -0.42639530267E-01  0.12801549195E+00  0.44829982386E-01 0.  0.
         14    1    1    2    0    0  0.56758695342E-03 -0.25632990846E-01 -0.60445173220E-02  0.26342144262E-01  0.00000000000E+00 0.  1.
     999901    1    3    3    0    0 -0.11005362332E+00  0.49568678794E-01  0.48684047589E-01  0.88957236379E+00  0.88000000000E+00 0.  1.
        -11    1    4    4    0    0  0.57594900849E-01 -0.34176684467E-01 -0.16314335323E-01  0.68932118950E-01  0.51100000000E-03 0. -1.
         11    1    4    4    0    0  0.51891135521E-01  0.10240996520E-01 -0.26325194944E-01  0.59083373001E-01  0.51100000000E-03 0.  1.
</event>
<event>
 8    1  0.2077555E+004  0.1043930E+01  0.7957747E-01            NaN
         13   -1    0    0    0    0  0.00000000000E+00  0.00000000000E+00  0.74505805969E-08  0.10566000000E+00  0.10566000000E+00 0. -1.
     999900   -1    0    0    0    0 -0.00000000000E+00 -0.00000000000E+00 -0.74505805969E-08  0.93827000000E+00  0.93827000000E+00 0.  1.
     999902    2    1    2    0    0 -0.95756230499E-02 -0.92919354696E-02  0.87022169603E-02  0.10280001161E+01  0.10278766840E+01 0.  0.
     999903    2    3    3    0    0  0.17276182657E-01 -0.91163174533E-01  0.94128079835E-01  0.13967500820E+00  0.45164384453E-01 0.  0.
         14    1    1    2    0    0  0.95756230499E-02  0.92919354696E-02 -0.87022169603E-02  0.15929883916E-01  0.00000000000E+00 0.  1.
     999901    1    3    3    0    0 -0.26851805707E-01  0.81871239063E-01 -0.85425862875E-01  0.88832510789E+00  0.88000000000E+00 0. -1.
        -11    1    4    4    0    0  0.15306403131E-01 -0.52527140486E-01  0.83009585039E-01  0.99419509121E-01  0.51100000000E-03 0. -1.
         11    1    4    4    0    0  0.19697795256E-02 -0.38636034047E-01  0.11118494796E-01  0.40255499075E-01  0.51100000000E-03 0.  1.
</event>
<event>
 8    1  0.2077555E+004  0.1043930E+01  0.7957747E-01            NaN
         13   -1    0    0    0    0  0.00000000000E+00  0.00000000000E+00  0.74505805969E-08  0.10566000000E+00  0.10566000000E+00 0.  1.
     999900   -1    0    0    0    0 -0.00000000000E+00 -0.00000000000E+00 -0.74505805969E-08  0.93827000000E+00  0.93827000000E+00 0.  1.
     999902    2    1    2    0    0 -0.10559924054E-01 -0.50890560450E-02 -0.10946620616E-01  0.10278913283E+01  0.10277661912E+01 0.  0.
     999903    2    3    3    0    0 -0.11804936496E+00  0.53118401515E-01 -0.24654161541E-01  0.13933633016E+00  0.45272155615E-01 0.  0.
         14    1    1    2    0    0  0.10559924054E-01  0.50890560450E-02  0.10946620616E-01  0.16038671715E-01  0.00000000000E+00 0.  1.
     999901    1    3    3    0    0  0.10748944090E+00 -0.58207457560E-01  0.13707540925E-01  0.88855499813E+00  0.88000000000E+00 0.  1.
        -11    1    4    4    0    0 -0.43826946611E-01  0.32014733750E-01 -0.29944212384E-01  0.61989203919E-01  0.51100000000E-03 0. -1.
         11    1    4    4    0    0 -0.74222418346E-01  0.21103667766E-01  0.52900508428E-02  0.77347126237E-01  0.51100000000E-03 0.  1.
</event>
<event>
 8    1  0.2077555E+004  0.1043930E+01  0.7957747E-01            NaN
         13   -1    0    0    0    0  0.00000000000E+00  0.00000000000E+00  0.74505805969E-08  0.10566000000E+00  0.10566000000E+00 0.  1.
     999900   -1    0    0    0    0 -0.00000000000E+00 -0.00000000000E+00 -0.74505805969E-08  0.93827000000E+00  0.93827000000E+00 0.  1.
     999902    2    1    2    0    0  0.88869933109E-02  0.65068560349E-02 -0.24599847300E-03  0.10329128161E+01  0.10328540591E+01 0.  0.
     999903    2    3    3    0    0 -0.12561359642E+00 -0.45511905438E-01 -0.68141010098E-02  0.14115079620E+00  0.45022285086E-01 0.  0.
         14    1    1    2    0    0 -0.88869933109E-02 -0.65068560349E-02  0.24599847300E-03  0.11017183888E-01  0.00000000000E+00 0.  1.
     999901    1    3    3    0    0  0.13450058973E+00  0.52018761473E-01  0.65681025368E-02  0.89176201991E+00  0.88000000000E+00 0. -1.
        -11    1    4    4    0    0 -0.32934188118E-01 -0.31522132020E-01 -0.12419471643E-01  0.47252618456E-01  0.51100000000E-03 0.  1.
         11    1    4    4    0    0 -0.92679408300E-01 -0.13989773418E-01  0.56053706330E-02  0.93898177746E-01  0.51100000000E-03 0. -1.
</event>
<event>
 8    1  0.2077555E+004  0.1043930E+01  0.7957747E-01            NaN
         13   -1    0    0    0    0  0.00000000000E+00  0.00000000000E+00  0.74505805969E-08  0.10566000000E+00  0.10566000000E+00 0.  1.
     999900   -1    0    0    0    0 -0.00000000000E+00 -0.00000000000E+00 -0.74505805969E-08  0.93827000000E+00  0.93827000000E+00 0.  1.
     999902    2    1    2    0    0  0.82370142830E-02  0.10466296762E-01  0.16176383046E-02  0.10305132744E+01  0.10304259314E+01 0.  0.
     999903    2    3    3    0    0  0.94450193378E-01 -0.31118883965E-01 -0.88347955471E-01  0.14076283322E+00  0.46039005341E-01 0.  0.
         14    1    1    2    0    0 -0.82370142830E-02 -0.10466296762E-01 -0.16176383046E-02  0.13416725603E-01  0.00000000000E+00 0.  1.
     999901    1    3    3    0    0 -0.86213179095E-01  0.41585180727E-01  0.89965593776E-01  0.88975044117E+00  0.88000000000E+00 0. -1.
        -11    1    4    4    0    0  0.74010134986E-02 -0.20562268711E-01 -0.19102571783E-01  0.29030178523E-01  0.51100000000E-03 0. -1.
         11    1    4    4    0    0  0.87049179879E-01 -0.10556615254E-01 -0.69245383688E-01  0.11173265470E+00  0.51100000000E-03 0.  1.
</event>
<event>
 8    1  0.2077555E+004  0.1043930E+01  0.7957747E-01            NaN
         13   -1    0    0    0    0  0.00000000000E+00  0.00000000000E+00  0.74505805969E-08  0.10566000000E+00  0.10566000000E+00 0. -1.
     999900   -1    0    0    0    0 -0.00000000000E+00 -0.00000000000E+00 -0.74505805969E-08  0.93827000000E+00  0.93827000000E+00 0. -1.
     999902    2    1    2    0    0 -0.79400891291E-02  0.49354117132E-02  0.95974213060E-02  0.10305317240E+01  0.10304446227E+01 0.  0.
     999903    2    3    3    0    0 -0.97931551094E-01 -0.32648503976E-02  0.92193191815E-01  0.14205675596E+00  0.45599225303E-01 0.  0.
         14    1    1    2    0    0  0.79400891291E-02 -0.49354117132E-02 -0.95974213060E-02  0.13398276004E-01  0.00000000000E+00 0.  1.
     999901    1    3    3    0    0  0.89991461965E-01  0.82002621108E-02 -0.82595770509E-01  0.88847496804E+00  0.88000000000E+00 0. -1.
        -11    1    4    4    0    0 -0.77022255892E-01  0.15658167473E-01  0.57726533338E-01  0.97520356252E-01  0.51100000000E-03 0. -1.
         11    1    4    4    0    0 -0.20909295203E-01 -0.18923017870E-01  0.34466658476E-01  0.44536399705E-01  0.51100000000E-03 0.  1.
</event>
<event>
 8    1  0.2077555E+004  0.1043930E+01  0.7957747E-01            NaN
         13   -1    0    0    0    0  0.00000000000E+00  0.00000000000E+00  0.74505805969E-08  0.10566000000E+00  0.10566000000E+00 0. -1.
     999900   -1    0    0    0    0 -0.00000000000E+00 -0.00000000000E+00 -0.74505805969E-08  0.93827000000E+00  0.93827000000E+00 0.  1.
     999902    2    1    2    0    0  0.70965623942E-02  0.10642874730E-01 -0.26612344689E-02  0.10308642375E+01  0.10307814327E+01 0.  0.
     999903    2    3    3    0    0  0.15746278319E-01  0.10057705469E+00 -0.88338708688E-01  0.14209902448E+00  0.44996845407E-01 0.  0.
         14    1    1    2    0    0 -0.70965623942E-02 -0.10642874730E-01  0.26612344689E-02  0.13065762482E-01  0.00000000000E+00 0.  1.
     999901    1    3    3    0    0 -0.86497159243E-02 -0.89934179957E-01  0.85677474219E-01  0.88876521303E+00  0.88000000000E+00 0. -1.
        -11    1    4    4    0    0  0.18290703606E-01  0.34458910254E-01 -0.56516457538E-01  0.68675595578E-01  0.51100000000E-03 0.  1.
         11    1    4    4    0    0 -0.25444252874E-02  0.66118144432E-01 -0.31822251150E-01  0.73423428907E-01  0.51100000000E-03 0. -1.
</event>
<event>
 8    1  0.2077555E+004  0.1043930E+01  0.7957747E-01            NaN
         13   -1    0    0    0    0  0.00000000000E+00  0.00000000000E+00  0.74505805969E-08  0.10566000000E+00  0.10566000000E+00 0. -1.
     999900   -1    0    0    0    0 -0.00000000000E+00 -0.00000000000E+00 -0.74505805969E-08  0.93827000000E+00  0.93827000000E+00 0. -1.
     999902    2    1    2    0    0  0.12206430313E-01  0.85322421925E-02  0.78995497339E-03  0.10290162437E+01  0.10289081639E+01 0.  0.
     999903    2    3    3    0    0 -0.66479216178E-02  0.10070258019E+00  0.84257376089E-01  0.14007436249E+00  0.48335464045E-01 0.  0.
         14    1    1    2    0    0 -0.12206430313E-01 -0.85322421925E-02 -0.78995497339E-03  0.14913756290E-01  0.00000000000E+00 0.  1.
     999901    1    3    3    0    0  0.18854351931E-01 -0.92170337994E-01 -0.83467421116E-01  0.88894188122E+00  0.88000000000E+00 0. -1.
        -11    1    4    4    0    0 -0.13154014896E-01  0.50319200393E-01  0.70185234240E-01  0.87357187811E-01  0.51100000000E-03 0. -1.
         11    1    4    4    0    0  0.65060932780E-02  0.50383379794E-01  0.14072141850E-01  0.52717174682E-01  0.51100000000E-03 0.  1.
</event>
<event>
 8    1  0.2077555E+004  0.1043930E+01  0.7957747E-01            NaN
         13   -1    0    0    0    0  0.00000000000E+00  0.00000000000E+00  0.74505805969E-08  0.10566000000E+00  0.10566000000E+00 0. -1.
     999900   -1    0    0    0    0 -0.00000000000E+00 -0.00000000000E+00 -0.74505805969E-08  0.93827000000E+00  0.93827000000E+00 0. -1.
     999902    2    1    2    0    0 -0.40189999837E-02 -0.86598267666E-03  0.12553325986E-01  0.10307205988E+01  0.10306359515E+01 0.  0.
     999903    2    3    3    0    0  0.21841174765E-01  0.13283855268E-01 -0.12893175203E+00  0.13893195015E+00  0.45002137341E-01 0.  0.
         14    1    1    2    0    0  0.40189999837E-02  0.86598267666E-03 -0.12553325986E-01  0.13209401205E-01  0.00000000000E+00 0.  1.
     999901    1    3    3    0    0 -0.25860174748E-01 -0.14149837945E-01  0.14148507802E+00  0.89178864865E+00  0.88000000000E+00 0.  1.
        -11    1    4    4    0    0  0.27753224268E-01 -0.69570077689E-02 -0.92603338281E-01  0.96924098118E-01  0.51100000000E-03 0. -1.
         11    1    4    4    0    0 -0.59120495029E-02  0.20240863037E-01 -0.36328413748E-01  0.42007852031E-01  0.51100000000E-03 0.  1.
</event>
<event>
 7    1  0.2077555E+004  0.1043930E+01  0.7957747E-01            NaN
         13   -1    0    0    0    0  0.00000000000E+00  0.00000000000E+00  0.74505805969E-08  0.10566000000E+00  0.10566000000E+00 0. -1.
     999900   -1    0    0    0    0 -0.00000000000E+00 -0.00000000000E+00 -0.74505805969E-08  0.93827000000E+00  0.93827000000E+00 0. -1.
     999903    2    1    2    0    0 -0.51292441736E-02 -0.75401605866E-01  0.88541070289E-01  0.12533268140E+00  0.46444037147E-01 0.  0.
         14    1    1    2    0    0  0.10834094136E-01  0.28297854834E-01 -0.16187950010E-01  0.34353979529E-01  0.00000000000E+00 0.  1.
     999901    1    1    2    0    0 -0.57048499629E-02  0.47103751032E-01 -0.72353120278E-01  0.88424333907E+00  0.88000000000E+00 0. -1.
        -11    1    3    3    0    0 -0.36710489951E-02  0.18667076138E-02  0.24827119690E-01  0.25171575062E-01  0.51100000000E-03 0. -1.
         11    1    3    3    0    0 -0.14581951784E-02 -0.77268313480E-01  0.63713950599E-01  0.10016110634E+00  0.51100000000E-03 0.  1.
</event>
<event>
 8    1  0.2077555E+004  0.1043930E+01  0.7957747E-01            NaN
         13   -1    0    0    0    0  0.00000000000E+00  0.00000000000E+00  0.74505805969E-08  0.10566000000E+00  0.10566000000E+00 0.  1.
     999900   -1    0    0    0    0 -0.00000000000E+00 -0.00000000000E+00 -0.74505805969E-08  0.93827000000E+00  0.93827000000E+00 0.  1.
     999902    2    1    2    0    0 -0.81684122397E-02 -0.10544286433E-01  0.16132142263E-02  0.10304946959E+01  0.10304071093E+01 0.  0.
     999903    2    3    3    0    0  0.62782827216E-01  0.43349862096E-01  0.10798408711E+00  0.13962241541E+00  0.44866043729E-01 0.  0.
         14    1    1    2    0    0  0.81684122397E-02  0.10544286433E-01 -0.16132142263E-02  0.13435304055E-01  0.00000000000E+00 0. -1.
     999901    1    3    3    0    0 -0.70951239455E-01 -0.53894148529E-01 -0.10637087288E+00  0.89087228053E+00  0.88000000000E+00 0.  1.
        -11    1    4    4    0    0  0.36609494785E-01  0.31372412703E-01  0.97882378966E-01  0.10911326510E+00  0.51100000000E-03 0. -1.
         11    1    4    4    0    0  0.26173332431E-01  0.11977449393E-01  0.10101708142E-01  0.30509150314E-01  0.51100000000E-03 0.  1.
</event>
<event>
 8    1  0.2077555E+004  0.1043930E+01  0.7957747E-01            NaN
         13   -1    0    0    0    0  0.00000000000E+00  0.00000000000E+00  0.74505805969E-08  0.10566000000E+00  0.10566000000E+00 0.  1.
     999900   -1    0    0    0    0 -0.00000000000E+00 -0.00000000000E+00 -0.74505805969E-08  0.93827000000E+00  0.93827000000E+00 0. -1.
     999902    2    1    2    0    0  0.93252259425E-02 -0.64253029499E-02 -0.48120621072E-02  0.10316255171E+01  0.10315521350E+01 0.  0.
     999903    2    3    3    0    0  0.13984237214E-02  0.91857812354E-01  0.93901772689E-01  0.14063347108E+00  0.50203754792E-01 0.  0.
         14    1    1    2    0    0 -0.93252259425E-02  0.64253029499E-02  0.48120621072E-02  0.12304482866E-01  0.00000000000E+00 0.  1.
     999901    1    3    3    0    0  0.79268022211E-02 -0.98283115304E-01 -0.98713834796E-01  0.89099204605E+00  0.88000000000E+00 0. -1.
        -11    1    4    4    0    0  0.75175760638E-02  0.80818412428E-01  0.98095872289E-01  0.12732317550E+00  0.51100000000E-03 0.  1.
         11    1    4    4    0    0 -0.61191523425E-02  0.11039399927E-01 -0.41940996008E-02  0.13310295586E-01  0.51100000000E-03 0. -1.
</event>
<event>
 8    1  0.2077555E+004  0.1043930E+01  0.7957747E-01            NaN
         13   -1    0    0    0    0  0.00000000000E+00  0.00000000000E+00  0.74505805969E-08  0.10566000000E+00  0.10566000000E+00 0. -1.
     999900   -1    0    0    0    0 -0.00000000000E+00 -0.00000000000E+00 -0.74505805969E-08  0.93827000000E+00  0.93827000000E+00 0. -1.
     999902    2    1    2    0    0  0.93252245395E-02 -0.95662510791E-02 -0.31108770091E-02  0.10302132027E+01  0.10301218823E+01 0.  0.
     999903    2    3    3    0    0 -0.12697145572E+00  0.31913550666E-02  0.34361463459E-01  0.13884138473E+00  0.44320250764E-01 0.  0.
         14    1    1    2    0    0 -0.93252245395E-02  0.95662510791E-02  0.31108770091E-02  0.13716797301E-01  0.00000000000E+00 0. -1.
     999901    1    3    3    0    0  0.13629668026E+00 -0.12757606146E-01 -0.37472340468E-01  0.89137181797E+00  0.88000000000E+00 0.  1.
        -11    1    4    4    0    0 -0.95698861543E-01  0.79856257569E-02  0.57876370949E-02  0.96207069301E-01  0.51100000000E-03 0.  1.
         11    1    4    4    0    0 -0.31272594180E-01 -0.47942706903E-02  0.28573826364E-01  0.42634315431E-01  0.51100000000E-03 0. -1.
</event>
<event>
 8    1  0.2077555E+004  0.1043930E+01  0.7957747E-01            NaN
         13   -1    0    0    0    0  0.00000000000E+00  0.00000000000E+00  0.74505805969E-08  0.10566000000E+00  0.10566000000E+00 0. -1.
     999900   -1    0    0    0    0 -0.00000000000E+00 -0.00000000000E+00 -0.74505805969E-08  0.93827000000E+00  0.93827000000E+00 0. -1.
     999902    2    1    2    0    0 -0.22832508122E-02 -0.13595641342E-01  0.57311583742E-03  0.10301320596E+01  0.10300396483E+01 0.  0.
     999903    2    3    3    0    0  0.11433086200E+00 -0.32202549050E-01  0.59350720127E-01  0.14030068507E+00  0.45312515695E-01 0.  0.
         14    1    1    2    0    0  0.22832508122E-02  0.13595641342E-01 -0.57311583742E-03  0.13797940409E-01  0.00000000000E+00 0.  1.
     999901    1    3    3    0    0 -0.11661411282E+00  0.18606907708E-01 -0.58777604290E-01  0.88983137452E+00  0.88000000000E+00 0. -1.
        -11    1    4    4    0    0  0.37679982713E-01  0.35915841103E-02  0.36696908230E-01  0.52721957174E-01  0.51100000000E-03 0.  1.
         11    1    4    4    0    0  0.76650879290E-01 -0.35794133160E-01  0.22653811898E-01  0.87578727892E-01  0.51100000000E-03 0. -1.
</event>
<event>
 8    1  0.2077555E+004  0.1043930E+01  0.7957747E-01            NaN
         13   -1    0    0    0    0  0.00000000000E+00  0.00000000000E+00  0.74505805969E-08  0.10566000000E+00  0.10566000000E+00 0.  1.
     999900   -1    0    0    0    0 -0.00000000000E+00 -0.00000000000E+00 -0.74505805969E-08  0.93827000000E+00  0.93827000000E+00 0.  1.
     999902    2    1    2    0    0 -0.10104805419E-01 -0.55966641324E-02  0.72807417885E-02  0.10302757354E+01  0.10301852513E+01 0.  0.
     999903    2    3    3    0    0  0.79225267861E-01 -0.10243737279E+00  0.29554931959E-01  0.14018915283E+00  0.44826846371E-01 0.  0.
         14    1    1    2    0    0  0.10104805419E-01  0.55966641324E-02 -0.72807417885E-02  0.13654264644E-01  0.00000000000E+00 0.  1.
     999901    1    3    3    0    0 -0.89330073280E-01  0.96840708661E-01 -0.22274190171E-01  0.89008658253E+00  0.88000000000E+00 0.  1.
        -11    1    4    4    0    0  0.77376911272E-01 -0.76543552709E-01  0.33604319331E-01  0.11391054937E+00  0.51100000000E-03 0.  1.
         11    1    4    4    0    0  0.18483565889E-02 -0.25893820084E-01 -0.40493873722E-02  0.26278603458E-01  0.51100000000E-03 0. -1.
</event>
<event>
 8    1  0.2077555E+004  0.1043930E+01  0.7957747E-01            NaN
         13   -1    0    0    0    0  0.00000000000E+00  0.00000000000E+00  0.74505805969E-08  0.10566000000E+00  0.10566000000E+00 0.  1.
     999900   -1    0    0    0    0 -0.00000000000E+00 -0.00000000000E+00 -0.74505805969E-08  0.93827000000E+00  0.93827000000E+00 0.  1.
     999902    2    1    2    0    0  0.12783714009E-01  0.55254618880E-04  0.70388870770E-02  0.10293364285E+01  0.10292329721E+01 0.  0.
     999903    2    3    3    0    0  0.11393650760E-01 -0.10952320674E+00 -0.72213658455E-01  0.13900484005E+00  0.44523982285E-01 0.  0.
         14    1    1    2    0    0 -0.12783714009E-01 -0.55254618880E-04 -0.70388870770E-02  0.14593571469E-01  0.00000000000E+00 0.  1.
     999901    1    3    3    0    0  0.13900632492E-02  0.10957846136E+00  0.79252545532E-01  0.89033158848E+00  0.88000000000E+00 0. -1.
        -11    1    4    4    0    0 -0.13004808193E-01 -0.19840024573E-01 -0.26019749857E-01  0.35214203310E-01  0.51100000000E-03 0. -1.
         11    1    4    4    0    0  0.24398458953E-01 -0.89683182166E-01 -0.46193908599E-01  0.10379063674E+00  0.51100000000E-03 0.  1.
</event>
<event>
 8    1  0.2077555E+004  0.1043930E+01  0.7957747E-01            NaN
         13   -1    0    0    0    0  0.00000000000E+00  0.00000000000E+00  0.74505805969E-08  0.10566000000E+00  0.10566000000E+00 0. -1.
     999900   -1    0    0    0    0 -0.00000000000E+00 -0.00000000000E+00 -0.74505805969E-08  0.93827000000E+00  0.93827000000E+00 0.  1.
     999902    2    1    2    0    0  0.11667295815E-01  0.37879865323E-02 -0.70583914177E-02  0.10297774199E+01  0.10296801635E+01 0.  0.
     999903    2    3    3    0    0  0.44116807998E-01  0.10863395281E+00  0.61136096696E-01  0.14034156743E+00  0.47016005541E-01 0.  0.
         14    1    1    2    0    0 -0.11667295815E-01 -0.37879865323E-02  0.70583914177E-02  0.14152580083E-01  0.00000000000E+00 0. -1.
     999901    1    3    3    0    0 -0.32449512183E-01 -0.10484596628E+00 -0.68194488114E-01  0.88943585249E+00  0.88000000000E+00 0.  1.
        -11    1    4    4    0    0  0.10339025796E-01 -0.11889150712E-03  0.13224041661E-01  0.16794224854E-01  0.51100000000E-03 0.  1.
         11    1    4    4    0    0  0.33777782201E-01  0.10875284432E+00  0.47912055035E-01  0.12354734257E+00  0.51100000000E-03 0. -1.
</event>
<event>
 8    1  0.2077555E+004  0.1043930E+01  0.7957747E-01            NaN
         13   -1    0    0    0    0  0.00000000000E+00  0.00000000000E+00  0.74505805969E-08  0.10566000000E+00  0.10566000000E+00 0.  1.
     999900   -1    0    0    0    0 -0.00000000000E+00 -0.00000000000E+00 -0.74505805969E-08  0.93827000000E+00  0.93827000000E+00 0.  1.
     999902    2    1    2    0    0  0.47998257590E-02  0.49858379487E-02 -0.77796681723E-02  0.10335175006E+01  0.10334650472E+01 0.  0.
     999903    2    3    3    0    0  0.83931540391E-01 -0.78207311911E-01  0.71479560049E-01  0.14252650528E+00  0.45206084695E-01 0.  0.
         14    1    1    2    0    0 -0.47998257590E-02 -0.49858379487E-02  0.77796681723E-02  0.10412499423E-01  0.00000000000E+00 0. -1.
     999901    1    3    3    0    0 -0.79131714632E-01  0.83193149860E-01 -0.79259228221E-01  0.89099099530E+00  0.88000000000E+00 0. -1.
        -11    1    4    4    0    0  0.33606342091E-01 -0.55212436654E-01  0.21945872175E-01  0.68261862094E-01  0.51100000000E-03 0.  1.
         11    1    4    4    0    0  0.50325198300E-01 -0.22994875257E-01  0.49533687873E-01  0.74264643185E-01  0.51100000000E-03 0. -1.
</event>
<event>
 8    1  0.2077555E+004  0.1043930E+01  0.7957747E-01            NaN
         13   -1    0    0    0    0  0.00000000000E+00  0.00000000000E+00  0.74505805969E-08  0.10566000000E+00  0.10566000000E+00 0. -1.
     999900   -1    0    0    0    0 -0.00000000000E+00 -0.00000000000E+00 -0.74505805969E-08  0.93827000000E+00  0.93827000000E+00 0. -1.
     999902    2    1    2    0    0 -0.11839764031E-01 -0.28698752309E-02 -0.69769799017E-02  0.10298909671E+01  0.10297952756E+01 0.  0.
     999903    2    3    3    0    0 -0.20166936606E-01 -0.35019248210E-01  0.12564215882E+00  0.13933453434E+00  0.44666624087E-01 0.  0.
         14    1    1    2    0    0  0.11839764031E-01  0.28698752309E-02  0.69769799017E-02  0.14039032897E-01  0.00000000000E+00 0. -1.
     999901    1    3    3    0    0  0.83271725755E-02  0.32149372979E-01 -0.13261913873E+00  0.89055643277E+00  0.88000000000E+00 0. -1.
        -11    1    4    4    0    0 -0.27545166276E-01 -0.41760906240E-01  0.10863356369E+00  0.11960025818E+00  0.51100000000E-03 0. -1.
         11    1    4    4    0    0  0.73782296693E-02  0.67416580306E-02  0.17008595134E-01  0.19734276158E-01  0.51100000000E-03 0.  1.
</event>
<event>
 8    1  0.2077555E+004  0.1043930E+01  0.7957747E-01            NaN
         13   -1    0    0    0    0  0.00000000000E+00  0.00000000000E+00  0.74505805969E-08  0.10566000000E+00  0.10566000000E+00 0.  1.
     999900   -1    0    0    0    0 -0.00000000000E+00 -0.00000000000E+00 -0.74505805969E-08  0.93827000000E+00  0.93827000000E+00 0. -1.
     999902    2    1    2    0    0 -0.11765590776E-01 -0.21108541063E-02  0.68332586475E-02  0.10301612580E+01  0.10300692401E+01 0.  0.
     999903    2    3    3    0    0  0.13049517160E+00  0.14479845241E-01 -0.43784199793E-02  0.13851161970E+00  0.43904925701E-01 0.  0.
         14    1    1    2    0    0  0.11765590776E-01  0.21108541063E-02 -0.68332586475E-02  0.13768741959E-01  0.00000000000E+00 0. -1.
     999901    1    3    3    0    0 -0.14226076238E+00 -0.16590699347E-01  0.11211678627E-01  0.89164963834E+00  0.88000000000E+00 0.  1.
        -11    1    4    4    0    0  0.14322302213E-01  0.15235246396E-01 -0.76969550223E-02  0.22287783897E-01  0.51100000000E-03 0. -1.
         11    1    4    4    0    0  0.11617286939E+00 -0.75540115557E-03  0.33185350430E-02  0.11622383580E+00  0.51100000000E-03 0.  1.
</event>
<event>
 8    1  0.2077555E+004  0.1043930E+01  0.7957747E-01            NaN
         13   -1    0    0    0    0  0.00000000000E+00  0.00000000000E+00  0.74505805969E-08  0.10566000000E+00  0.10566000000E+00 0. -1.
     999900   -1    0    0    0    0 -0.00000000000E+00 -0.00000000000E+00 -0.74505805969E-08  0.93827000000E+00  0.93827000000E+00 0. -1.
     999902    2    1    2    0    0 -0.46546505625E-02  0.11823705564E-01  0.50361024223E-02  0.10302614919E+01  0.10301708177E+01 0.  0.
     999903    2    3    3    0    0  0.36185343407E-01 -0.26250959148E-01 -0.12389502094E+00  0.13911570152E+00  0.44773990910E-01 0.  0.
         14    1    1    2    0    0  0.46546505625E-02 -0.11823705564E-01 -0.50361024223E-02  0.13668508065E-01  0.00000000000E+00 0.  1.
     999901    1    3    3    0    0 -0.40839993969E-01  0.38074664712E-01  0.12893112336E+00  0.89114579041E+00  0.88000000000E+00 0.  1.
        -11    1    4    4    0    0 -0.78182539671E-02 -0.11899982560E-01 -0.14487589551E-01  0.20319597732E-01  0.51100000000E-03 0. -1.
         11    1    4    4    0    0  0.44003597374E-01 -0.14350976589E-01 -0.10940743139E+00  0.11879610379E+00  0.51100000000E-03 0.  1.
</event>
<event>
 8    1  0.2077555E+004  0.1043930E+01  0.7957747E-01            NaN
         13   -1    0    0    0    0  0.00000000000E+00  0.00000000000E+00  0.74505805969E-08  0.10566000000E+00  0.10566000000E+00 0.  1.
     999900   -1    0    0    0    0 -0.00000000000E+00 -0.00000000000E+00 -0.74505805969E-08  0.93827000000E+00  0.93827000000E+00 0.  1.
     999902    2    1    2    0    0  0.26028610838E-02 -0.36316739150E-02  0.12850298544E-01  0.10303250702E+01  0.10302352432E+01 0.  0.
     999903    2    3    3    0    0  0.73262024849E-01  0.32664541324E-01  0.10751893009E+00  0.14169000314E+00  0.45622802621E-01 0.  0.
         14    1    1    2    0    0 -0.26028610838E-02  0.36316739150E-02 -0.12850298544E-01  0.13604929766E-01  0.00000000000E+00 0. -1.
     999901    1    3    3    0    0 -0.70659163765E-01 -0.36296215239E-01 -0.94668631543E-01  0.88863506709E+00  0.88000000000E+00 0.  1.
        -11    1    4    4    0    0  0.68804934967E-02 -0.10859134265E-01  0.16394364393E-01  0.20839824678E-01  0.51100000000E-03 0. -1.
         11    1    4    4    0    0  0.66381531352E-01  0.43523675589E-01  0.91124565694E-01  0.12085017847E+00  0.51100000000E-03 0.  1.
</event>
<event>
 8    1  0.2077555E+004  0.1043930E+01  0.7957747E-01            NaN
         13   -1    0    0    0    0  0.00000000000E+00  0.00000000000E+00  0.74505805969E-08  0.10566000000E+00  0.10566000000E+00 0. -1.
     999900   -1    0    0    0    0 -0.00000000000E+00 -0.00000000000E+00 -0.74505805969E-08  0.93827000000E+00  0.93827000000E+00 0. -1.
     999902    2    1    2    0    0 -0.49276731164E-02  0.11600784367E-01 -0.75575618247E-03  0.10313033881E+01  0.10312260892E+01 0.  0.
     999903    2    3    3    0    0  0.61132815612E-01  0.10983158948E+00 -0.47121241100E-01  0.14216726950E+00  0.46807285338E-01 0.  0.
         14    1    1    2    0    0  0.49276731164E-02 -0.11600784367E-01  0.75575618247E-03  0.12626611884E-01  0.00000000000E+00 0.  1.
     999901    1    3    3    0    0 -0.66060488728E-01 -0.98230805113E-01  0.46365484917E-01  0.88913611862E+00  0.88000000000E+00 0. -1.
        -11    1    4    4    0    0  0.53272551730E-01  0.92043092709E-01 -0.19093844820E-01  0.10804967244E+00  0.51100000000E-03 0. -1.
         11    1    4    4    0    0  0.78602638819E-02  0.17788496771E-01 -0.28027396279E-01  0.34117597056E-01  0.51100000000E-03 0.  1.
</event>
<event>
 8    1  0.2077555E+004  0.1043930E+01  0.7957747E-01            NaN
         13   -1    0    0    0    0  0.00000000000E+00  0.00000000000E+00  0.74505805969E-08  0.10566000000E+00  0.10566000000E+00 0.  1.
     999900   -1    0    0    0    0 -0.00000000000E+00 -0.00000000000E+00 -0.74505805969E-08  0.93827000000E+00  0.93827000000E+00 0. -1.
     999902    2    1    2    0    0  0.11494495325E-01 -0.47381241821E-02 -0.59275636532E-02  0.10301565017E+01  0.10300644197E+01 0.  0.
     999903    2    3    3    0    0  0.74695572597E-01  0.10016080891E+00 -0.47383833340E-01  0.14070904144E+00  0.44070290162E-01 0.  0.
         14    1    1    2    0    0 -0.11494495325E-01  0.47381241821E-02  0.59275636532E-02  0.13773498263E-01  0.00000000000E+00 0. -1.
     999901    1    3    3    0    0 -0.63201077272E-01 -0.10489893309E+00  0.41456269687E-01  0.88944746030E+00  0.88000000000E+00 0.  1.
        -11    1    4    4    0    0  0.53669895292E-01  0.95620494877E-01 -0.31897959543E-01  0.11419928916E+00  0.51100000000E-03 0. -1.
         11    1    4    4    0    0  0.21025677305E-01  0.45403140284E-02 -0.15485873796E-01  0.26509752278E-01  0.51100000000E-03 0.  1.
</event>
<event>
 8    1  0.2077555E+004  0.1043930E+01  0.7957747E-01            NaN
         13   -1    0    0    0    0  0.00000000000E+00  0.00000000000E+00  0.74505805969E-08  0.10566000000E+00  0.10566000000E+00 0.  1.
     999900   -1    0    0    0    0 -0.00000000000E+00 -0.00000000000E+00 -0.74505805969E-08  0.93827000000E+00  0.93827000000E+00 0.  1.
     999902    2    1    2    0    0 -0.37627073429E-02 -0.13352608893E-01  0.34258038828E-02  0.10296406241E+01  0.10295414652E+01 0.  0.
     999903    2    3    3    0    0  0.53132559319E-02  0.89137140205E-01  0.96444958833E-01  0.13877638925E+00  0.44537576013E-01 0.  0.
         14    1    1    2    0    0  0.37627073429E-02  0.13352608893E-01 -0.34258038828E-02  0.14289375880E-01  0.00000000000E+00 0.  1.
     999901    1    3    3    0    0 -0.90759632749E-02 -0.10248974910E+00 -0.93019154950E-01  0.89086423487E+00  0.88000000000E+00 0.  1.
        -11    1    4    4    0    0  0.12590611548E-01  0.85417661955E-01  0.70185594277E-01  0.11126984874E+00  0.51100000000E-03 0.  1.
         11    1    4    4    0    0 -0.72773556164E-02  0.37194782501E-02  0.26259364556E-01  0.27506540515E-01  0.51100000000E-03 0. -1.
</event>
<event>
 8    1  0.2077555E+004  0.1043930E+01  0.7957747E-01            NaN
         13   -1    0    0    0    0  0.00000000000E+00  0.00000000000E+00  0.74505805969E-08  0.10566000000E+00  0.10566000000E+00 0. -1.
     999900   -1    0    0    0    0 -0.00000000000E+00 -0.00000000000E+00 -0.74505805969E-08  0.93827000000E+00  0.93827000000E+00 0.  1.
     999902    2    1    2    0    0  0.92004115007E-02 -0.78957490500E-02  0.71059075699E-02  0.10298770876E+01  0.10297812055E+01 0.  0.
     999903    2    3    3    0    0 -0.29672645788E-01 -0.73646317594E-01 -0.10527033806E+00  0.13944872302E+00  0.45385639504E-01 0.  0.
         14    1    1    2    0    0 -0.92004115007E-02  0.78957490500E-02 -0.71059075699E-02  0.14052912411E-01  0.00000000000E+00 0.  1.
     999901    1    3    3    0    0  0.38873057289E-01  0.65750568545E-01  0.11237624563E+00  0.89042836457E+00  0.88000000000E+00 0. -1.
        -11    1    4    4    0    0 -0.40194693394E-01 -0.42159313334E-01 -0.66725770273E-01  0.88575451550E-01  0.51100000000E-03 0.  1.
         11    1    4    4    0    0  0.10522047605E-01 -0.31487004261E-01 -0.38544567787E-01  0.50873271470E-01  0.51100000000E-03 0. -1.
</event>
<event>
 8    1  0.2077555E+004  0.1043930E+01  0.7957747E-01            NaN
         13   -1    0    0    0    0  0.00000000000E+00  0.00000000000E+00  0.74505805969E-08  0.10566000000E+00  0.10566000000E+00 0.  1.
     999900   -1    0    0    0    0 -0.00000000000E+00 -0.00000000000E+00 -0.74505805969E-08  0.93827000000E+00  0.93827000000E+00 0.  1.
     999902    2    1    2    0    0 -0.65597211857E-02 -0.99365600447E-02 -0.73436377665E-02  0.10299409263E+01  0.10298459193E+01 0.  0.
     999903    2    3    3    0    0  0.97390369889E-01  0.55500339080E-01  0.67974565853E-01  0.13822323498E+00  0.43817226070E-01 0.  0.
         14    1    1    2    0    0  0.65597211857E-02  0.99365600447E-02  0.73436377665E-02  0.13989073708E-01  0.00000000000E+00 0.  1.
     999901    1    3    3    0    0 -0.10395009107E+00 -0.65436899124E-01 -0.75318203620E-01  0.89171769131E+00  0.88000000000E+00 0.  1.
        -11    1    4    4    0    0  0.73846418610E-02  0.10360362697E-01  0.26352945745E-01  0.29267882074E-01  0.51100000000E-03 0. -1.
         11    1    4    4    0    0  0.90005728028E-01  0.45139976382E-01  0.41621620108E-01  0.10895535291E+00  0.51100000000E-03 0.  1.
</event>
<event>
 8    1  0.2077555E+004  0.1043930E+01  0.7957747E-01            NaN
         13   -1    0    0    0    0  0.00000000000E+00  0.00000000000E+00  0.74505805969E-08  0.10566000000E+00  0.10566000000E+00 0.  1.
     999900   -1    0    0    0    0 -0.00000000000E+00 -0.00000000000E+00 -0.74505805969E-08  0.93827000000E+00  0.93827000000E+00 0. -1.
     999902    2    1    2    0    0  0.40343785288E-02 -0.12273075407E-01 -0.16441011771E-02  0.10309066495E+01  0.10308243848E+01 0.  0.
     999903    2    3    3    0    0  0.98329854784E-02  0.28308688607E-01  0.12942590066E+00  0.14025528739E+00  0.44971239974E-01 0.  0.
         14    1    1    2    0    0 -0.40343785288E-02  0.12273075407E-01  0.16441011771E-02  0.13023350519E-01  0.00000000000E+00 0.  1.
     999901    1    3    3    0    0 -0.57986069495E-02 -0.40581764014E-01 -0.13107000184E+00  0.89065136209E+00  0.88000000000E+00 0. -1.
        -11    1    4    4    0    0 -0.11434208395E-01 -0.65341228107E-02  0.33902875169E-01  0.36374468357E-01  0.51100000000E-03 0. -1.
         11    1    4    4    0    0  0.21267193874E-01  0.34842811418E-01  0.95523025493E-01  0.10388081903E+00  0.51100000000E-03 0.  1.
</event>
<event>
 8    1  0.2077555E+004  0.1043930E+01  0.7957747E-01            NaN
         13   -1    0    0    0    0  0.00000000000E+00  0.00000000000E+00  0.74505805969E-08  0.10566000000E+00  0.10566000000E+00 0. -1.
     999900   -1    0    0    0    0 -0.00000000000E+00 -0.00000000000E+00 -0.74505805969E-08  0.93827000000E+00  0.93827000000E+00 0. -1.
     999902    2    1    2    0    0 -0.13257284437E-01  0.38794578714E-02  0.19837558689E-02  0.10299750342E+01  0.10298804930E+01 0.  0.
     999903    2    3    3    0    0 -0.13134913500E+00  0.18970644165E-01  0.20637710699E-01  0.14176256009E+00  0.45367694840E-01 0.  0.
         14    1    1    2    0    0  0.13257284437E-01 -0.38794578714E-02 -0.19837558689E-02  0.13954965832E-01  0.00000000000E+00 0.  1.
     999901    1    3    3    0    0  0.11809185057E+00 -0.15091186293E-01 -0.18653954830E-01  0.88821247408E+00  0.88000000000E+00 0. -1.
        -11    1    4    4    0    0 -0.48337506054E-01 -0.17268967938E-02  0.28002108674E-01  0.55891644056E-01  0.51100000000E-03 0.  1.
         11    1    4    4    0    0 -0.83011628948E-01  0.20697540958E-01 -0.73643979752E-02  0.85870916036E-01  0.51100000000E-03 0. -1.
</event>
<event>
 8    1  0.2077555E+004  0.1043930E+01  0.7957747E-01            NaN
         13   -1    0    0    0    0  0.00000000000E+00  0.00000000000E+00  0.74505805969E-08  0.10566000000E+00  0.10566000000E+00 0. -1.
     999900   -1    0    0    0    0 -0.00000000000E+00 -0.00000000000E+00 -0.74505805969E-08  0.93827000000E+00  0.93827000000E+00 0. -1.
     999902    2    1    2    0    0  0.61146722643E-02  0.99261093507E-02 -0.13116650824E-01  0.10263811142E+01  0.10262310793E+01 0.  0.
     999903    2    3    3    0    0  0.89795027973E-01 -0.40215641014E-01  0.81403708025E-01  0.13595947515E+00  0.46668730135E-01 0.  0.
         14    1    1    2    0    0 -0.61146722643E-02 -0.99261093507E-02  0.13116650824E-01  0.17548885793E-01  0.00000000000E+00 0. -1.
     999901    1    3    3    0    0 -0.83680355709E-01  0.50141750364E-01 -0.94520358849E-01  0.89042163906E+00  0.88000000000E+00 0. -1.
        -11    1    4    4    0    0  0.87682549782E-01 -0.48551112765E-01  0.76083746039E-01  0.12583496183E+00  0.51100000000E-03 0. -1.
         11    1    4    4    0    0  0.21124781912E-02  0.83354717511E-02  0.53199619857E-02  0.10124513319E-01  0.51100000000E-03 0.  1.
</event>
<event>
 8    1  0.2077555E+004  0.1043930E+01  0.7957747E-01            NaN
         13   -1    0    0    0    0  0.00000000000E+00  0.00000000000E+00  0.74505805969E-08  0.10566000000E+00  0.10566000000E+00 0. -1.
     999900   -1    0    0    0    0 -0.00000000000E+00 -0.00000000000E+00 -0.74505805969E-08  0.93827000000E+00  0.93827000000E+00 0.  1.
     999902    2    1    2    0    0 -0.88107978065E-02  0.10694817157E-01 -0.97084639889E-03  0.10300392903E+01  0.10299456237E+01 0.  0.
     999903    2    3    3    0    0  0.92105875827E-01 -0.86384831838E-01  0.34046188555E-01  0.13827989118E+00  0.44903828515E-01 0.  0.
         14    1    1    2    0    0  0.88107978065E-02 -0.10694817157E-01  0.97084639889E-03  0.13890709656E-01  0.00000000000E+00 0.  1.
     999901    1    3    3    0    0 -0.10091667363E+00  0.97079648995E-01 -0.35017034954E-01  0.89175939917E+00  0.88000000000E+00 0. -1.
        -11    1    4    4    0    0  0.63233927424E-01 -0.55748948104E-01  0.26426177972E-03  0.84301872740E-01  0.51100000000E-03 0. -1.
         11    1    4    4    0    0  0.28871948402E-01 -0.30635883734E-01  0.33781926775E-01  0.53978018436E-01  0.51100000000E-03 0.  1.
</event>
<event>
 8    1  0.2077555E+004  0.1043930E+01  0.7957747E-01            NaN
         13   -1    0    0    0    0  0.00000000000E+00  0.00000000000E+00  0.74505805969E-08  0.10566000000E+00  0.10566000000E+00 0.  1.
     999900   -1    0    0    0    0 -0.00000000000E+00 -0.00000000000E+00 -0.74505805969E-08  0.93827000000E+00  0.93827000000E+00 0. -1.
     999902    2    1    2    0    0  0.75194814410E-04  0.68119305130E-02  0.11244665120E-01  0.10307827362E+01  0.10306988885E+01 0.  0.
     999903    2    3    3    0    0  0.52864514792E-02  0.13247885946E+00  0.26464667129E-01  0.14170963309E+00  0.42457587426E-01 0.  0.
         14    1    1    2    0    0 -0.75194814410E-04 -0.68119305130E-02 -0.11244665120E-01  0.13147263793E-01  0.00000000000E+00 0. -1.
     999901    1    3    3    0    0 -0.52112566648E-02 -0.12566692895E+00 -0.15220002008E-01  0.88907310312E+00  0.88000000000E+00 0.  1.
        -11    1    4    4    0    0  0.68483711170E-02  0.11890426303E+00  0.36701016425E-01  0.12462884770E+00  0.51100000000E-03 0.  1.
         11    1    4    4    0    0 -0.15619196378E-02  0.13574596437E-01 -0.10236349297E-01  0.17080785384E-01  0.51100000000E-03 0. -1.
</event>
<event>
 8    1  0.2077555E+004  0.1043930E+01  0.7957747E-01            NaN
         13   -1    0    0    0    0  0.00000000000E+00  0.00000000000E+00  0.74505805969E-08  0.10566000000E+00  0.10566000000E+00 0. -1.
     999900   -1    0    0    0    0 -0.00000000000E+00 -0.00000000000E+00 -0.74505805969E-08  0.93827000000E+00  0.93827000000E+00 0.  1.
     999902    2    1    2    0    0 -0.13709768397E-02 -0.12935322265E-01  0.78756873638E-02  0.10287237976E+01  0.10286114053E+01 0.  0.
     999903    2    3    3    0    0 -0.89750072564E-01 -0.89321020507E-01  0.40394947348E-01  0.14040902135E+00  0.45272743184E-01 0.  0.
         14    1    1    2    0    0  0.13709768397E-02  0.12935322265E-01 -0.78756873638E-02  0.15206202388E-01  0.00000000000E+00 0.  1.
     999901    1    3    3    0    0  0.88379095725E-01  0.76385698242E-01 -0.32519259984E-01  0.88831477626E+00  0.88000000000E+00 0.  1.
        -11    1    4    4    0    0 -0.18893711983E-01 -0.31365278814E-02  0.18647574216E-01  0.26735805669E-01  0.51100000000E-03 0.  1.
         11    1    4    4    0    0 -0.70856360581E-01 -0.86184492626E-01  0.21747373132E-01  0.11367321568E+00  0.51100000000E-03 0. -1.
</event>
<event>
 8    1  0.2077555E+004  0.1043930E+01  0.7957747E-01            NaN
         13   -1    0    0    0    0  0.00000000000E+00  0.00000000000E+00  0.74505805969E-08  0.10566000000E+00  0.10566000000E+00 0.  1.
     999900   -1    0    0    0    0 -0.00000000000E+00 -0.00000000000E+00 -0.74505805969E-08  0.93827000000E+00  0.93827000000E+00 0.  1.
     999902    2    1    2    0    0  0.30457398839E-02 -0.13402778868E-01  0.23203700437E-02  0.10299910212E+01  0.10298966980E+01 0.  0.
     999903    2    3    3    0    0 -0.11896592103E+00 -0.30803321910E-02  0.58274275726E-01  0.13975271723E+00  0.44413420813E-01 0.  0.
         14    1    1    2    0    0 -0.30457398839E-02  0.13402778868E-01 -0.23203700437E-02  0.13938978799E-01  0.00000000000E+00 0.  1.
     999901    1    3    3    0    0  0.12201166091E+00 -0.10322446677E-01 -0.55953905682E-01  0.89023830398E+00  0.88000000000E+00 0.  1.
        -11    1    4    4    0    0 -0.79447708813E-01  0.74838303170E-02  0.16904477681E-01  0.81571861806E-01  0.51100000000E-03 0.  1.
         11    1    4    4    0    0 -0.39518212214E-01 -0.10564162508E-01  0.41369798044E-01  0.58180855419E-01  0.51100000000E-03 0. -1.
</event>
<event>
 8    1  0.2077555E+004  0.1043930E+01  0.7957747E-01            NaN
         13   -1    0    0    0    0  0.00000000000E+00  0.00000000000E+00  0.74505805969E-08  0.10566000000E+00  0.10566000000E+00 0.  1.
     999900   -1    0    0    0    0 -0.00000000000E+00 -0.00000000000E+00 -0.74505805969E-08  0.93827000000E+00  0.93827000000E+00 0.  1.
     999902    2    1    2    0    0  0.67043444539E-02 -0.10517865711E-01 -0.53118859050E-02  0.10303730879E+01  0.10302838980E+01 0.  0.
     999903    2    3    3    0    0 -0.94278524701E-01 -0.93352394937E-01  0.11483508615E-01  0.14057469255E+00  0.45014035098E-01 0.  0.
         14    1    1    2    0    0 -0.67043444539E-02  0.10517865711E-01  0.53118859050E-02  0.13556912095E-01  0.00000000000E+00 0.  1.
     999901    1    3    3    0    0  0.10098286916E+00  0.82834529226E-01 -0.16795394520E-01  0.88979839535E+00  0.88000000000E+00 0. -1.
        -11    1    4    4    0    0 -0.62242027694E-01 -0.85248424920E-01 -0.10011058021E-03  0.10555394406E+00  0.51100000000E-03 0.  1.
         11    1    4    4    0    0 -0.32036497007E-01 -0.81039700170E-02  0.11583619196E-01  0.35020748496E-01  0.51100000000E-03 0. -1.
</event>
<event>
 8    1  0.2077555E+004  0.1043930E+01  0.7957747E-01            NaN
         13   -1    0    0    0    0  0.00000000000E+00  0.00000000000E+00  0.74505805969E-08  0.10566000000E+00  0.10566000000E+00 0. -1.
     999900   -1    0    0    0    0 -0.00000000000E+00 -0.00000000000E+00 -0.74505805969E-08  0.93827000000E+00  0.93827000000E+00 0.  1.
     999902    2    1    2    0    0 -0.87972766575E-02  0.50679818765E-02  0.27415850481E-02  0.10334136886E+01  0.10333601787E+01 0.  0.
     999903    2    3    3    0    0 -0.32927666905E-01 -0.11758915462E+00  0.59799090660E-01  0.14274954998E+00  0.43474846108E-01 0.  0.
         14    1    1    2    0    0  0.87972766575E-02 -0.50679818765E-02 -0.27415850481E-02  0.10516311400E-01  0.00000000000E+00 0.  1.
     999901    1    3    3    0    0  0.24130390247E-01  0.12265713650E+00 -0.57057505612E-01  0.89066413861E+00  0.88000000000E+00 0.  1.
        -11    1    4    4    0    0  0.71462098419E-02 -0.30829488510E-01  0.35335033599E-02  0.31847644244E-01  0.51100000000E-03 0.  1.
         11    1    4    4    0    0 -0.40073876746E-01 -0.86759666114E-01  0.56265587301E-01  0.11090190574E+00  0.51100000000E-03 0. -1.
</event>
<event>
 8    1  0.2077555E+004  0.1043930E+01  0.7957747E-01            NaN
         13   -1    0    0    0    0  0.00000000000E+00  0.00000000000E+00  0.74505805969E-08  0.10566000000E+00  0.10566000000E+00 0.  1.
     999900   -1    0    0    0    0 -0.00000000000E+00 -0.00000000000E+00 -0.74505805969E-08  0.93827000000E+00  0.93827000000E+00 0. -1.
     999902    2    1    2    0    0  0.64832753299E-02 -0.10774579099E-01 -0.34410372532E-02  0.10308929317E+01  0.10308104925E+01 0.  0.
     999903    2    3    3    0    0  0.11305215508E+00 -0.10744707771E-01 -0.71440780645E-01  0.14185924718E+00  0.46087117045E-01 0.  0.
         14    1    1    2    0    0 -0.64832753299E-02  0.10774579099E-01  0.34410372532E-02  0.13037068349E-01  0.00000000000E+00 0.  1.
     999901    1    3    3    0    0 -0.10656887975E+00 -0.29871327232E-04  0.67999743392E-01  0.88903368447E+00  0.88000000000E+00 0.  1.
        -11    1    4    4    0    0  0.16121149637E-01 -0.58134272768E-02  0.54985410055E-02  0.18005068079E-01  0.51100000000E-03 0.  1.
         11    1    4    4    0    0  0.96931005444E-01 -0.49312804946E-02 -0.76939321650E-01  0.12385417910E+00  0.51100000000E-03 0. -1.
</event>
<event>
 8    1  0.2077555E+004  0.1043930E+01  0.7957747E-01            NaN
         13   -1    0    0    0    0  0.00000000000E+00  0.00000000000E+00  0.74505805969E-08  0.10566000000E+00  0.10566000000E+00 0. -1.
     999900   -1    0    0    0    0 -0.00000000000E+00 -0.00000000000E+00 -0.74505805969E-08  0.93827000000E+00  0.93827000000E+00 0.  1.
     999902    2    1    2    0    0  0.54738481811E-02 -0.44576732760E-02 -0.12424637400E-01  0.10296399517E+01  0.10295407834E+01 0.  0.
     999903    2    3    3    0    0 -0.77965164116E-01 -0.41991214887E-01  0.95967596543E-01  0.13828159961E+00  0.45499365508E-01 0.  0.
         14    1    1    2    0    0 -0.54738481811E-02  0.44576732760E-02  0.12424637400E-01  0.14290048266E-01  0.00000000000E+00 0. -1.
     999901    1    3    3    0    0  0.83439012297E-01  0.37533541611E-01 -0.10839223394E+00  0.89135835212E+00  0.88000000000E+00 0.  1.
        -11    1    4    4    0    0 -0.39336779262E-01 -0.16118596789E-01  0.77218469589E-01  0.88148423309E-01  0.51100000000E-03 0. -1.
         11    1    4    4    0    0 -0.38628384854E-01 -0.25872618097E-01  0.18749126954E-01  0.50133176302E-01  0.51100000000E-03 0.  1.
</event>
<event>
 8    1  0.2077555E+004  0.1043930E+01  0.7957747E-01            NaN
         13   -1    0    0    0    0  0.00000000000E+00  0.00000000000E+00  0.74505805969E-08  0.10566000000E+00  0.10566000000E+00 0. -1.
     999900   -1    0    0    0    0 -0.00000000000E+00 -0.00000000000E+00 -0.74505805969E-08  0.93827000000E+00  0.93827000000E+00 0. -1.
     999902    2    1    2    0    0  0.25815087473E-02  0.23035332490E-02  0.13487931345E-01  0.10300053907E+01  0.10299112632E+01 0.  0.
     999903    2    3    3    0    0 -0.12951008251E+00  0.25656359303E-01  0.77361279027E-02  0.13982191172E+00  0.45378508988E-01 0.  0.
         14    1    1    2    0    0 -0.25815087473E-02 -0.23035332490E-02 -0.13487931345E-01  0.13924609323E-01  0.00000000000E+00 0.  1.
     999901    1    3    3    0    0  0.13209159126E+00 -0.23352826054E-01  0.57518034424E-02  0.89018347896E+00  0.88000000000E+00 0. -1.
        -11    1    4    4    0    0 -0.28754732552E-01 -0.43209970352E-02  0.17997768133E-01  0.34200678915E-01  0.51100000000E-03 0.  1.
         11    1    4    4    0    0 -0.10075534996E+00  0.29977356338E-01 -0.10261640230E-01  0.10562123280E+00  0.51100000000E-03 0. -1.
</event>
<event>
 8    1  0.2077555E+004  0.1043930E+01  0.7957747E-01            NaN
         13   -1    0    0    0    0  0.00000000000E+00  0.00000000000E+00  0.74505805969E-08  0.10566000000E+00  0.10566000000E+00 0.  1.
     999900   -1    0    0    0    0 -0.00000000000E+00 -0.00000000000E+00 -0.74505805969E-08  0.93827000000E+00  0.93827000000E+00 0.  1.
     999902    2    1    2    0    0 -0.11020632203E-02  0.11424327460E-01 -0.67754593881E-02  0.10306019600E+01  0.10305157753E+01 0.  0.
     999903    2    3    3    0    0  0.48945488244E-01  0.12302501123E+00  0.20649587830E-01  0.14171973872E+00  0.46122279415E-01 0.  0.
         14    1    1    2    0    0  0.11020632203E-02 -0.11424327460E-01  0.67754593881E-02  0.13328040035E-01  0.00000000000E+00 0.  1.
     999901    1    3    3    0    0 -0.50047551464E-01 -0.11160068377E+00 -0.27425047219E-01  0.88888222124E+00  0.88000000000E+00 0. -1.
        -11    1    4    4    0    0  0.43250341831E-01  0.10589604037E+00  0.33917413245E-01  0.11931142224E+00  0.51100000000E-03 0.  1.
         11    1    4    4    0    0  0.56951464127E-02  0.17128970862E-01 -0.13267825415E-01  0.22408316485E-01  0.51100000000E-03 0. -1.
</event>
<event>
 8    1  0.2077555E+004  0.1043930E+01  0.7957747E-01            NaN
         13   -1    0    0    0    0  0.00000000000E+00  0.00000000000E+00  0.74505805969E-08  0.10566000000E+00  0.10566000000E+00 0.  1.
     999900   -1    0    0    0    0 -0.00000000000E+00 -0.00000000000E+00 -0.74505805969E-08  0.93827000000E+00  0.93827000000E+00 0.  1.
     999902    2    1    2    0    0 -0.48725745546E-02 -0.70134422336E-02 -0.10391889739E-01  0.10304792853E+01  0.10303914963E+01 0.  0.
     999903    2    3    3    0    0 -0.17321976968E-01 -0.12273813565E+00  0.49040128483E-01  0.14082802938E+00  0.45419146066E-01 0.  0.
         14    1    1    2    0    0  0.48725745546E-02  0.70134422336E-02  0.10391889739E-01  0.13450714743E-01  0.00000000000E+00 0.  1.
     999901    1    3    3    0    0  0.12449402413E-01  0.11572469342E+00 -0.59432018222E-01  0.88965125587E+00  0.88000000000E+00 0. -1.
        -11    1    4    4    0    0 -0.67832899363E-02 -0.52271694388E-01 -0.26848253857E-02  0.52780796365E-01  0.51100000000E-03 0. -1.
         11    1    4    4    0    0 -0.10538687031E-01 -0.70466441263E-01  0.51724953868E-01  0.88047233019E-01  0.51100000000E-03 0.  1.
</event>
<event>
 8    1  0.2077555E+004  0.1043930E+01  0.7957747E-01            NaN
         13   -1    0    0    0    0  0.00000000000E+00  0.00000000000E+00  0.74505805969E-08  0.10566000000E+00  0.10566000000E+00 0.  1.
     999900   -1    0    0    0    0 -0.00000000000E+00 -0.00000000000E+00 -0.74505805969E-08  0.93827000000E+00  0.93827000000E+00 0.  1.
     999902    2    1    2    0    0  0.88722118755E-03  0.27877485251E-02 -0.13578898087E-01  0.10300395293E+01  0.10299458659E+01 0.  0.
     999903    2    3    3    0    0  0.26864245405E-01 -0.53494582890E-01 -0.12006163916E+00  0.14145577929E+00  0.44850665753E-01 0.  0.
         14    1    1    2    0    0 -0.88722118755E-03 -0.27877485251E-02  0.13578898087E-01  0.13890470709E-01  0.00000000000E+00 0.  1.
     999901    1    3    3    0    0 -0.25977024218E-01  0.56282331415E-01  0.10648274107E+00  0.88858375000E+00  0.88000000000E+00 0. -1.
        -11    1    4    4    0    0  0.13772322011E-01 -0.56390314486E-02 -0.42846837804E-02  0.15495004529E-01  0.51100000000E-03 0. -1.
         11    1    4    4    0    0  0.13091923395E-01 -0.47855551441E-01 -0.11577695538E+00  0.12596077476E+00  0.51100000000E-03 0.  1.
</event>
<event>
 8    1  0.2077555E+004  0.1043930E+01  0.7957747E-01            NaN
         13   -1    0    0    0    0  0.00000000000E+00  0.00000000000E+00  0.74505805969E-08  0.10566000000E+00  0.10566000000E+00 0. -1.
     999900   -1    0    0    0    0 -0.00000000000E+00 -0.00000000000E+00 -0.74505805969E-08  0.93827000000E+00  0.93827000000E+00 0.  1.
     999902    2    1    2    0    0 -0.13086155955E-01  0.53702465450E-02  0.13331192521E-02  0.10297221067E+01  0.10296240832E+01 0.  0.
     999903    2    3    3    0    0  0.11912510042E+00 -0.45667273919E-01 -0.26812864488E-01  0.13793915035E+00  0.45077600202E-01 0.  0.
         14    1    1    2    0    0  0.13086155955E-01 -0.53702465450E-02 -0.13331192521E-02  0.14207893319E-01  0.00000000000E+00 0. -1.
     999901    1    3    3    0    0 -0.13221125637E+00  0.51037520464E-01  0.28145983741E-01  0.89178295633E+00  0.88000000000E+00 0. -1.
        -11    1    4    4    0    0  0.68435701533E-01 -0.47848097714E-01 -0.82526398088E-02  0.83912173635E-01  0.51100000000E-03 0. -1.
         11    1    4    4    0    0  0.50689398883E-01  0.21808237954E-02 -0.18560224680E-01  0.54026976713E-01  0.51100000000E-03 0.  1.
</event>
<event>
 8    1  0.2077555E+004  0.1043930E+01  0.7957747E-01            NaN
         13   -1    0    0    0    0  0.00000000000E+00  0.00000000000E+00  0.74505805969E-08  0.10566000000E+00  0.10566000000E+00 0. -1.
     999900   -1    0    0    0    0 -0.00000000000E+00 -0.00000000000E+00 -0.74505805969E-08  0.93827000000E+00  0.93827000000E+00 0. -1.
     999902    2    1    2    0    0 -0.90839930667E-04  0.88341732580E-02 -0.10625485277E-01  0.10301114687E+01  0.10300187795E+01 0.  0.
     999903    2    3    3    0    0  0.53257076355E-01  0.12153388772E+00  0.12971379181E-01  0.14100852878E+00  0.45916734051E-01 0.  0.
         14    1    1    2    0    0  0.90839930667E-04 -0.88341732580E-02  0.10625485277E-01  0.13818531268E-01  0.00000000000E+00 0. -1.
     999901    1    3    3    0    0 -0.53347916286E-01 -0.11269971446E+00 -0.23596864458E-01  0.88910293995E+00  0.88000000000E+00 0. -1.
        -11    1    4    4    0    0  0.51678640688E-02  0.12454549136E-01 -0.13290141755E-01  0.18939683262E-01  0.51100000000E-03 0.  1.
         11    1    4    4    0    0  0.48089212286E-01  0.10907933858E+00  0.26261520936E-01  0.12206884552E+00  0.51100000000E-03 0. -1.
</event>
<event>
 8    1  0.2077555E+004  0.1043930E+01  0.7957747E-01            NaN
         13   -1    0    0    0    0  0.00000000000E+00  0.00000000000E+00  0.74505805969E-08  0.10566000000E+00  0.10566000000E+00 0.  1.
     999900   -1    0    0    0    0 -0.00000000000E+00 -0.00000000000E+00 -0.74505805969E-08  0.93827000000E+00  0.93827000000E+00 0. -1.
     999902    2    1    2    0    0 -0.65867447200E-02  0.80541109360E-02 -0.92080715215E-02  0.10300360268E+01  0.10299423159E+01 0.  0.
     999903    2    3    3    0    0  0.67355925468E-01  0.10873233249E+00  0.35309603622E-01  0.14010038525E+00  0.44964530644E-01 0.  0.
         14    1    1    2    0    0  0.65867447200E-02 -0.80541109360E-02  0.92080715215E-02  0.13893973158E-01  0.00000000000E+00 0.  1.
     999901    1    3    3    0    0 -0.73942670188E-01 -0.10067822155E+00 -0.44517675143E-01  0.88993564159E+00  0.88000000000E+00 0. -1.
        -11    1    4    4    0    0  0.13725256382E-02  0.40137128716E-01  0.67488829531E-02  0.40726913341E-01  0.51100000000E-03 0. -1.
         11    1    4    4    0    0  0.65983399830E-01  0.68595203773E-01  0.28560720669E-01  0.99373471912E-01  0.51100000000E-03 0.  1.
</event>
<event>
 8    1  0.2077555E+004  0.1043930E+01  0.7957747E-01            NaN
         13   -1    0    0    0    0  0.00000000000E+00  0.00000000000E+00  0.74505805969E-08  0.10566000000E+00  0.10566000000E+00 0.  1.
     999900   -1    0    0    0    0 -0.00000000000E+00 -0.00000000000E+00 -0.74505805969E-08  0.93827000000E+00  0.93827000000E+00 0. -1.
     999902    2    1    2    0    0 -0.89209370662E-02  0.67905070933E-02  0.95240451679E-02  0.10292194072E+01  0.10291142728E+01 0.  0.
     999903    2    3    3    0    0 -0.70349961964E-01  0.55197665821E-01 -0.96634181393E-01  0.13939563408E+00  0.45793867774E-01 0.  0.
         14    1    1    2    0    0  0.89209370662E-02 -0.67905070933E-02 -0.95240451679E-02  0.14710592819E-01  0.00000000000E+00 0. -1.
     999901    1    3    3    0    0  0.61429024897E-01 -0.48407158728E-01  0.10615822656E+00  0.88982377310E+00  0.88000000000E+00 0.  1.
        -11    1    4    4    0    0 -0.65654257509E-01  0.44986762247E-01 -0.56216903340E-01  0.97441734635E-01  0.51100000000E-03 0.  1.
         11    1    4    4    0    0 -0.46957044550E-02  0.10210903574E-01 -0.40417278053E-01  0.41953899442E-01  0.51100000000E-03 0. -1.
</event>
<event>
 8    1  0.2077555E+004  0.1043930E+01  0.7957747E-01            NaN
         13   -1    0    0    0    0  0.00000000000E+00  0.00000000000E+00  0.74505805969E-08  0.10566000000E+00  0.10566000000E+00 0.  1.
     999900   -1    0    0    0    0 -0.00000000000E+00 -0.00000000000E+00 -0.74505805969E-08  0.93827000000E+00  0.93827000000E+00 0. -1.
     999902    2    1    2    0    0 -0.49677069518E-02  0.13518990102E-01  0.28454383164E-02  0.10292487969E+01  0.10291440852E+01 0.  0.
     999903    2    3    3    0    0  0.35924074770E-01 -0.12347290764E+00 -0.17901272024E-01  0.13747004414E+00  0.45182512393E-01 0.  0.
         14    1    1    2    0    0  0.49677069518E-02 -0.13518990102E-01 -0.28454383164E-02  0.14681203117E-01  0.00000000000E+00 0.  1.
     999901    1    3    3    0    0 -0.40891781722E-01  0.13699189774E+00  0.20746710340E-01  0.89177875275E+00  0.88000000000E+00 0.  1.
        -11    1    4    4    0    0  0.14391299013E-01 -0.72307714883E-01 -0.31720591038E-01  0.80261897160E-01  0.51100000000E-03 0. -1.
         11    1    4    4    0    0  0.21532775757E-01 -0.51165192756E-01  0.13819319015E-01  0.57208146977E-01  0.51100000000E-03 0.  1.
</event>
<event>
 8    1  0.2077555E+004  0.1043930E+01  0.7957747E-01            NaN
         13   -1    0    0    0    0  0.00000000000E+00  0.00000000000E+00  0.74505805969E-08  0.10566000000E+00  0.10566000000E+00 0. -1.
     999900   -1    0    0    0    0 -0.00000000000E+00 -0.00000000000E+00 -0.74505805969E-08  0.93827000000E+00  0.93827000000E+00 0. -1.
     999902    2    1    2    0    0  0.44282387172E-02 -0.58791895002E-02  0.13741416138E-01  0.10283415208E+01  0.10282233622E+01 0.  0.
     999903    2    3    3    0    0 -0.17317859721E-01  0.88027349036E-01 -0.92887765744E-01  0.13667952584E+00  0.44770898070E-01 0.  0.
         14    1    1    2    0    0 -0.44282387172E-02  0.58791895002E-02 -0.13741416138E-01  0.15588479233E-01  0.00000000000E+00 0.  1.
     999901    1    3    3    0    0  0.21746098438E-01 -0.93906538536E-01  0.10662918188E+00  0.89166199493E+00  0.88000000000E+00 0.  1.
        -11    1    4    4    0    0  0.18021594392E-02  0.77387781227E-01 -0.64026166582E-01  0.10045759100E+00  0.51100000000E-03 0. -1.
         11    1    4    4    0    0 -0.19120019160E-01  0.10639567809E-01 -0.28861599162E-01  0.36221934833E-01  0.51100000000E-03 0.  1.
</event>
<event>
 8    1  0.2077555E+004  0.1043930E+01  0.7957747E-01            NaN
         13   -1    0    0    0    0  0.00000000000E+00  0.00000000000E+00  0.74505805969E-08  0.10566000000E+00  0.10566000000E+00 0. -1.
     999900   -1    0    0    0    0 -0.00000000000E+00 -0.00000000000E+00 -0.74505805969E-08  0.93827000000E+00  0.93827000000E+00 0. -1.
     999902    2    1    2    0    0  0.59579362615E-02  0.12465441312E-01 -0.14861764993E-02  0.10300342110E+01  0.10299404754E+01 0.  0.
     999903    2    3    3    0    0  0.89275344052E-01 -0.54478881288E-01  0.81046227511E-01  0.13973373897E+00  0.44933186520E-01 0.  0.
         14    1    1    2    0    0 -0.59579362615E-02 -0.12465441312E-01  0.14861764993E-02  0.13895789009E-01  0.00000000000E+00 0.  1.
     999901    1    3    3    0    0 -0.83317407791E-01  0.66944322599E-01 -0.82532404010E-01  0.89030047202E+00  0.88000000000E+00 0. -1.
        -11    1    4    4    0    0  0.90568709545E-03 -0.67780509818E-02  0.22430949295E-01  0.23455721083E-01  0.51100000000E-03 0.  1.
         11    1    4    4    0    0  0.88369656957E-01 -0.47700830306E-01  0.58615278215E-01  0.11627801789E+00  0.51100000000E-03 0. -1.
</event>
<event>
 8    1  0.2077555E+004  0.1043930E+01  0.7957747E-01            NaN
         13   -1    0    0    0    0  0.00000000000E+00  0.00000000000E+00  0.74505805969E-08  0.10566000000E+00  0.10566000000E+00 0. -1.
     999900   -1    0    0    0    0 -0.00000000000E+00 -0.00000000000E+00 -0.74505805969E-08  0.93827000000E+00  0.93827000000E+00 0.  1.
     999902    2    1    2    0    0  0.23379653459E-02 -0.11154686431E-01 -0.33666505772E-02  0.10320460845E+01  0.10319776611E+01 0.  0.
     999903    2    3    3    0    0 -0.52355116273E-01  0.12164574344E+00  0.11687627558E-01  0.14027598036E+00  0.44743769750E-01 0.  0.
         14    1    1    2    0    0 -0.23379653459E-02  0.11154686431E-01  0.33666505772E-02  0.11883915493E-01  0.00000000000E+00 0.  1.
     999901    1    3    3    0    0  0.54693081618E-01 -0.13280042988E+00 -0.15054278135E-01  0.89177010414E+00  0.88000000000E+00 0.  1.
        -11    1    4    4    0    0 -0.44330802139E-01  0.46793449542E-01  0.36135033779E-02  0.64561331042E-01  0.51100000000E-03 0.  1.
         11    1    4    4    0    0 -0.80243141336E-02  0.74852293902E-01  0.80741241798E-02  0.75714649322E-01  0.51100000000E-03 0. -1.
</event>
<event>
 8    1  0.2077555E+004  0.1043930E+01  0.7957747E-01            NaN
         13   -1    0    0    0    0  0.00000000000E+00  0.00000000000E+00  0.74505805969E-08  0.10566000000E+00  0.10566000000E+00 0. -1.
     999900   -1    0    0    0    0 -0.00000000000E+00 -0.00000000000E+00 -0.74505805969E-08  0.93827000000E+00  0.93827000000E+00 0. -1.
     999902    2    1    2    0    0  0.13657093306E-01 -0.18100771820E-02  0.17267411182E-02  0.10300456847E+01  0.10299521049E+01 0.  0.
     999903    2    3    3    0    0 -0.67244172574E-01  0.84100963395E-01 -0.75238450114E-01  0.13883899576E+00  0.44952103172E-01 0.  0.
         14    1    1    2    0    0 -0.13657093306E-01  0.18100771820E-02 -0.17267411182E-02  0.13884315318E-01  0.00000000000E+00 0. -1.
     999901    1    3    3    0    0  0.80901265879E-01 -0.85911040577E-01  0.76965191232E-01  0.89120668892E+00  0.88000000000E+00 0. -1.
        -11    1    4    4    0    0 -0.23437526131E-02  0.32182518227E-01 -0.30711358456E-01  0.44549481646E-01  0.51100000000E-03 0. -1.
         11    1    4    4    0    0 -0.64900419961E-01  0.51918445168E-01 -0.44527091659E-01  0.94289514116E-01  0.51100000000E-03 0.  1.
</event>
<event>
 8    1  0.2077555E+004  0.1043930E+01  0.7957747E-01            NaN
         13   -1    0    0    0    0  0.00000000000E+00  0.00000000000E+00  0.74505805969E-08  0.10566000000E+00  0.10566000000E+00 0. -1.
     999900   -1    0    0    0    0 -0.00000000000E+00 -0.00000000000E+00 -0.74505805969E-08  0.93827000000E+00  0.93827000000E+00 0. -1.
     999902    2    1    2    0    0 -0.10614806408E-02  0.92718918380E-02  0.10259123540E-01  0.10300611740E+01  0.10299678043E+01 0.  0.
     999903    2    3    3    0    0 -0.11756391125E+00  0.61287698694E-01  0.15032679958E-01  0.14084733730E+00  0.45105827983E-01 0.  0.
         14    1    1    2    0    0  0.10614806408E-02 -0.92718918380E-02 -0.10259123540E-01  0.13868826021E-01  0.00000000000E+00 0. -1.
     999901    1    3    3    0    0  0.11650243061E+00 -0.52015806856E-01 -0.47735564185E-02  0.88921383668E+00  0.88000000000E+00 0. -1.
        -11    1    4    4    0    0 -0.67888841763E-01  0.34535798554E-01  0.30956768956E-01  0.82220428622E-01  0.51100000000E-03 0. -1.
         11    1    4    4    0    0 -0.49675069487E-01  0.26751900141E-01 -0.15924088997E-01  0.58626908677E-01  0.51100000000E-03 0.  1.
</event>
<event>
 8    1  0.2077555E+004  0.1043930E+01  0.7957747E-01            NaN
         13   -1    0    0    0    0  0.00000000000E+00  0.00000000000E+00  0.74505805969E-08  0.10566000000E+00  0.10566000000E+00 0. -1.
     999900   -1    0    0    0    0 -0.00000000000E+00 -0.00000000000E+00 -0.74505805969E-08  0.93827000000E+00  0.93827000000E+00 0. -1.
     999902    2    1    2    0    0 -0.12194255616E-01  0.59218853062E-02  0.59391282979E-03  0.10303608686E+01  0.10302715167E+01 0.  0.
     999903    2    3    3    0    0  0.12580806083E+00 -0.12264441945E-01  0.35198023910E-01  0.13874838191E+00  0.45101306973E-01 0.  0.
         14    1    1    2    0    0  0.12194255616E-01 -0.59218853062E-02 -0.59391282979E-03  0.13569131441E-01  0.00000000000E+00 0.  1.
     999901    1    3    3    0    0 -0.13800231644E+00  0.18186327251E-01 -0.34604111080E-01  0.89161248665E+00  0.88000000000E+00 0. -1.
        -11    1    4    4    0    0  0.38182691200E-01 -0.19335163934E-01 -0.29775089909E-02  0.42905630777E-01  0.51100000000E-03 0.  1.
         11    1    4    4    0    0  0.87625369627E-01  0.70707219886E-02  0.38175532901E-01  0.95842751134E-01  0.51100000000E-03 0. -1.
</event>
<event>
 8    1  0.2077555E+004  0.1043930E+01  0.7957747E-01            NaN
         13   -1    0    0    0    0  0.00000000000E+00  0.00000000000E+00  0.74505805969E-08  0.10566000000E+00  0.10566000000E+00 0.  1.
     999900   -1    0    0    0    0 -0.00000000000E+00 -0.00000000000E+00 -0.74505805969E-08  0.93827000000E+00  0.93827000000E+00 0.  1.
     999902    2    1    2    0    0 -0.99602234252E-02 -0.23537659264E-02  0.80463021555E-02  0.10309111966E+01  0.10308289897E+01 0.  0.
     999903    2    3    3    0    0 -0.48747710236E-01  0.37109604846E-01  0.12020613508E+00  0.14206832243E+00  0.44502037042E-01 0.  0.
         14    1    1    2    0    0  0.99602234252E-02  0.23537659264E-02 -0.80463021555E-02  0.13018803443E-01  0.00000000000E+00 0. -1.
     999901    1    3    3    0    0  0.38787486811E-01 -0.39463370772E-01 -0.11215983293E+00  0.88884287413E+00  0.88000000000E+00 0.  1.
        -11    1    4    4    0    0 -0.12963672212E-01 -0.95573532080E-02  0.35071433856E-01  0.38596196591E-01  0.51100000000E-03 0.  1.
         11    1    4    4    0    0 -0.35784038024E-01  0.46666958054E-01  0.85134701227E-01  0.10347212584E+00  0.51100000000E-03 0. -1.
</event>
<event>
 7    1  0.2077555E+004  0.1043930E+01  0.7957747E-01            NaN
         13   -1    0    0    0    0  0.00000000000E+00  0.00000000000E+00  0.74505805969E-08  0.10566000000E+00  0.10566000000E+00 0.  1.
     999900   -1    0    0    0    0 -0.00000000000E+00 -0.00000000000E+00 -0.74505805969E-08  0.93827000000E+00  0.93827000000E+00 0. -1.
     999903    2    1    2    0    0  0.13106002080E-01  0.73830816134E-02 -0.47083148444E-01  0.67233141060E-01  0.45576257028E-01 0.  0.
         14    1    1    2    0    0  0.51131172339E-01 -0.42875161170E-01 -0.56699306888E-01  0.87564191492E-01  0.00000000000E+00 0. -1.
     999901    1    1    2    0    0 -0.64237174418E-01  0.35492079556E-01  0.10378245533E+00  0.88913266745E+00  0.88000000000E+00 0. -1.
        -11    1    3    3    0    0 -0.56413649661E-02  0.19016776108E-01 -0.62259270283E-02  0.20796299204E-01  0.51100000000E-03 0.  1.
         11    1    3    3    0    0  0.18747367046E-01 -0.11633694494E-01 -0.40857221416E-01  0.46436841856E-01  0.51100000000E-03 0. -1.
</event>
<event>
 8    1  0.2077555E+004  0.1043930E+01  0.7957747E-01            NaN
         13   -1    0    0    0    0  0.00000000000E+00  0.00000000000E+00  0.74505805969E-08  0.10566000000E+00  0.10566000000E+00 0.  1.
     999900   -1    0    0    0    0 -0.00000000000E+00 -0.00000000000E+00 -0.74505805969E-08  0.93827000000E+00  0.93827000000E+00 0.  1.
     999902    2    1    2    0    0  0.12524400991E-01  0.53190166285E-02 -0.46142310954E-02  0.10295618517E+01  0.10294615887E+01 0.  0.
     999903    2    3    3    0    0 -0.59138711277E-01  0.11024566752E+00 -0.42630209283E-01  0.13962341653E+00  0.45009658085E-01 0.  0.
         14    1    1    2    0    0 -0.12524400991E-01 -0.53190166285E-02  0.46142310954E-02  0.14368148339E-01  0.00000000000E+00 0.  1.
     999901    1    3    3    0    0  0.71663112268E-01 -0.10492665089E+00  0.38015978188E-01  0.88993843513E+00  0.88000000000E+00 0. -1.
        -11    1    4    4    0    0 -0.51071274508E-01  0.57211025603E-01 -0.11361813238E-01  0.77528887852E-01  0.51100000000E-03 0. -1.
         11    1    4    4    0    0 -0.80674367690E-02  0.53034641919E-01 -0.31268396045E-01  0.62094528678E-01  0.51100000000E-03 0.  1.
</event>
<event>
 8    1  0.2077555E+004  0.1043930E+01  0.7957747E-01            NaN
         13   -1    0    0    0    0  0.00000000000E+00  0.00000000000E+00  0.74505805969E-08  0.10566000000E+00  0.10566000000E+00 0. -1.
     999900   -1    0    0    0    0 -0.00000000000E+00 -0.00000000000E+00 -0.74505805969E-08  0.93827000000E+00  0.93827000000E+00 0. -1.
     999902    2    1    2    0    0 -0.69882924736E-02 -0.11693061493E-01  0.38254710662E-03  0.10303024448E+01  0.10302123167E+01 0.  0.
     999903    2    3    3    0    0  0.31092023908E-01 -0.11913985621E+00 -0.52275325489E-01  0.14138862684E+00  0.45793174794E-01 0.  0.
         14    1    1    2    0    0  0.69882924736E-02  0.11693061493E-01 -0.38254710662E-03  0.13627555212E-01  0.00000000000E+00 0. -1.
     999901    1    3    3    0    0 -0.38080316381E-01  0.10744679471E+00  0.52657872595E-01  0.88891381795E+00  0.88000000000E+00 0.  1.
        -11    1    4    4    0    0  0.19730107343E-01 -0.89440572973E-01 -0.15713038561E-01  0.92930371415E-01  0.51100000000E-03 0. -1.
         11    1    4    4    0    0  0.11361916565E-01 -0.29699283233E-01 -0.36562286928E-01  0.48458255426E-01  0.51100000000E-03 0.  1.
</event>
<event>
 8    1  0.2077555E+004  0.1043930E+01  0.7957747E-01            NaN
         13   -1    0    0    0    0  0.00000000000E+00  0.00000000000E+00  0.74505805969E-08  0.10566000000E+00  0.10566000000E+00 0.  1.
     999900   -1    0    0    0    0 -0.00000000000E+00 -0.00000000000E+00 -0.74505805969E-08  0.93827000000E+00  0.93827000000E+00 0. -1.
     999902    2    1    2    0    0 -0.85265713863E-02 -0.97769435586E-02 -0.53950095168E-02  0.10298801896E+01  0.10297843501E+01 0.  0.
     999903    2    3    3    0    0 -0.83972065154E-02 -0.99973319030E-01  0.87285956499E-01  0.14042801867E+00  0.45122196656E-01 0.  0.
         14    1    1    2    0    0  0.85265713863E-02  0.97769435586E-02  0.53950095168E-02  0.14049810413E-01  0.00000000000E+00 0.  1.
     999901    1    3    3    0    0 -0.12936487092E-03  0.90196375471E-01 -0.92680966016E-01  0.88945217091E+00  0.88000000000E+00 0. -1.
        -11    1    4    4    0    0 -0.20067421194E-01 -0.20474306989E-01  0.15069719663E-01  0.32392224558E-01  0.51100000000E-03 0.  1.
         11    1    4    4    0    0  0.11670214679E-01 -0.79499012041E-01  0.72216236836E-01  0.10803579411E+00  0.51100000000E-03 0. -1.
</event>
<event>
 8    1  0.2077555E+004  0.1043930E+01  0.7957747E-01            NaN
         13   -1    0    0    0    0  0.00000000000E+00  0.00000000000E+00  0.74505805969E-08  0.10566000000E+00  0.10566000000E+00 0.  1.
     999900   -1    0    0    0    0 -0.00000000000E+00 -0.00000000000E+00 -0.74505805969E-08  0.93827000000E+00  0.93827000000E+00 0.  1.
     999902    2    1    2    0    0  0.11618195373E-01 -0.68672936200E-02  0.58882077813E-02  0.10292054227E+01  0.10291000870E+01 0.  0.
     999903    2    3    3    0    0 -0.12817022429E+00  0.18408162231E-01  0.13196181282E-01  0.13778349264E+00  0.45207132314E-01 0.  0.
         14    1    1    2    0    0 -0.11618195373E-01  0.68672936200E-02 -0.58882077813E-02  0.14724577287E-01  0.00000000000E+00 0. -1.
     999901    1    3    3    0    0  0.13978841966E+00 -0.25275455851E-01 -0.73079735010E-02  0.89142193007E+00  0.88000000000E+00 0. -1.
        -11    1    4    4    0    0 -0.59704333846E-01 -0.12278420694E-01 -0.29829021946E-02  0.61028894151E-01  0.51100000000E-03 0.  1.
         11    1    4    4    0    0 -0.68465890444E-01  0.30686582926E-01  0.16179083477E-01  0.76754598488E-01  0.51100000000E-03 0. -1.
</event>
<event>
 8    1  0.2077555E+004  0.1043930E+01  0.7957747E-01            NaN
         13   -1    0    0    0    0  0.00000000000E+00  0.00000000000E+00  0.74505805969E-08  0.10566000000E+00  0.10566000000E+00 0. -1.
     999900   -1    0    0    0    0 -0.00000000000E+00 -0.00000000000E+00 -0.74505805969E-08  0.93827000000E+00  0.93827000000E+00 0.  1.
     999902    2    1    2    0    0 -0.11282806138E-01 -0.69914781041E-02  0.28792214775E-02  0.10303479384E+01  0.10302584151E+01 0.  0.
     999903    2    3    3    0    0 -0.89005542507E-01  0.93102543066E-01  0.16961388577E-01  0.14115845116E+00  0.55208237695E-01 0.  0.
         14    1    1    2    0    0  0.11282806138E-01  0.69914781041E-02 -0.28792214775E-02  0.13582061580E-01  0.00000000000E+00 0.  1.
     999901    1    3    3    0    0  0.77722736369E-01 -0.10009402117E+00 -0.14082167099E-01  0.88918948726E+00  0.88000000000E+00 0.  1.
        -11    1    4    4    0    0 -0.10888317351E-02  0.34100091606E-01  0.15025244793E-02  0.34154362868E-01  0.51100000000E-03 0.  1.
         11    1    4    4    0    0 -0.87916710772E-01  0.59002451459E-01  0.15458864097E-01  0.10700408829E+00  0.51100000000E-03 0. -1.
</event>
<event>
 8    1  0.2077555E+004  0.1043930E+01  0.7957747E-01            NaN
         13   -1    0    0    0    0  0.00000000000E+00  0.00000000000E+00  0.74505805969E-08  0.10566000000E+00  0.10566000000E+00 0. -1.
     999900   -1    0    0    0    0 -0.00000000000E+00 -0.00000000000E+00 -0.74505805969E-08  0.93827000000E+00  0.93827000000E+00 0.  1.
     999902    2    1    2    0    0  0.99917120561E-02  0.18187832801E-01  0.86110093216E-02  0.10214626670E+01  0.10212155497E+01 0.  0.
     999903    2    3    3    0    0  0.11681089832E+00 -0.47561783009E-01  0.19047838155E-02  0.13254291582E+00  0.40707335481E-01 0.  0.
         14    1    1    2    0    0 -0.99917120561E-02 -0.18187832801E-01 -0.86110093216E-02  0.22467333027E-01  0.00000000000E+00 0.  1.
     999901    1    3    3    0    0 -0.10681918627E+00  0.65749615811E-01  0.67062255061E-02  0.88891975116E+00  0.88000000000E+00 0. -1.
        -11    1    4    4    0    0  0.90030153600E-01 -0.19474119495E-01 -0.80787379307E-02  0.92467275373E-01  0.51100000000E-03 0. -1.
         11    1    4    4    0    0  0.26780744723E-01 -0.28087663514E-01  0.99835217461E-02  0.40075640445E-01  0.51100000000E-03 0.  1.
</event>
<event>
 8    1  0.2077555E+004  0.1043930E+01  0.7957747E-01            NaN
         13   -1    0    0    0    0  0.00000000000E+00  0.00000000000E+00  0.74505805969E-08  0.10566000000E+00  0.10566000000E+00 0.  1.
     999900   -1    0    0    0    0 -0.00000000000E+00 -0.00000000000E+00 -0.74505805969E-08  0.93827000000E+00  0.93827000000E+00 0.  1.
     999902    2    1    2    0    0 -0.11469613336E-02  0.85130688381E-02 -0.11294635718E-01  0.10297399804E+01  0.10296422051E+01 0.  0.
     999903    2    3    3    0    0  0.92916804748E-01  0.87336695185E-01  0.25184293809E-01  0.14047518939E+00  0.53270998201E-01 0.  0.
         14    1    1    2    0    0  0.11469613336E-02 -0.85130688381E-02  0.11294635718E-01  0.14190019639E-01  0.00000000000E+00 0.  1.
     999901    1    3    3    0    0 -0.94063766082E-01 -0.78823626347E-01 -0.36478929527E-01  0.88926479097E+00  0.88000000000E+00 0. -1.
        -11    1    4    4    0    0  0.35301489561E-01  0.66850715738E-01  0.38119028657E-02  0.75696797055E-01  0.51100000000E-03 0. -1.
         11    1    4    4    0    0  0.57615315187E-01  0.20485979447E-01  0.21372390944E-01  0.64778392336E-01  0.51100000000E-03 0.  1.
</event>
<event>
 8    1  0.2077555E+004  0.1043930E+01  0.7957747E-01            NaN
         13   -1    0    0    0    0  0.00000000000E+00  0.00000000000E+00  0.74505805969E-08  0.10566000000E+00  0.10566000000E+00 0.  1.
     999900   -1    0    0    0    0 -0.00000000000E+00 -0.00000000000E+00 -0.74505805969E-08  0.93827000000E+00  0.93827000000E+00 0.  1.
     999902    2    1    2    0    0  0.12766600070E-01 -0.39414928011E-02  0.96604392358E-02  0.10274422613E+01  0.10273099604E+01 0.  0.
     999903    2    3    3    0    0 -0.57797312979E-01  0.96774581423E-01 -0.61952959493E-01  0.13601000229E+00  0.44212018014E-01 0.  0.
         14    1    1    2    0    0 -0.12766600070E-01  0.39414928011E-02 -0.96604392358E-02  0.16487738749E-01  0.00000000000E+00 0.  1.
     999901    1    3    3    0    0  0.70563913049E-01 -0.10071607422E+00  0.71613398729E-01  0.89143225896E+00  0.88000000000E+00 0. -1.
        -11    1    4    4    0    0 -0.16240552210E-01  0.70267717030E-02 -0.24557178532E-01  0.30272878871E-01  0.51100000000E-03 0. -1.
         11    1    4    4    0    0 -0.41556760769E-01  0.89747809720E-01 -0.37395780960E-01  0.10573712342E+00  0.51100000000E-03 0.  1.
</event>
<event>
 8    1  0.2077555E+004  0.1043930E+01  0.7957747E-01            NaN
         13   -1    0    0    0    0  0.00000000000E+00  0.00000000000E+00  0.74505805969E-08  0.10566000000E+00  0.10566000000E+00 0. -1.
     999900   -1    0    0    0    0 -0.00000000000E+00 -0.00000000000E+00 -0.74505805969E-08  0.93827000000E+00  0.93827000000E+00 0.  1.
     999902    2    1    2    0    0 -0.99123472220E-02  0.27229699500E-02 -0.85356660234E-02  0.10305686083E+01  0.10304819890E+01 0.  0.
     999903    2    3    3    0    0 -0.31956188854E-01 -0.60747899636E-01 -0.11503311205E+00  0.14160506113E+00  0.45911557952E-01 0.  0.
         14    1    1    2    0    0  0.99123472220E-02 -0.27229699500E-02  0.85356660234E-02  0.13361391666E-01  0.00000000000E+00 0. -1.
     999901    1    3    3    0    0  0.22043841632E-01  0.63470869586E-01  0.10649744603E+00  0.88896354720E+00  0.88000000000E+00 0. -1.
        -11    1    4    4    0    0 -0.31563786491E-01 -0.19878184893E-01 -0.32382304614E-01  0.49399287701E-01  0.51100000000E-03 0.  1.
         11    1    4    4    0    0 -0.39240236374E-03 -0.40869714743E-01 -0.82650807440E-01  0.92205773433E-01  0.51100000000E-03 0. -1.
</event>
<event>
 8    1  0.2077555E+004  0.1043930E+01  0.7957747E-01            NaN
         13   -1    0    0    0    0  0.00000000000E+00  0.00000000000E+00  0.74505805969E-08  0.10566000000E+00  0.10566000000E+00 0. -1.
     999900   -1    0    0    0    0 -0.00000000000E+00 -0.00000000000E+00 -0.74505805969E-08  0.93827000000E+00  0.93827000000E+00 0. -1.
     999902    2    1    2    0    0 -0.11494302220E-01  0.38534711527E-02  0.64223196041E-02  0.10302108742E+01  0.10301195226E+01 0.  0.
     999903    2    3    3    0    0 -0.52489899297E-01 -0.93734757618E-02 -0.12128515051E+00  0.13994979507E+00  0.45086648030E-01 0.  0.
         14    1    1    2    0    0  0.11494302220E-01 -0.38534711527E-02 -0.64223196041E-02  0.13719125794E-01  0.00000000000E+00 0.  1.
     999901    1    3    3    0    0  0.40995597077E-01  0.13226946915E-01  0.12770747011E+00  0.89026107914E+00  0.88000000000E+00 0.  1.
        -11    1    4    4    0    0  0.12604001490E-02 -0.11907115134E-02 -0.51270602017E-01  0.51302457588E-01  0.51100000000E-03 0. -1.
         11    1    4    4    0    0 -0.53750299446E-01 -0.81827642484E-02 -0.70014548489E-01  0.88647337481E-01  0.51100000000E-03 0.  1.
</event>
<event>
 8    1  0.2077555E+004  0.1043930E+01  0.7957747E-01            NaN
         13   -1    0    0    0    0  0.00000000000E+00  0.00000000000E+00  0.74505805969E-08  0.10566000000E+00  0.10566000000E+00 0. -1.
     999900   -1    0    0    0    0 -0.00000000000E+00 -0.00000000000E+00 -0.74505805969E-08  0.93827000000E+00  0.93827000000E+00 0. -1.
     999902    2    1    2    0    0 -0.99161775261E-02  0.24285354065E-02 -0.89327808355E-02  0.10303644947E+01  0.10302751909E+01 0.  0.
     999903    2    3    3    0    0 -0.87875136927E-01  0.95045244749E-01  0.33369879854E-02  0.14199182434E+00  0.58265808584E-01 0.  0.
         14    1    1    2    0    0  0.99161775261E-02 -0.24285354065E-02  0.89327808355E-02  0.13565505313E-01  0.00000000000E+00 0. -1.
     999901    1    3    3    0    0  0.77958959401E-01 -0.92616709343E-01 -0.12269768821E-01  0.88837267035E+00  0.88000000000E+00 0.  1.
        -11    1    4    4    0    0 -0.49356803350E-01  0.73651892137E-01  0.26062318177E-01  0.92413206859E-01  0.51100000000E-03 0.  1.
         11    1    4    4    0    0 -0.38518333577E-01  0.21393352613E-01 -0.22725330191E-01  0.49578617476E-01  0.51100000000E-03 0. -1.
</event>
<event>
 8    1  0.2077555E+004  0.1043930E+01  0.7957747E-01            NaN
         13   -1    0    0    0    0  0.00000000000E+00  0.00000000000E+00  0.74505805969E-08  0.10566000000E+00  0.10566000000E+00 0.  1.
     999900   -1    0    0    0    0 -0.00000000000E+00 -0.00000000000E+00 -0.74505805969E-08  0.93827000000E+00  0.93827000000E+00 0. -1.
     999902    2    1    2    0    0  0.84372319969E-02  0.62883210260E-02 -0.40248689711E-02  0.10326637036E+01  0.10326022444E+01 0.  0.
     999903    2    3    3    0    0 -0.10796347631E+00  0.66886036416E-01  0.43580582742E-01  0.14166006326E+00  0.45149221994E-01 0.  0.
         14    1    1    2    0    0 -0.84372319969E-02 -0.62883210260E-02  0.40248689711E-02  0.11266296434E-01  0.00000000000E+00 0. -1.
     999901    1    3    3    0    0  0.11640070831E+00 -0.60597715390E-01 -0.47605451714E-01  0.89100364031E+00  0.88000000000E+00 0. -1.
        -11    1    4    4    0    0 -0.59156813248E-01  0.51334298333E-01  0.45152771009E-01  0.90408918752E-01  0.51100000000E-03 0. -1.
         11    1    4    4    0    0 -0.48806663061E-01  0.15551738083E-01 -0.15721882670E-02  0.51251144509E-01  0.51100000000E-03 0.  1.
</event>
<event>
 8    1  0.2077555E+004  0.1043930E+01  0.7957747E-01            NaN
         13   -1    0    0    0    0  0.00000000000E+00  0.00000000000E+00  0.74505805969E-08  0.10566000000E+00  0.10566000000E+00 0. -1.
     999900   -1    0    0    0    0 -0.00000000000E+00 -0.00000000000E+00 -0.74505805969E-08  0.93827000000E+00  0.93827000000E+00 0.  1.
     999902    2    1    2    0    0  0.20900057513E-01  0.41011648056E-02 -0.14563901365E-01  0.10181280780E+01  0.10178010827E+01 0.  0.
     999903    2    3    3    0    0  0.91751462067E-01 -0.81007009945E-01 -0.14374410137E-01  0.13118762968E+00  0.44978929081E-01 0.  0.
         14    1    1    2    0    0 -0.20900057513E-01 -0.41011648056E-02  0.14563901365E-01  0.25801922018E-01  0.00000000000E+00 0. -1.
     999901    1    3    3    0    0 -0.70851404554E-01  0.85108174751E-01 -0.18949122860E-03  0.88694044831E+00  0.88000000000E+00 0. -1.
        -11    1    4    4    0    0  0.35585996814E-01 -0.58386181280E-01 -0.17410063596E-01  0.70559767355E-01  0.51100000000E-03 0. -1.
         11    1    4    4    0    0  0.56165465254E-01 -0.22620828665E-01  0.30356534590E-02  0.60627862320E-01  0.51100000000E-03 0.  1.
</event>
<event>
 8    1  0.2077555E+004  0.1043930E+01  0.7957747E-01            NaN
         13   -1    0    0    0    0  0.00000000000E+00  0.00000000000E+00  0.74505805969E-08  0.10566000000E+00  0.10566000000E+00 0. -1.
     999900   -1    0    0    0    0 -0.00000000000E+00 -0.00000000000E+00 -0.74505805969E-08  0.93827000000E+00  0.93827000000E+00 0.  1.
     999902    2    1    2    0    0  0.13747347541E-01  0.42861637526E-02  0.43292018894E-03  0.10295234673E+01  0.10294226642E+01 0.  0.
     999903    2    3    3    0    0  0.13379966791E+00  0.53101329554E-02 -0.55717958213E-02  0.14135137546E+00  0.44929030607E-01 0.  0.
         14    1    1    2    0    0 -0.13747347541E-01 -0.42861637526E-02 -0.43292018894E-03  0.14406532685E-01  0.00000000000E+00 0.  1.
     999901    1    3    3    0    0 -0.12005232037E+00 -0.10239692028E-02  0.60047160103E-02  0.88817209186E+00  0.88000000000E+00 0.  1.
        -11    1    4    4    0    0  0.78524392420E-01 -0.76982615580E-02  0.16172854891E-01  0.80542943777E-01  0.51100000000E-03 0.  1.
         11    1    4    4    0    0  0.55275275486E-01  0.13008394513E-01 -0.21744650712E-01  0.60808431681E-01  0.51100000000E-03 0. -1.
</event>
<event>
 8    1  0.2077555E+004  0.1043930E+01  0.7957747E-01            NaN
         13   -1    0    0    0    0  0.00000000000E+00  0.00000000000E+00  0.74505805969E-08  0.10566000000E+00  0.10566000000E+00 0. -1.
     999900   -1    0    0    0    0 -0.00000000000E+00 -0.00000000000E+00 -0.74505805969E-08  0.93827000000E+00  0.93827000000E+00 0.  1.
     999902    2    1    2    0    0  0.74997286266E-02  0.17814828356E-02  0.11492533831E-01  0.10300917218E+01  0.10299987657E+01 0.  0.
     999903    2    3    3    0    0  0.30166726970E-01 -0.12777736520E+00  0.21021961972E-01  0.14026584109E+00  0.44670984079E-01 0.  0.
         14    1    1    2    0    0 -0.74997286266E-02 -0.17814828356E-02 -0.11492533831E-01  0.13838278232E-01  0.00000000000E+00 0.  1.
     999901    1    3    3    0    0 -0.22666998343E-01  0.12955884804E+00 -0.95294281404E-02  0.88982588068E+00  0.88000000000E+00 0.  1.
        -11    1    4    4    0    0  0.89510210098E-02 -0.97840710518E-01  0.29538480743E-01  0.10259487500E+00  0.51100000000E-03 0.  1.
         11    1    4    4    0    0  0.21215705960E-01 -0.29936654683E-01 -0.85165187711E-02  0.37670966088E-01  0.51100000000E-03 0. -1.
</event>
<event>
 8    1  0.2077555E+004  0.1043930E+01  0.7957747E-01            NaN
         13   -1    0    0    0    0  0.00000000000E+00  0.00000000000E+00  0.74505805969E-08  0.10566000000E+00  0.10566000000E+00 0.  1.
     999900   -1    0    0    0    0 -0.00000000000E+00 -0.00000000000E+00 -0.74505805969E-08  0.93827000000E+00  0.93827000000E+00 0.  1.
     999902    2    1    2    0    0  0.81854716046E-02  0.41793440655E-03  0.11642233372E-01  0.10296920854E+01  0.10295936444E+01 0.  0.
     999903    2    3    3    0    0 -0.75618233622E-01  0.82057175349E-01 -0.68570198937E-01  0.13833241558E+00  0.44525135989E-01 0.  0.
         14    1    1    2    0    0 -0.81854716046E-02 -0.41793440655E-03 -0.11642233372E-01  0.14237914610E-01  0.00000000000E+00 0. -1.
     999901    1    3    3    0    0  0.83803705227E-01 -0.81639240942E-01  0.80212432309E-01  0.89135966981E+00  0.88000000000E+00 0. -1.
        -11    1    4    4    0    0 -0.78222241156E-02  0.38694939397E-01 -0.26177586804E-01  0.47371011146E-01  0.51100000000E-03 0. -1.
         11    1    4    4    0    0 -0.67796009507E-01  0.43362235951E-01 -0.42392612133E-01  0.90961404431E-01  0.51100000000E-03 0.  1.
</event>
<event>
 8    1  0.2077555E+004  0.1043930E+01  0.7957747E-01            NaN
         13   -1    0    0    0    0  0.00000000000E+00  0.00000000000E+00  0.74505805969E-08  0.10566000000E+00  0.10566000000E+00 0.  1.
     999900   -1    0    0    0    0 -0.00000000000E+00 -0.00000000000E+00 -0.74505805969E-08  0.93827000000E+00  0.93827000000E+00 0.  1.
     999902    2    1    2    0    0  0.69366578991E-02  0.11275444765E-01 -0.53571058578E-02  0.10296488425E+01  0.10295497984E+01 0.  0.
     999903    2    3    3    0    0  0.73477311557E-01 -0.42412095507E-01 -0.10226333809E+00  0.14021035194E+00  0.44759929807E-01 0.  0.
         14    1    1    2    0    0 -0.69366578991E-02 -0.11275444765E-01  0.53571058578E-02  0.14281157538E-01  0.00000000000E+00 0.  1.
     999901    1    3    3    0    0 -0.66540653658E-01  0.53687540272E-01  0.96906232231E-01  0.88943849052E+00  0.88000000000E+00 0. -1.
        -11    1    4    4    0    0  0.31500908911E-01 -0.36276704683E-02 -0.64013692571E-01  0.71438653493E-01  0.51100000000E-03 0. -1.
         11    1    4    4    0    0  0.41976402646E-01 -0.38784425039E-01 -0.38249645518E-01  0.68771698451E-01  0.51100000000E-03 0.  1.
</event>
<event>
 8    1  0.2077555E+004  0.1043930E+01  0.7957747E-01            NaN
         13   -1    0    0    0    0  0.00000000000E+00  0.00000000000E+00  0.74505805969E-08  0.10566000000E+00  0.10566000000E+00 0. -1.
     999900   -1    0    0    0    0 -0.00000000000E+00 -0.00000000000E+00 -0.74505805969E-08  0.93827000000E+00  0.93827000000E+00 0.  1.
     999902    2    1    2    0    0 -0.11873586902E-01  0.10727108993E-03  0.55868049673E-02  0.10308072730E+01  0.10307237400E+01 0.  0.
     999903    2    3    3    0    0  0.34752638239E-01  0.34678289551E-01  0.12407345424E+00  0.14097119474E+00  0.45478852997E-01 0.  0.
         14    1    1    2    0    0  0.11873586902E-01 -0.10727108993E-03 -0.55868049673E-02  0.13122726956E-01  0.00000000000E+00 0.  1.
     999901    1    3    3    0    0 -0.46626225141E-01 -0.34571018461E-01 -0.11848664927E+00  0.88983607830E+00  0.88000000000E+00 0.  1.
        -11    1    4    4    0    0  0.34051502750E-01  0.43624645902E-01  0.89333936227E-01  0.10508771504E+00  0.51100000000E-03 0. -1.
         11    1    4    4    0    0  0.70113548884E-03 -0.89463563504E-02  0.34739518013E-01  0.35883479704E-01  0.51100000000E-03 0.  1.
</event>
<event>
 8    1  0.2077555E+004  0.1043930E+01  0.7957747E-01            NaN
         13   -1    0    0    0    0  0.00000000000E+00  0.00000000000E+00  0.74505805969E-08  0.10566000000E+00  0.10566000000E+00 0. -1.
     999900   -1    0    0    0    0 -0.00000000000E+00 -0.00000000000E+00 -0.74505805969E-08  0.93827000000E+00  0.93827000000E+00 0.  1.
     999902    2    1    2    0    0  0.83068565191E-02 -0.49728042449E-02 -0.10588059883E-01  0.10295828867E+01  0.10294829192E+01 0.  0.
     999903    2    3    3    0    0 -0.31408445454E-01 -0.81834135325E-01 -0.10074780976E+00  0.14075571009E+00  0.44482947308E-01 0.  0.
         14    1    1    2    0    0 -0.83068565191E-02  0.49728042449E-02  0.10588059883E-01  0.14347113277E-01  0.00000000000E+00 0. -1.
     999901    1    3    3    0    0  0.39715301973E-01  0.76861331080E-01  0.90159749876E-01  0.88882717663E+00  0.88000000000E+00 0. -1.
        -11    1    4    4    0    0 -0.63833855952E-02 -0.45699446088E-01 -0.23280222321E-01  0.51685751003E-01  0.51100000000E-03 0. -1.
         11    1    4    4    0    0 -0.25025059859E-01 -0.36134689237E-01 -0.77467587438E-01  0.89069959086E-01  0.51100000000E-03 0.  1.
</event>
<event>
 8    1  0.2077555E+004  0.1043930E+01  0.7957747E-01            NaN
         13   -1    0    0    0    0  0.00000000000E+00  0.00000000000E+00  0.74505805969E-08  0.10566000000E+00  0.10566000000E+00 0. -1.
     999900   -1    0    0    0    0 -0.00000000000E+00 -0.00000000000E+00 -0.74505805969E-08  0.93827000000E+00  0.93827000000E+00 0. -1.
     999902    2    1    2    0    0 -0.12042127765E-01 -0.25292664945E-02  0.73104389021E-02  0.10296173291E+01  0.10295178444E+01 0.  0.
     999903    2    3    3    0    0 -0.62320976426E-01 -0.98816832065E-01 -0.63615866557E-01  0.14010634062E+00  0.43978833555E-01 0.  0.
         14    1    1    2    0    0  0.12042127765E-01  0.25292664945E-02 -0.73104389021E-02  0.14312670857E-01  0.00000000000E+00 0.  1.
     999901    1    3    3    0    0  0.50278848661E-01  0.96287565570E-01  0.70926305459E-01  0.88951098853E+00  0.88000000000E+00 0.  1.
        -11    1    4    4    0    0 -0.19737078961E-01 -0.65629357687E-02 -0.11625076630E-02  0.20838353028E-01  0.51100000000E-03 0. -1.
         11    1    4    4    0    0 -0.42583897464E-01 -0.92253896296E-01 -0.62453358894E-01  0.11926798759E+00  0.51100000000E-03 0.  1.
</event>
<event>
 8    1  0.2077555E+004  0.1043930E+01  0.7957747E-01            NaN
         13   -1    0    0    0    0  0.00000000000E+00  0.00000000000E+00  0.74505805969E-08  0.10566000000E+00  0.10566000000E+00 0.  1.
     999900   -1    0    0    0    0 -0.00000000000E+00 -0.00000000000E+00 -0.74505805969E-08  0.93827000000E+00  0.93827000000E+00 0.  1.
     999902    2    1    2    0    0 -0.11220145602E-01 -0.78255380530E-02  0.12336688420E-03  0.10302498709E+01  0.10301590414E+01 0.  0.
     999903    2    3    3    0    0 -0.27959748283E-02 -0.11992377300E+00  0.59145287710E-01  0.14113763496E+00  0.45079242874E-01 0.  0.
         14    1    1    2    0    0  0.11220145602E-01  0.78255380530E-02 -0.12336688420E-03  0.13680129112E-01  0.00000000000E+00 0. -1.
     999901    1    3    3    0    0 -0.84241707736E-02  0.11209823495E+00 -0.59021920826E-01  0.88911223592E+00  0.88000000000E+00 0.  1.
        -11    1    4    4    0    0 -0.23385660307E-01 -0.50440568979E-01  0.28078168620E-01  0.62287918419E-01  0.51100000000E-03 0.  1.
         11    1    4    4    0    0  0.20589685478E-01 -0.69483204024E-01  0.31067119090E-01  0.78849716544E-01  0.51100000000E-03 0. -1.
</event>
<event>
 8    1  0.2077555E+004  0.1043930E+01  0.7957747E-01            NaN
         13   -1    0    0    0    0  0.00000000000E+00  0.00000000000E+00  0.74505805969E-08  0.10566000000E+00  0.10566000000E+00 0.  1.
     999900   -1    0    0    0    0 -0.00000000000E+00 -0.00000000000E+00 -0.74505805969E-08  0.93827000000E+00  0.93827000000E+00 0. -1.
     999902    2    1    2    0    0  0.10935116391E-01 -0.37311668298E-02  0.64130400640E-02  0.10307154073E+01  0.10306306931E+01 0.  0.
     999903    2    3    3    0    0 -0.85570051444E-01  0.42832294891E-03  0.10167761824E+00  0.14031892900E+00  0.45040499789E-01 0.  0.
         14    1    1    2    0    0 -0.10935116391E-01  0.37311668298E-02 -0.64130400640E-02  0.13214592664E-01  0.00000000000E+00 0.  1.
     999901    1    3    3    0    0  0.96505167836E-01 -0.41594897787E-02 -0.95264578174E-01  0.89039647833E+00  0.88000000000E+00 0. -1.
        -11    1    4    4    0    0 -0.58528746022E-01  0.17289161328E-01  0.84131391745E-01  0.10393691071E+00  0.51100000000E-03 0.  1.
         11    1    4    4    0    0 -0.27041305422E-01 -0.16860838379E-01  0.17546226493E-01  0.36382018291E-01  0.51100000000E-03 0. -1.
</event>
<event>
 8    1  0.2077555E+004  0.1043930E+01  0.7957747E-01            NaN
         13   -1    0    0    0    0  0.00000000000E+00  0.00000000000E+00  0.74505805969E-08  0.10566000000E+00  0.10566000000E+00 0.  1.
     999900   -1    0    0    0    0 -0.00000000000E+00 -0.00000000000E+00 -0.74505805969E-08  0.93827000000E+00  0.93827000000E+00 0. -1.
     999902    2    1    2    0    0  0.12055746666E-01 -0.33028821659E-02  0.58522840485E-02  0.10301278521E+01  0.10300353840E+01 0.  0.
     999903    2    3    3    0    0  0.75880445358E-01  0.67019684043E-02 -0.10848422241E+00  0.14038264929E+00  0.46213670506E-01 0.  0.
         14    1    1    2    0    0 -0.12055746666E-01  0.33028821659E-02 -0.58522840485E-02  0.13802147907E-01  0.00000000000E+00 0. -1.
     999901    1    3    3    0    0 -0.63824698693E-01 -0.10004850570E-01  0.11433650646E+00  0.88974520280E+00  0.88000000000E+00 0.  1.
        -11    1    4    4    0    0  0.43895565947E-01  0.87145951925E-02 -0.96119390293E-01  0.10602812453E+00  0.51100000000E-03 0. -1.
         11    1    4    4    0    0  0.31984879412E-01 -0.20126267882E-02 -0.12364832118E-01  0.34354524766E-01  0.51100000000E-03 0.  1.
</event>
<event>
 7    1  0.2077555E+004  0.1043930E+01  0.7957747E-01            NaN
         13   -1    0    0    0    0  0.00000000000E+00  0.00000000000E+00  0.74505805969E-08  0.10566000000E+00  0.10566000000E+00 0. -1.
     999900   -1    0    0    0    0 -0.00000000000E+00 -0.00000000000E+00 -0.74505805969E-08  0.93827000000E+00  0.93827000000E+00 0. -1.
     999902    2    1    2    0    0  0.80007591993E-02  0.57773078649E-02 -0.91582237654E-02  0.10304666239E+01  0.10303786685E+01 0.  0.
         14    1    1    2    0    0 -0.80007591993E-02 -0.57773078649E-02  0.91582237654E-02  0.13463376117E-01  0.00000000000E+00 0. -1.
     999901    1    3    3    0    0  0.75035321489E-01  0.34759491346E-01 -0.11062200375E+00  0.89077255763E+00  0.88000000000E+00 0. -1.
        -11    1    3    3    0    0 -0.31263674177E-01  0.15938098370E-01  0.57531747523E-01  0.67391419311E-01  0.51100000000E-03 0.  1.
         11    1    3    3    0    0 -0.35770888112E-01 -0.44920281852E-01  0.43932032460E-01  0.72302646944E-01  0.51100000000E-03 0. -1.
</event>
<event>
 8    1  0.2077555E+004  0.1043930E+01  0.7957747E-01            NaN
         13   -1    0    0    0    0  0.00000000000E+00  0.00000000000E+00  0.74505805969E-08  0.10566000000E+00  0.10566000000E+00 0.  1.
     999900   -1    0    0    0    0 -0.00000000000E+00 -0.00000000000E+00 -0.74505805969E-08  0.93827000000E+00  0.93827000000E+00 0.  1.
     999902    2    1    2    0    0  0.13610485305E-01  0.26111511167E-02 -0.28059895362E-02  0.10297900920E+01  0.10296930109E+01 0.  0.
     999903    2    3    3    0    0  0.17755310682E-01  0.13174295222E+00 -0.19430087884E-02  0.14035603242E+00  0.44995377953E-01 0.  0.
         14    1    1    2    0    0 -0.13610485305E-01 -0.26111511167E-02  0.28059895362E-02  0.14139907980E-01  0.00000000000E+00 0. -1.
     999901    1    3    3    0    0 -0.41448253767E-02 -0.12913180110E+00 -0.86298074778E-03  0.88943405960E+00  0.88000000000E+00 0.  1.
        -11    1    4    4    0    0 -0.67921659756E-02  0.54899767713E-01 -0.17856171222E-01  0.58131075900E-01  0.51100000000E-03 0. -1.
         11    1    4    4    0    0  0.24547476658E-01  0.76843184509E-01  0.15913162434E-01  0.82224956524E-01  0.51100000000E-03 0.  1.
</event>
<event>
 8    1  0.2077555E+004  0.1043930E+01  0.7957747E-01            NaN
         13   -1    0    0    0    0  0.00000000000E+00  0.00000000000E+00  0.74505805969E-08  0.10566000000E+00  0.10566000000E+00 0. -1.
     999900   -1    0    0    0    0 -0.00000000000E+00 -0.00000000000E+00 -0.74505805969E-08  0.93827000000E+00  0.93827000000E+00 0. -1.
     999902    2    1    2    0    0 -0.14810468556E-03 -0.11993773939E-01  0.40231138394E-02  0.10312785972E+01  0.10312009925E+01 0.  0.
     999903    2    3    3    0    0 -0.78252786978E-01  0.67014533894E-01 -0.83438780955E-01  0.13999175382E+00  0.44957919755E-01 0.  0.
         14    1    1    2    0    0  0.14810468556E-03  0.11993773939E-01 -0.40231138394E-02  0.12651402818E-01  0.00000000000E+00 0.  1.
     999901    1    3    3    0    0  0.78104682292E-01 -0.79008307833E-01  0.87461894794E-01  0.89128684336E+00  0.88000000000E+00 0.  1.
        -11    1    4    4    0    0 -0.61454694553E-01  0.45630556491E-01 -0.34407544842E-01  0.83922389333E-01  0.51100000000E-03 0.  1.
         11    1    4    4    0    0 -0.16798092424E-01  0.21383977403E-01 -0.49031236113E-01  0.56069364491E-01  0.51100000000E-03 0. -1.
</event>
<event>
 8    1  0.2077555E+004  0.1043930E+01  0.7957747E-01            NaN
         13   -1    0    0    0    0  0.00000000000E+00  0.00000000000E+00  0.74505805969E-08  0.10566000000E+00  0.10566000000E+00 0.  1.
     999900   -1    0    0    0    0 -0.00000000000E+00 -0.00000000000E+00 -0.74505805969E-08  0.93827000000E+00  0.93827000000E+00 0. -1.
     999902    2    1    2    0    0  0.70024821304E-02  0.74154603623E-02 -0.61058148623E-02  0.10320428311E+01  0.10319743701E+01 0.  0.
     999903    2    3    3    0    0  0.85588600423E-01 -0.39248726656E-01 -0.97100611770E-01  0.14264225918E+00  0.45303578571E-01 0.  0.
         14    1    1    2    0    0 -0.70024821304E-02 -0.74154603623E-02  0.61058148623E-02  0.11887168860E-01  0.00000000000E+00 0.  1.
     999901    1    3    3    0    0 -0.78586118293E-01  0.46664187018E-01  0.90994796908E-01  0.88940057196E+00  0.88000000000E+00 0.  1.
        -11    1    4    4    0    0  0.82212205879E-01 -0.30230820781E-01 -0.64871385186E-01  0.10900140851E+00  0.51100000000E-03 0. -1.
         11    1    4    4    0    0  0.33763945446E-02 -0.90179058745E-02 -0.32229226584E-01  0.33640850668E-01  0.51100000000E-03 0.  1.
</event>
<event>
 8    1  0.2077555E+004  0.1043930E+01  0.7957747E-01            NaN
         13   -1    0    0    0    0  0.00000000000E+00  0.00000000000E+00  0.74505805969E-08  0.10566000000E+00  0.10566000000E+00 0.  1.
     999900   -1    0    0    0    0 -0.00000000000E+00 -0.00000000000E+00 -0.74505805969E-08  0.93827000000E+00  0.93827000000E+00 0.  1.
     999902    2    1    2    0    0 -0.14666345058E-01  0.42356615552E-04 -0.31607563770E-02  0.10289268719E+01  0.10288174833E+01 0.  0.
     999903    2    3    3    0    0  0.97894552158E-01 -0.69809421064E-01 -0.49764964657E-01  0.13779210172E+00  0.45314600041E-01 0.  0.
         14    1    1    2    0    0  0.14666345058E-01 -0.42356615552E-04  0.31607563770E-02  0.15003128084E-01  0.00000000000E+00 0. -1.
     999901    1    3    3    0    0 -0.11256089722E+00  0.69851777679E-01  0.46604208280E-01  0.89113477020E+00  0.88000000000E+00 0. -1.
        -11    1    4    4    0    0  0.67855991237E-01 -0.25363844118E-01 -0.41569890332E-01  0.83522913254E-01  0.51100000000E-03 0. -1.
         11    1    4    4    0    0  0.30038560921E-01 -0.44445576946E-01 -0.81950743250E-02  0.54269188463E-01  0.51100000000E-03 0.  1.
</event>
<event>
 8    1  0.2077555E+004  0.1043930E+01  0.7957747E-01            NaN
         13   -1    0    0    0    0  0.00000000000E+00  0.00000000000E+00  0.74505805969E-08  0.10566000000E+00  0.10566000000E+00 0. -1.
     999900   -1    0    0    0    0 -0.00000000000E+00 -0.00000000000E+00 -0.74505805969E-08  0.93827000000E+00  0.93827000000E+00 0. -1.
     999902    2    1    2    0    0 -0.14035999766E-01  0.74393751825E-04 -0.28487292743E-02  0.10296076370E+01  0.10295080165E+01 0.  0.
     999903    2    3    3    0    0  0.60010150054E-01 -0.11508828287E+00 -0.10769432863E-01  0.13898537590E+00  0.48522397588E-01 0.  0.
         14    1    1    2    0    0  0.14035999766E-01 -0.74393751825E-04  0.28487292743E-02  0.14322363015E-01  0.00000000000E+00 0. -1.
     999901    1    3    3    0    0 -0.74046149820E-01  0.11516267662E+00  0.79207035886E-02  0.89062226108E+00  0.88000000000E+00 0.  1.
        -11    1    4    4    0    0  0.26327625880E-01 -0.19787621599E-01  0.12554577956E-01  0.35250140449E-01  0.51100000000E-03 0. -1.
         11    1    4    4    0    0  0.33682524174E-01 -0.95300661269E-01 -0.23324010819E-01  0.10373523545E+00  0.51100000000E-03 0.  1.
</event>
<event>
 8    1  0.2077555E+004  0.1043930E+01  0.7957747E-01            NaN
         13   -1    0    0    0    0  0.00000000000E+00  0.00000000000E+00  0.74505805969E-08  0.10566000000E+00  0.10566000000E+00 0.  1.
     999900   -1    0    0    0    0 -0.00000000000E+00 -0.00000000000E+00 -0.74505805969E-08  0.93827000000E+00  0.93827000000E+00 0. -1.
     999902    2    1    2    0    0 -0.58342920648E-03 -0.73305945003E-02  0.11687840991E-01  0.10301211756E+01  0.10300286174E+01 0.  0.
     999903    2    3    3    0    0  0.13107747563E+00 -0.18959805585E-01  0.11084597095E-01  0.14025028812E+00  0.44793930174E-01 0.  0.
         14    1    1    2    0    0  0.58342920648E-03  0.73305945003E-02 -0.11687840991E-01  0.13808824439E-01  0.00000000000E+00 0. -1.
     999901    1    3    3    0    0 -0.13166090483E+00  0.11629211084E-01  0.60324389575E-03  0.88987088744E+00  0.88000000000E+00 0. -1.
        -11    1    4    4    0    0  0.58888707198E-01  0.95535492244E-02 -0.83350043262E-02  0.60240215441E-01  0.51100000000E-03 0. -1.
         11    1    4    4    0    0  0.72188768429E-01 -0.28513354809E-01  0.19419601421E-01  0.80010072679E-01  0.51100000000E-03 0.  1.
</event>
<event>
 8    1  0.2077555E+004  0.1043930E+01  0.7957747E-01            NaN
         13   -1    0    0    0    0  0.00000000000E+00  0.00000000000E+00  0.74505805969E-08  0.10566000000E+00  0.10566000000E+00 0.  1.
     999900   -1    0    0    0    0 -0.00000000000E+00 -0.00000000000E+00 -0.74505805969E-08  0.93827000000E+00  0.93827000000E+00 0.  1.
     999902    2    1    2    0    0  0.65512143024E-02 -0.48879709160E-04 -0.10668460774E-01  0.10314105410E+01  0.10313345564E+01 0.  0.
     999903    2    3    3    0    0  0.83165878144E-01  0.10516118945E+00  0.62337859366E-02  0.14167763091E+00  0.45367961828E-01 0.  0.
         14    1    1    2    0    0 -0.65512143024E-02  0.48879709160E-04  0.10668460774E-01  0.12519458988E-01  0.00000000000E+00 0.  1.
     999901    1    3    3    0    0 -0.76614663841E-01 -0.10521006916E+00 -0.16902246711E-01  0.88973291010E+00  0.88000000000E+00 0. -1.
        -11    1    4    4    0    0  0.10615534266E-01  0.39949659535E-01 -0.10617912567E-01  0.42680979991E-01  0.51100000000E-03 0.  1.
         11    1    4    4    0    0  0.72550343877E-01  0.65211529914E-01  0.16851698503E-01  0.98996650923E-01  0.51100000000E-03 0. -1.
</event>
<event>
 8    1  0.2077555E+004  0.1043930E+01  0.7957747E-01            NaN
         13   -1    0    0    0    0  0.00000000000E+00  0.00000000000E+00  0.74505805969E-08  0.10566000000E+00  0.10566000000E+00 0. -1.
     999900   -1    0    0    0    0 -0.00000000000E+00 -0.00000000000E+00 -0.74505805969E-08  0.93827000000E+00  0.93827000000E+00 0. -1.
     999902    2    1    2    0    0 -0.64382424969E-02  0.10067159191E-01 -0.93018560443E-02  0.10287865794E+01  0.10286751202E+01 0.  0.
     999903    2    3    3    0    0  0.40139772445E-01  0.10892274822E-01 -0.12584951356E+00  0.13988076397E+00  0.44706655893E-01 0.  0.
         14    1    1    2    0    0  0.64382424969E-02 -0.10067159191E-01  0.93018560443E-02  0.15143420568E-01  0.00000000000E+00 0. -1.
     999901    1    3    3    0    0 -0.46578014942E-01 -0.82511563053E-03  0.11654765752E+00  0.88890581546E+00  0.88000000000E+00 0.  1.
        -11    1    4    4    0    0  0.82407839863E-02  0.21055886837E-01 -0.79813252198E-01  0.82955875251E-01  0.51100000000E-03 0.  1.
         11    1    4    4    0    0  0.31898988458E-01 -0.10163612015E-01 -0.46036261366E-01  0.56924888717E-01  0.51100000000E-03 0. -1.
</event>
<event>
 8    1  0.2077555E+004  0.1043930E+01  0.7957747E-01            NaN
         13   -1    0    0    0    0  0.00000000000E+00  0.00000000000E+00  0.74505805969E-08  0.10566000000E+00  0.10566000000E+00 0. -1.
     999900   -1    0    0    0    0 -0.00000000000E+00 -0.00000000000E+00 -0.74505805969E-08  0.93827000000E+00  0.93827000000E+00 0.  1.
     999902    2    1    2    0    0  0.51265332876E-02 -0.11340163264E-01  0.31109485452E-02  0.10311019586E+01  0.10310221580E+01 0.  0.
     999903    2    3    3    0    0  0.37424939892E-01  0.99091184377E-02  0.12829448012E+00  0.14140221391E+00  0.45125333428E-01 0.  0.
         14    1    1    2    0    0 -0.51265332876E-02  0.11340163264E-01 -0.31109485452E-02  0.12828041443E-01  0.00000000000E+00 0.  1.
     999901    1    3    3    0    0 -0.32298406604E-01 -0.21249281702E-01 -0.12518353157E+00  0.88969974464E+00  0.88000000000E+00 0.  1.
        -11    1    4    4    0    0 -0.21649849236E-03  0.20365271184E-01  0.42527895394E-01  0.47155849581E-01  0.51100000000E-03 0.  1.
         11    1    4    4    0    0  0.37641438384E-01 -0.10456152747E-01  0.85766584723E-01  0.94246364333E-01  0.51100000000E-03 0. -1.
</event>
<event>
 8    1  0.2077555E+004  0.1043930E+01  0.7957747E-01            NaN
         13   -1    0    0    0    0  0.00000000000E+00  0.00000000000E+00  0.74505805969E-08  0.10566000000E+00  0.10566000000E+00 0.  1.
     999900   -1    0    0    0    0 -0.00000000000E+00 -0.00000000000E+00 -0.74505805969E-08  0.93827000000E+00  0.93827000000E+00 0. -1.
     999902    2    1    2    0    0 -0.13959639643E-02  0.97131701295E-02  0.91176511491E-02  0.10305350027E+01  0.10304479443E+01 0.  0.
     999903    2    3    3    0    0 -0.40889539514E-01 -0.71494152408E-01  0.10481861417E+00  0.14075241914E+00  0.45176690287E-01 0.  0.
         14    1    1    2    0    0  0.13959639643E-02 -0.97131701295E-02 -0.91176511491E-02  0.13394997269E-01  0.00000000000E+00 0. -1.
     999901    1    3    3    0    0  0.39493575550E-01  0.81207322537E-01 -0.95700963025E-01  0.88978258359E+00  0.88000000000E+00 0. -1.
        -11    1    4    4    0    0 -0.19797456474E-01 -0.31823768300E-02  0.37622210630E-01  0.42635180998E-01  0.51100000000E-03 0.  1.
         11    1    4    4    0    0 -0.21092083040E-01 -0.68311775578E-01  0.67196403545E-01  0.98117238139E-01  0.51100000000E-03 0. -1.
</event>
<event>
 8    1  0.2077555E+004  0.1043930E+01  0.7957747E-01            NaN
         13   -1    0    0    0    0  0.00000000000E+00  0.00000000000E+00  0.74505805969E-08  0.10566000000E+00  0.10566000000E+00 0. -1.
     999900   -1    0    0    0    0 -0.00000000000E+00 -0.00000000000E+00 -0.74505805969E-08  0.93827000000E+00  0.93827000000E+00 0. -1.
     999902    2    1    2    0    0 -0.14192668486E-01  0.19859307186E-02  0.22540983420E-03  0.10295972902E+01  0.10294975248E+01 0.  0.
     999903    2    3    3    0    0  0.15299375973E-01 -0.15599586169E-02 -0.13098885430E+00  0.13937285947E+00  0.45057847606E-01 0.  0.
         14    1    1    2    0    0  0.14192668486E-01 -0.19859307186E-02 -0.22540983420E-03  0.14332709764E-01  0.00000000000E+00 0. -1.
     999901    1    3    3    0    0 -0.29492044459E-01  0.35458893355E-02  0.13121426413E+00  0.89022443076E+00  0.88000000000E+00 0.  1.
        -11    1    4    4    0    0  0.36433742848E-02 -0.20911930084E-01 -0.36566226227E-01  0.42283956976E-01  0.51100000000E-03 0.  1.
         11    1    4    4    0    0  0.11656001688E-01  0.19351971467E-01 -0.94422628072E-01  0.97088902496E-01  0.51100000000E-03 0. -1.
</event>
<event>
 8    1  0.2077555E+004  0.1043930E+01  0.7957747E-01            NaN
         13   -1    0    0    0    0  0.00000000000E+00  0.00000000000E+00  0.74505805969E-08  0.10566000000E+00  0.10566000000E+00 0. -1.
     999900   -1    0    0    0    0 -0.00000000000E+00 -0.00000000000E+00 -0.74505805969E-08  0.93827000000E+00  0.93827000000E+00 0.  1.
     999902    2    1    2    0    0 -0.17116948256E-02  0.69586233072E-02 -0.12534431279E-01  0.10294917070E+01  0.10293904558E+01 0.  0.
     999903    2    3    3    0    0  0.11349068520E+00 -0.64761166973E-01 -0.13916843660E-01  0.13908886123E+00  0.45583861231E-01 0.  0.
         14    1    1    2    0    0  0.17116948256E-02 -0.69586233072E-02  0.12534431279E-01  0.14438293009E-01  0.00000000000E+00 0. -1.
     999901    1    3    3    0    0 -0.11520238003E+00  0.71719790281E-01  0.13824123802E-02  0.89040284576E+00  0.88000000000E+00 0.  1.
        -11    1    4    4    0    0  0.14030702275E-02 -0.14767683338E-01  0.31556474467E-02  0.15174725996E-01  0.51100000000E-03 0.  1.
         11    1    4    4    0    0  0.11208761497E+00 -0.49993483635E-01 -0.17072491106E-01  0.12391413523E+00  0.51100000000E-03 0. -1.
</event>
<event>
 8    1  0.2077555E+004  0.1043930E+01  0.7957747E-01            NaN
         13   -1    0    0    0    0  0.00000000000E+00  0.00000000000E+00  0.74505805969E-08  0.10566000000E+00  0.10566000000E+00 0.  1.
     999900   -1    0    0    0    0 -0.00000000000E+00 -0.00000000000E+00 -0.74505805969E-08  0.93827000000E+00  0.93827000000E+00 0. -1.
     999902    2    1    2    0    0 -0.12318811051E-01  0.23735559351E-02  0.52855547826E-02  0.10303166256E+01  0.10302266862E+01 0.  0.
     999903    2    3    3    0    0 -0.93002057074E-01 -0.45653904000E-01  0.85494135345E-01  0.14169418636E+00  0.45103588557E-01 0.  0.
         14    1    1    2    0    0  0.12318811051E-01 -0.23735559351E-02 -0.52855547826E-02  0.13613374411E-01  0.00000000000E+00 0.  1.
     999901    1    3    3    0    0  0.80683246022E-01  0.48027459935E-01 -0.80208580563E-01  0.88862243922E+00  0.88000000000E+00 0.  1.
        -11    1    4    4    0    0 -0.70632825867E-01 -0.18131726627E-01  0.37460170227E-01  0.81983419512E-01  0.51100000000E-03 0.  1.
         11    1    4    4    0    0 -0.22369231207E-01 -0.27522177373E-01  0.48033965118E-01  0.59710766853E-01  0.51100000000E-03 0. -1.
</event>
<event>
 8    1  0.2077555E+004  0.1043930E+01  0.7957747E-01            NaN
         13   -1    0    0    0    0  0.00000000000E+00  0.00000000000E+00  0.74505805969E-08  0.10566000000E+00  0.10566000000E+00 0. -1.
     999900   -1    0    0    0    0 -0.00000000000E+00 -0.00000000000E+00 -0.74505805969E-08  0.93827000000E+00  0.93827000000E+00 0.  1.
     999902    2    1    2    0    0  0.13044305464E-01 -0.18452510997E-02 -0.48841472039E-02  0.10298795996E+01  0.10297837520E+01 0.  0.
     999903    2    3    3    0    0  0.10215800424E+00  0.37513860859E-01 -0.79705938302E-01  0.14134783800E+00  0.42221169087E-01 0.  0.
         14    1    1    2    0    0 -0.13044305464E-01  0.18452510997E-02  0.48841472039E-02  0.14050400370E-01  0.00000000000E+00 0. -1.
     999901    1    3    3    0    0 -0.89113698777E-01 -0.39359111959E-01  0.74821791098E-01  0.88853176163E+00  0.88000000000E+00 0. -1.
        -11    1    4    4    0    0  0.28014033585E-01  0.58355219317E-03 -0.41624826406E-01  0.50179815715E-01  0.51100000000E-03 0.  1.
         11    1    4    4    0    0  0.74143970656E-01  0.36930308666E-01 -0.38081111896E-01  0.91168022283E-01  0.51100000000E-03 0. -1.
</event>
<event>
 8    1  0.2077555E+004  0.1043930E+01  0.7957747E-01            NaN
         13   -1    0    0    0    0  0.00000000000E+00  0.00000000000E+00  0.74505805969E-08  0.10566000000E+00  0.10566000000E+00 0.  1.
     999900   -1    0    0    0    0 -0.00000000000E+00 -0.00000000000E+00 -0.74505805969E-08  0.93827000000E+00  0.93827000000E+00 0.  1.
     999902    2    1    2    0    0  0.10967043450E-01 -0.51184992965E-02  0.65328565997E-02  0.10301766989E+01  0.10300848885E+01 0.  0.
     999903    2    3    3    0    0 -0.35035898235E-01 -0.10018505582E+00 -0.78971398964E-01  0.13974708427E+00  0.45035609612E-01 0.  0.
         14    1    1    2    0    0 -0.10967043450E-01  0.51184992965E-02 -0.65328565997E-02  0.13753301147E-01  0.00000000000E+00 0. -1.
     999901    1    3    3    0    0  0.46002941685E-01  0.95066556519E-01  0.85504255563E-01  0.89042961459E+00  0.88000000000E+00 0. -1.
        -11    1    4    4    0    0 -0.11191398457E-01 -0.78164452445E-01 -0.71303451914E-01  0.10639253922E+00  0.51100000000E-03 0. -1.
         11    1    4    4    0    0 -0.23844499779E-01 -0.22020603370E-01 -0.76679470494E-02  0.33354545049E-01  0.51100000000E-03 0.  1.
</event>
<event>
 8    1  0.2077555E+004  0.1043930E+01  0.7957747E-01            NaN
         13   -1    0    0    0    0  0.00000000000E+00  0.00000000000E+00  0.74505805969E-08  0.10566000000E+00  0.10566000000E+00 0. -1.
     999900   -1    0    0    0    0 -0.00000000000E+00 -0.00000000000E+00 -0.74505805969E-08  0.93827000000E+00  0.93827000000E+00 0.  1.
     999902    2    1    2    0    0  0.85023532739E-02 -0.54331473685E-02  0.10120672866E-01  0.10296388447E+01  0.10295396609E+01 0.  0.
     999903    2    3    3    0    0  0.13025814198E+00 -0.24107791508E-01  0.54011236812E-02  0.14104698753E+00  0.48132228215E-01 0.  0.
         14    1    1    2    0    0 -0.85023532739E-02  0.54331473685E-02 -0.10120672866E-01  0.14291155334E-01  0.00000000000E+00 0.  1.
     999901    1    3    3    0    0 -0.12175578870E+00  0.18674644140E-01  0.47195491853E-02  0.88859185713E+00  0.88000000000E+00 0.  1.
        -11    1    4    4    0    0  0.94579931299E-01  0.51307875035E-02  0.12403120162E-02  0.94728495606E-01  0.51100000000E-03 0. -1.
         11    1    4    4    0    0  0.35678210677E-01 -0.29238579012E-01  0.41608116650E-02  0.46318491928E-01  0.51100000000E-03 0.  1.
</event>
<event>
 8    1  0.2077555E+004  0.1043930E+01  0.7957747E-01            NaN
         13   -1    0    0    0    0  0.00000000000E+00  0.00000000000E+00  0.74505805969E-08  0.10566000000E+00  0.10566000000E+00 0.  1.
     999900   -1    0    0    0    0 -0.00000000000E+00 -0.00000000000E+00 -0.74505805969E-08  0.93827000000E+00  0.93827000000E+00 0. -1.
     999902    2    1    2    0    0 -0.24533852140E-02  0.11306021688E-01 -0.65478042453E-02  0.10306364314E+01  0.10305506949E+01 0.  0.
     999903    2    3    3    0    0  0.54520220295E-01 -0.67286637310E-01  0.98661502639E-01  0.13906938624E+00  0.45893965895E-01 0.  0.
         14    1    1    2    0    0  0.24533852140E-02 -0.11306021688E-01  0.65478042453E-02  0.13293568590E-01  0.00000000000E+00 0. -1.
     999901    1    3    3    0    0 -0.56973605509E-01  0.78592658997E-01 -0.10520930688E+00  0.89156704517E+00  0.88000000000E+00 0. -1.
        -11    1    4    4    0    0  0.57270258813E-01 -0.49340581345E-01  0.60564424413E-01  0.96864266567E-01  0.51100000000E-03 0. -1.
         11    1    4    4    0    0 -0.27500385182E-02 -0.17946055964E-01  0.38097078226E-01  0.42205119676E-01  0.51100000000E-03 0.  1.
</event>
<event>
 8    1  0.2077555E+004  0.1043930E+01  0.7957747E-01            NaN
         13   -1    0    0    0    0  0.00000000000E+00  0.00000000000E+00  0.74505805969E-08  0.10566000000E+00  0.10566000000E+00 0.  1.
     999900   -1    0    0    0    0 -0.00000000000E+00 -0.00000000000E+00 -0.74505805969E-08  0.93827000000E+00  0.93827000000E+00 0. -1.
     999902    2    1    2    0    0  0.25599699837E-02  0.75658190843E-02 -0.11981343860E-01  0.10295304283E+01  0.10294297232E+01 0.  0.
     999903    2    3    3    0    0  0.60974005021E-01 -0.53085532404E-01 -0.10592372407E+00  0.14053326478E+00  0.44652661192E-01 0.  0.
         14    1    1    2    0    0 -0.25599699837E-02 -0.75658190843E-02  0.11981343860E-01  0.14399571710E-01  0.00000000000E+00 0.  1.
     999901    1    3    3    0    0 -0.58414035038E-01  0.60651351488E-01  0.93942380205E-01  0.88899716351E+00  0.88000000000E+00 0. -1.
        -11    1    4    4    0    0  0.45177922299E-01 -0.42555956006E-01 -0.44851670232E-01  0.76576677249E-01  0.51100000000E-03 0.  1.
         11    1    4    4    0    0  0.15796082722E-01 -0.10529576398E-01 -0.61072053833E-01  0.63956587533E-01  0.51100000000E-03 0. -1.
</event>
<event>
 8    1  0.2077555E+004  0.1043930E+01  0.7957747E-01            NaN
         13   -1    0    0    0    0  0.00000000000E+00  0.00000000000E+00  0.74505805969E-08  0.10566000000E+00  0.10566000000E+00 0. -1.
     999900   -1    0    0    0    0 -0.00000000000E+00 -0.00000000000E+00 -0.74505805969E-08  0.93827000000E+00  0.93827000000E+00 0. -1.
     999902    2    1    2    0    0 -0.85498195386E-02 -0.90402579458E-02 -0.65195032626E-02  0.10298825945E+01  0.10297867881E+01 0.  0.
     999903    2    3    3    0    0 -0.12569846794E+00  0.41757816090E-01  0.11446398619E-01  0.14048559443E+00  0.45402226309E-01 0.  0.
         14    1    1    2    0    0  0.85498195386E-02  0.90402579458E-02  0.65195032626E-02  0.14047405478E-01  0.00000000000E+00 0. -1.
     999901    1    3    3    0    0  0.11714864840E+00 -0.50798074036E-01 -0.17965901882E-01  0.88939700009E+00  0.88000000000E+00 0. -1.
        -11    1    4    4    0    0 -0.63065065863E-01  0.34750380027E-01  0.24615054192E-01  0.76098314424E-01  0.51100000000E-03 0. -1.
         11    1    4    4    0    0 -0.62633402075E-01  0.70074360627E-02 -0.13168655573E-01  0.64387280003E-01  0.51100000000E-03 0.  1.
</event>
<event>
 8    1  0.2077555E+004  0.1043930E+01  0.7957747E-01            NaN
         13   -1    0    0    0    0  0.00000000000E+00  0.00000000000E+00  0.74505805969E-08  0.10566000000E+00  0.10566000000E+00 0.  1.
     999900   -1    0    0    0    0 -0.00000000000E+00 -0.00000000000E+00 -0.74505805969E-08  0.93827000000E+00  0.93827000000E+00 0. -1.
     999902    2    1    2    0    0  0.52771218771E-02  0.96495175435E-02 -0.55556467600E-02  0.10316082138E+01  0.10315346239E+01 0.  0.
     999903    2    3    3    0    0  0.75771906084E-01 -0.89912367335E-01 -0.64281740170E-01  0.14125388121E+00  0.44664317822E-01 0.  0.
         14    1    1    2    0    0 -0.52771218771E-02 -0.96495175435E-02  0.55556467600E-02  0.12321786196E-01  0.00000000000E+00 0.  1.
     999901    1    3    3    0    0 -0.70494784207E-01  0.99561884878E-01  0.58726093410E-01  0.89035433259E+00  0.88000000000E+00 0.  1.
        -11    1    4    4    0    0  0.15157407887E-01 -0.42934276856E-01 -0.82497989671E-02  0.46275473492E-01  0.51100000000E-03 0. -1.
         11    1    4    4    0    0  0.60614498197E-01 -0.46978090479E-01 -0.56031941203E-01  0.94978407718E-01  0.51100000000E-03 0.  1.
</event>
<event>
 8    1  0.2077555E+004  0.1043930E+01  0.7957747E-01            NaN
         13   -1    0    0    0    0  0.00000000000E+00  0.00000000000E+00  0.74505805969E-08  0.10566000000E+00  0.10566000000E+00 0. -1.
     999900   -1    0    0    0    0 -0.00000000000E+00 -0.00000000000E+00 -0.74505805969E-08  0.93827000000E+00  0.93827000000E+00 0. -1.
     999902    2    1    2    0    0 -0.52045531929E-02 -0.11929609913E-01  0.55362576109E-03  0.10309027413E+01  0.10308204270E+01 0.  0.
     999903    2    3    3    0    0 -0.53106599324E-01 -0.12839434783E-01 -0.12190845354E+00  0.14113176257E+00  0.45511991661E-01 0.  0.
         14    1    1    2    0    0  0.52045531929E-02  0.11929609913E-01 -0.55362576109E-03  0.13027258656E-01  0.00000000000E+00 0. -1.
     999901    1    3    3    0    0  0.47902046131E-01  0.90982486951E-03  0.12246207930E+00  0.88977097878E+00  0.88000000000E+00 0.  1.
        -11    1    4    4    0    0 -0.33239451979E-01 -0.27751456706E-01 -0.56665616378E-01  0.71318004162E-01  0.51100000000E-03 0.  1.
         11    1    4    4    0    0 -0.19867147345E-01  0.14912021923E-01 -0.65242837157E-01  0.69813758406E-01  0.51100000000E-03 0. -1.
</event>
<event>
 8    1  0.2077555E+004  0.1043930E+01  0.7957747E-01            NaN
         13   -1    0    0    0    0  0.00000000000E+00  0.00000000000E+00  0.74505805969E-08  0.10566000000E+00  0.10566000000E+00 0. -1.
     999900   -1    0    0    0    0 -0.00000000000E+00 -0.00000000000E+00 -0.74505805969E-08  0.93827000000E+00  0.93827000000E+00 0.  1.
     999902    2    1    2    0    0 -0.38670012371E-03  0.84081719607E-02  0.10687250854E-01  0.10303261688E+01  0.10302363563E+01 0.  0.
     999903    2    3    3    0    0  0.45062227343E-01 -0.45347917688E-01  0.11760790938E+00  0.14106391872E+00  0.44501357796E-01 0.  0.
         14    1    1    2    0    0  0.38670012371E-03 -0.84081719607E-02 -0.10687250854E-01  0.13603831207E-01  0.00000000000E+00 0.  1.
     999901    1    3    3    0    0 -0.45448927467E-01  0.53756089649E-01 -0.10692065852E+00  0.88926225007E+00  0.88000000000E+00 0.  1.
        -11    1    4    4    0    0  0.91346694745E-02  0.36461267028E-02  0.46512347777E-01  0.47543622528E-01  0.51100000000E-03 0. -1.
         11    1    4    4    0    0  0.35927557869E-01 -0.48994044391E-01  0.71095561599E-01  0.93520296194E-01  0.51100000000E-03 0.  1.
</event>
<event>
 8    1  0.2077555E+004  0.1043930E+01  0.7957747E-01            NaN
         13   -1    0    0    0    0  0.00000000000E+00  0.00000000000E+00  0.74505805969E-08  0.10566000000E+00  0.10566000000E+00 0.  1.
     999900   -1    0    0    0    0 -0.00000000000E+00 -0.00000000000E+00 -0.74505805969E-08  0.93827000000E+00  0.93827000000E+00 0.  1.
     999902    2    1    2    0    0  0.14613000040E-01  0.16096464774E-02  0.32609153814E-02  0.10288713048E+01  0.10287610984E+01 0.  0.
     999903    2    3    3    0    0 -0.95772192828E-01 -0.86640266832E-01  0.17896753673E-01  0.13747512702E+00  0.43592063510E-01 0.  0.
         14    1    1    2    0    0 -0.14613000040E-01 -0.16096464774E-02 -0.32609153814E-02  0.15058695198E-01  0.00000000000E+00 0.  1.
     999901    1    3    3    0    0  0.11038519287E+00  0.88249913309E-01 -0.14635838292E-01  0.89139617778E+00  0.88000000000E+00 0. -1.
        -11    1    4    4    0    0 -0.13653297590E-01 -0.36959970134E-01 -0.20023870613E-02  0.39455324132E-01  0.51100000000E-03 0.  1.
         11    1    4    4    0    0 -0.82118895237E-01 -0.49680296697E-01  0.19899140734E-01  0.98019802886E-01  0.51100000000E-03 0. -1.
</event>
<event>
 8    1  0.2077555E+004  0.1043930E+01  0.7957747E-01            NaN
         13   -1    0    0    0    0  0.00000000000E+00  0.00000000000E+00  0.74505805969E-08  0.10566000000E+00  0.10566000000E+00 0. -1.
     999900   -1    0    0    0    0 -0.00000000000E+00 -0.00000000000E+00 -0.74505805969E-08  0.93827000000E+00  0.93827000000E+00 0.  1.
     999902    2    1    2    0    0  0.13991269417E-01  0.35175432206E-02  0.10006033035E-01  0.10263729664E+01  0.10262227910E+01 0.  0.
     999903    2    3    3    0    0 -0.10224929508E+00  0.15293097650E-01 -0.74391127273E-01  0.13464800145E+00  0.43672042535E-01 0.  0.
         14    1    1    2    0    0 -0.13991269417E-01 -0.35175432206E-02 -0.10006033035E-01  0.17557033556E-01  0.00000000000E+00 0.  1.
     999901    1    3    3    0    0  0.11624056450E+00 -0.11775554429E-01  0.84397160308E-01  0.89172496499E+00  0.88000000000E+00 0. -1.
        -11    1    4    4    0    0 -0.36697188276E-01 -0.10771223703E-01 -0.10983860888E-01  0.39794587678E-01  0.51100000000E-03 0. -1.
         11    1    4    4    0    0 -0.65552106802E-01  0.26064321353E-01 -0.63407266385E-01  0.94853413777E-01  0.51100000000E-03 0.  1.
</event>
<event>
 8    1  0.2077555E+004  0.1043930E+01  0.7957747E-01            NaN
         13   -1    0    0    0    0  0.00000000000E+00  0.00000000000E+00  0.74505805969E-08  0.10566000000E+00  0.10566000000E+00 0.  1.
     999900   -1    0    0    0    0 -0.00000000000E+00 -0.00000000000E+00 -0.74505805969E-08  0.93827000000E+00  0.93827000000E+00 0.  1.
     999902    2    1    2    0    0  0.32254858476E-02  0.74950616861E-02 -0.10784411775E-01  0.10304065668E+01  0.10303178197E+01 0.  0.
     999903    2    3    3    0    0  0.26869874347E-01  0.10152178148E+00  0.81004306686E-01  0.14033620441E+00  0.45868184014E-01 0.  0.
         14    1    1    2    0    0 -0.32254858476E-02 -0.74950616861E-02  0.10784411775E-01  0.13523433216E-01  0.00000000000E+00 0.  1.
     999901    1    3    3    0    0 -0.23644388499E-01 -0.94026719789E-01 -0.91788718461E-01  0.89007036238E+00  0.88000000000E+00 0.  1.
        -11    1    4    4    0    0  0.27285468437E-02  0.41796657251E-01  0.74277158962E-02  0.42542186235E-01  0.51100000000E-03 0.  1.
         11    1    4    4    0    0  0.24141327503E-01  0.59725124224E-01  0.73576590790E-01  0.97794018173E-01  0.51100000000E-03 0. -1.
</event>
<event>
 8    1  0.2077555E+004  0.1043930E+01  0.7957747E-01            NaN
         13   -1    0    0    0    0  0.00000000000E+00  0.00000000000E+00  0.74505805969E-08  0.10566000000E+00  0.10566000000E+00 0. -1.
     999900   -1    0    0    0    0 -0.00000000000E+00 -0.00000000000E+00 -0.74505805969E-08  0.93827000000E+00  0.93827000000E+00 0.  1.
     999902    2    1    2    0    0 -0.77344183479E-02  0.12307385374E-01 -0.27709008212E-03  0.10293914395E+01  0.10292887671E+01 0.  0.
     999903    2    3    3    0    0  0.13033688190E+00 -0.11781598453E-01 -0.21960135157E-02  0.13829792851E+00  0.44665262900E-01 0.  0.
         14    1    1    2    0    0  0.77344183479E-02 -0.12307385374E-01  0.27709008212E-03  0.14538560481E-01  0.00000000000E+00 0. -1.
     999901    1    3    3    0    0 -0.13807130025E+00  0.24088983828E-01  0.19189234336E-02  0.89109351101E+00  0.88000000000E+00 0. -1.
        -11    1    4    4    0    0  0.11523667028E+00 -0.14849569401E-01  0.12671914721E-01  0.11687958946E+00  0.51100000000E-03 0.  1.
         11    1    4    4    0    0  0.15100211620E-01  0.30679709477E-02 -0.14867928237E-01  0.21418339052E-01  0.51100000000E-03 0. -1.
</event>
<event>
 8    1  0.2077555E+004  0.1043930E+01  0.7957747E-01            NaN
         13   -1    0    0    0    0  0.00000000000E+00  0.00000000000E+00  0.74505805969E-08  0.10566000000E+00  0.10566000000E+00 0.  1.
     999900   -1    0    0    0    0 -0.00000000000E+00 -0.00000000000E+00 -0.74505805969E-08  0.93827000000E+00  0.93827000000E+00 0.  1.
     999902    2    1    2    0    0  0.87978488679E-02 -0.58256025415E-02 -0.96366574184E-02  0.10296399701E+01  0.10295408020E+01 0.  0.
     999903    2    3    3    0    0 -0.12636582847E+00 -0.11102448455E-01 -0.32469351644E-01  0.13901187893E+00  0.46673940483E-01 0.  0.
         14    1    1    2    0    0 -0.87978488679E-02  0.58256025415E-02  0.96366574184E-02  0.14290029947E-01  0.00000000000E+00 0.  1.
     999901    1    3    3    0    0  0.13516367734E+00  0.52768459138E-02  0.22832694226E-01  0.89062809112E+00  0.88000000000E+00 0. -1.
        -11    1    4    4    0    0 -0.11983350502E+00 -0.26810877260E-03 -0.37229915346E-01  0.12548493346E+00  0.51100000000E-03 0.  1.
         11    1    4    4    0    0 -0.65323234559E-02 -0.10834339683E-01  0.47605637016E-02  0.13526945474E-01  0.51100000000E-03 0. -1.
</event>
<event>
 8    1  0.2077555E+004  0.1043930E+01  0.7957747E-01            NaN
         13   -1    0    0    0    0  0.00000000000E+00  0.00000000000E+00  0.74505805969E-08  0.10566000000E+00  0.10566000000E+00 0. -1.
     999900   -1    0    0    0    0 -0.00000000000E+00 -0.00000000000E+00 -0.74505805969E-08  0.93827000000E+00  0.93827000000E+00 0. -1.
     999902    2    1    2    0    0  0.48897436840E-02 -0.10510564500E-01 -0.79330837992E-02  0.10298831008E+01  0.10297873013E+01 0.  0.
     999903    2    3    3    0    0  0.11996481568E+00 -0.53275734335E-01  0.25254421540E-01  0.14074163708E+00  0.44051807338E-01 0.  0.
         14    1    1    2    0    0 -0.48897436840E-02  0.10510564500E-01  0.79330837992E-02  0.14046899230E-01  0.00000000000E+00 0.  1.
     999901    1    3    3    0    0 -0.11507507200E+00  0.42765169835E-01 -0.33187505339E-01  0.88914146369E+00  0.88000000000E+00 0.  1.
        -11    1    4    4    0    0  0.51877743979E-02 -0.57355735474E-02 -0.89944932430E-02  0.11873156144E-01  0.51100000000E-03 0. -1.
         11    1    4    4    0    0  0.11477704128E+00 -0.47540160787E-01  0.34248914783E-01  0.12886848093E+00  0.51100000000E-03 0.  1.
</event>
<event>
 8    1  0.2077555E+004  0.1043930E+01  0.7957747E-01            NaN
         13   -1    0    0    0    0  0.00000000000E+00  0.00000000000E+00  0.74505805969E-08  0.10566000000E+00  0.10566000000E+00 0. -1.
     999900   -1    0    0    0    0 -0.00000000000E+00 -0.00000000000E+00 -0.74505805969E-08  0.93827000000E+00  0.93827000000E+00 0.  1.
     999902    2    1    2    0    0 -0.43412031377E-03  0.13960898822E-01 -0.27318010688E-02  0.10296977165E+01  0.10295993539E+01 0.  0.
     999903    2    3    3    0    0 -0.71686587466E-01 -0.31707727180E-01 -0.10661100619E+00  0.13955535332E+00  0.44333319463E-01 0.  0.
         14    1    1    2    0    0  0.43412031377E-03 -0.13960898822E-01  0.27318010688E-02  0.14232283493E-01  0.00000000000E+00 0.  1.
     999901    1    3    3    0    0  0.71252467152E-01  0.45668626002E-01  0.10387920512E+00  0.89014236318E+00  0.88000000000E+00 0. -1.
        -11    1    4    4    0    0 -0.12292156605E-01 -0.23625792403E-01 -0.52181892925E-01  0.58587423999E-01  0.51100000000E-03 0.  1.
         11    1    4    4    0    0 -0.59394430861E-01 -0.80819347776E-02 -0.54429113268E-01  0.80967929325E-01  0.51100000000E-03 0. -1.
</event>
<event>
 7    1  0.2077555E+004  0.1043930E+01  0.7957747E-01            NaN
         13   -1    0    0    0    0  0.00000000000E+00  0.00000000000E+00  0.74505805969E-08  0.10566000000E+00  0.10566000000E+00 0.  1.
     999900   -1    0    0    0    0 -0.00000000000E+00 -0.00000000000E+00 -0.74505805969E-08  0.93827000000E+00  0.93827000000E+00 0. -1.
     999903    2    1    2    0    0 -0.10432163411E-01 -0.63307715674E-01 -0.60100236225E-02  0.79064050378E-01  0.45807278690E-01 0.  0.
         14    1    1    2    0    0 -0.69771623201E-01 -0.29124913812E-01 -0.99205013429E-02  0.76254549737E-01  0.00000000000E+00 0.  1.
     999901    1    1    2    0    0  0.80203786612E-01  0.92432629486E-01  0.15930524965E-01  0.88861139989E+00  0.88000000000E+00 0.  1.
        -11    1    3    3    0    0 -0.49737834686E-02 -0.35239766944E-01 -0.26080922963E-01  0.44125450251E-01  0.51100000000E-03 0. -1.
         11    1    3    3    0    0 -0.54583799428E-02 -0.28067948730E-01  0.20070899340E-01  0.34938600127E-01  0.51100000000E-03 0.  1.
</event>
<event>
 8    1  0.2077555E+004  0.1043930E+01  0.7957747E-01            NaN
         13   -1    0    0    0    0  0.00000000000E+00  0.00000000000E+00  0.74505805969E-08  0.10566000000E+00  0.10566000000E+00 0.  1.
     999900   -1    0    0    0    0 -0.00000000000E+00 -0.00000000000E+00 -0.74505805969E-08  0.93827000000E+00  0.93827000000E+00 0. -1.
     999902    2    1    2    0    0  0.15416101188E-02  0.20068806940E-02  0.13321978180E-01  0.10303697922E+01  0.10302805586E+01 0.  0.
     999903    2    3    3    0    0  0.50573395145E-01 -0.11834817125E+00 -0.30232936696E-01  0.13975961653E+00  0.45329482849E-01 0.  0.
         14    1    1    2    0    0 -0.15416101188E-02 -0.20068806940E-02 -0.13321978180E-01  0.13560207760E-01  0.00000000000E+00 0. -1.
     999901    1    3    3    0    0 -0.49031785026E-01  0.12035505195E+00  0.43554914876E-01  0.89061017571E+00  0.88000000000E+00 0.  1.
        -11    1    4    4    0    0  0.63911840736E-02 -0.19136156007E-01 -0.23454162391E-01  0.30941857654E-01  0.51100000000E-03 0. -1.
         11    1    4    4    0    0  0.44182211071E-01 -0.99212015246E-01 -0.67787743050E-02  0.10881775887E+00  0.51100000000E-03 0.  1.
</event>
<event>
 8    1  0.2077555E+004  0.1043930E+01  0.7957747E-01            NaN
         13   -1    0    0    0    0  0.00000000000E+00  0.00000000000E+00  0.74505805969E-08  0.10566000000E+00  0.10566000000E+00 0.  1.
     999900   -1    0    0    0    0 -0.00000000000E+00 -0.00000000000E+00 -0.74505805969E-08  0.93827000000E+00  0.93827000000E+00 0. -1.
     999902    2    1    2    0    0 -0.75888923715E-02 -0.65122053853E-02 -0.91107036699E-02  0.10304020649E+01  0.10303132584E+01 0.  0.
     999903    2    3    3    0    0  0.20207524548E-01  0.63260014824E-01 -0.11523801231E+00  0.14084947560E+00  0.46353012550E-01 0.  0.
         14    1    1    2    0    0  0.75888923715E-02  0.65122053853E-02  0.91107036699E-02  0.13527935089E-01  0.00000000000E+00 0.  1.
     999901    1    3    3    0    0 -0.27796416920E-01 -0.69772220209E-01  0.10612730864E+00  0.88955258931E+00  0.88000000000E+00 0. -1.
        -11    1    4    4    0    0  0.29644705502E-01  0.24857441282E-01 -0.75215630567E-01  0.84583409448E-01  0.51100000000E-03 0.  1.
         11    1    4    4    0    0 -0.94371809540E-02  0.38402573543E-01 -0.40022381744E-01  0.56266066154E-01  0.51100000000E-03 0. -1.
</event>
<event>
 8    1  0.2077555E+004  0.1043930E+01  0.7957747E-01            NaN
         13   -1    0    0    0    0  0.00000000000E+00  0.00000000000E+00  0.74505805969E-08  0.10566000000E+00  0.10566000000E+00 0. -1.
     999900   -1    0    0    0    0 -0.00000000000E+00 -0.00000000000E+00 -0.74505805969E-08  0.93827000000E+00  0.93827000000E+00 0. -1.
     999902    2    1    2    0    0 -0.34593960784E-02 -0.54167927108E-02 -0.11949533369E-01  0.10303616393E+01  0.10302722977E+01 0.  0.
     999903    2    3    3    0    0 -0.26006452827E-01 -0.24881158172E-01 -0.12967940049E+00  0.14202186595E+00  0.45365800738E-01 0.  0.
         14    1    1    2    0    0  0.34593960784E-02  0.54167927108E-02  0.11949533369E-01  0.13568360706E-01  0.00000000000E+00 0. -1.
     999901    1    3    3    0    0  0.22547056748E-01  0.19464365461E-01  0.11772986712E+00  0.88833977334E+00  0.88000000000E+00 0.  1.
        -11    1    4    4    0    0 -0.43763911178E-02 -0.34100341870E-01 -0.75927539648E-01  0.83350096058E-01  0.51100000000E-03 0.  1.
         11    1    4    4    0    0 -0.21630061709E-01  0.92191836981E-02 -0.53751860841E-01  0.58671769894E-01  0.51100000000E-03 0. -1.
</event>
<event>
 8    1  0.2077555E+004  0.1043930E+01  0.7957747E-01            NaN
         13   -1    0    0    0    0  0.00000000000E+00  0.00000000000E+00  0.74505805969E-08  0.10566000000E+00  0.10566000000E+00 0.  1.
     999900   -1    0    0    0    0 -0.00000000000E+00 -0.00000000000E+00 -0.74505805969E-08  0.93827000000E+00  0.93827000000E+00 0.  1.
     999902    2    1    2    0    0 -0.12785505873E-01  0.14706820198E-02  0.51141604789E-02  0.10300812924E+01  0.10299881952E+01 0.  0.
     999903    2    3    3    0    0 -0.80330526449E-01  0.10120230791E+00  0.35279181582E-01  0.14136387073E+00  0.45213080942E-01 0.  0.
         14    1    1    2    0    0  0.12785505873E-01 -0.14706820198E-02 -0.51141604789E-02  0.13848707645E-01  0.00000000000E+00 0.  1.
     999901    1    3    3    0    0  0.67545020576E-01 -0.99731625889E-01 -0.30165021103E-01  0.88871742163E+00  0.88000000000E+00 0.  1.
        -11    1    4    4    0    0 -0.14511324152E-01  0.29453072112E-01 -0.95126211541E-02  0.34187908209E-01  0.51100000000E-03 0. -1.
         11    1    4    4    0    0 -0.65819202297E-01  0.71749235796E-01  0.44791802736E-01  0.10717596252E+00  0.51100000000E-03 0.  1.
</event>
<event>
 8    1  0.2077555E+004  0.1043930E+01  0.7957747E-01            NaN
         13   -1    0    0    0    0  0.00000000000E+00  0.00000000000E+00  0.74505805969E-08  0.10566000000E+00  0.10566000000E+00 0.  1.
     999900   -1    0    0    0    0 -0.00000000000E+00 -0.00000000000E+00 -0.74505805969E-08  0.93827000000E+00  0.93827000000E+00 0.  1.
     999902    2    1    2    0    0  0.21134408130E-02  0.12444368807E-01 -0.58214520374E-02  0.10300297032E+01  0.10299359064E+01 0.  0.
     999903    2    3    3    0    0 -0.72047322714E-01 -0.10960898852E+00  0.14387120928E-02  0.13848634988E+00  0.44401037560E-01 0.  0.
         14    1    1    2    0    0 -0.21134408130E-02 -0.12444368807E-01  0.58214520374E-02  0.13900296792E-01  0.00000000000E+00 0.  1.
     999901    1    3    3    0    0  0.74160763527E-01  0.12205335732E+00 -0.72601641302E-02  0.89154335333E+00  0.88000000000E+00 0. -1.
        -11    1    4    4    0    0 -0.44188189298E-01 -0.34070277492E-01  0.12593286440E-01  0.57203425302E-01  0.51100000000E-03 0.  1.
         11    1    4    4    0    0 -0.27859133415E-01 -0.75538711026E-01 -0.11154574348E-01  0.81282924578E-01  0.51100000000E-03 0. -1.
</event>
<event>
 8    1  0.2077555E+004  0.1043930E+01  0.7957747E-01            NaN
         13   -1    0    0    0    0  0.00000000000E+00  0.00000000000E+00  0.74505805969E-08  0.10566000000E+00  0.10566000000E+00 0. -1.
     999900   -1    0    0    0    0 -0.00000000000E+00 -0.00000000000E+00 -0.74505805969E-08  0.93827000000E+00  0.93827000000E+00 0. -1.
     999902    2    1    2    0    0  0.11214701123E-01  0.59560528381E-02 -0.22670149504E-02  0.10310310294E+01  0.10309503383E+01 0.  0.
     999903    2    3    3    0    0  0.74006814495E-01  0.37881951129E-01 -0.10657824311E+00  0.14207493101E+00  0.43752866242E-01 0.  0.
         14    1    1    2    0    0 -0.11214701123E-01 -0.59560528381E-02  0.22670149504E-02  0.12898970636E-01  0.00000000000E+00 0.  1.
     999901    1    3    3    0    0 -0.62792113372E-01 -0.31925898291E-01  0.10431122816E+00  0.88895609836E+00  0.88000000000E+00 0.  1.
        -11    1    4    4    0    0  0.27696896086E-01 -0.79174393336E-02 -0.33273003585E-01  0.44013154704E-01  0.51100000000E-03 0. -1.
         11    1    4    4    0    0  0.46309918408E-01  0.45799390462E-01 -0.73305239522E-01  0.98061776305E-01  0.51100000000E-03 0.  1.
</event>
<event>
 8    1  0.2077555E+004  0.1043930E+01  0.7957747E-01            NaN
         13   -1    0    0    0    0  0.00000000000E+00  0.00000000000E+00  0.74505805969E-08  0.10566000000E+00  0.10566000000E+00 0.  1.
     999900   -1    0    0    0    0 -0.00000000000E+00 -0.00000000000E+00 -0.74505805969E-08  0.93827000000E+00  0.93827000000E+00 0. -1.
     999902    2    1    2    0    0  0.53201265457E-02  0.13314501445E-01 -0.42595019244E-02  0.10289726255E+01  0.10288639079E+01 0.  0.
     999903    2    3    3    0    0  0.29221932547E-01 -0.10038085115E+00 -0.78609769008E-01  0.13822805395E+00  0.44690742862E-01 0.  0.
         14    1    1    2    0    0 -0.53201265457E-02 -0.13314501445E-01  0.42595019244E-02  0.14957374497E-01  0.00000000000E+00 0. -1.
     999901    1    3    3    0    0 -0.23901806001E-01  0.11369535259E+00  0.74350267084E-01  0.89074457155E+00  0.88000000000E+00 0.  1.
        -11    1    4    4    0    0  0.14709417072E-01 -0.21632417260E-01 -0.43566762779E-01  0.50819802904E-01  0.51100000000E-03 0.  1.
         11    1    4    4    0    0  0.14512515475E-01 -0.78748433886E-01 -0.35043006229E-01  0.87408251049E-01  0.51100000000E-03 0. -1.
</event>
<event>
 8    1  0.2077555E+004  0.1043930E+01  0.7957747E-01            NaN
         13   -1    0    0    0    0  0.00000000000E+00  0.00000000000E+00  0.74505805969E-08  0.10566000000E+00  0.10566000000E+00 0. -1.
     999900   -1    0    0    0    0 -0.00000000000E+00 -0.00000000000E+00 -0.74505805969E-08  0.93827000000E+00  0.93827000000E+00 0. -1.
     999902    2    1    2    0    0 -0.10734554351E-01 -0.92541730370E-02 -0.31848866094E-02  0.10294036832E+01  0.10293011849E+01 0.  0.
     999903    2    3    3    0    0  0.92550138937E-01 -0.55489806281E-01 -0.75484989282E-01  0.13921675541E+00  0.45151683921E-01 0.  0.
         14    1    1    2    0    0  0.10734554351E-01  0.92541730370E-02  0.31848866094E-02  0.14526316753E-01  0.00000000000E+00 0. -1.
     999901    1    3    3    0    0 -0.10328469329E+00  0.46235633244E-01  0.72300102673E-01  0.89018692784E+00  0.88000000000E+00 0.  1.
        -11    1    4    4    0    0  0.17179540756E-01  0.37181305598E-03  0.23046473989E-02  0.17344952758E-01  0.51100000000E-03 0.  1.
         11    1    4    4    0    0  0.75370598181E-01 -0.55861619337E-01 -0.77789636681E-01  0.12187180265E+00  0.51100000000E-03 0. -1.
</event>
<event>
 8    1  0.2077555E+004  0.1043930E+01  0.7957747E-01            NaN
         13   -1    0    0    0    0  0.00000000000E+00  0.00000000000E+00  0.74505805969E-08  0.10566000000E+00  0.10566000000E+00 0.  1.
     999900   -1    0    0    0    0 -0.00000000000E+00 -0.00000000000E+00 -0.74505805969E-08  0.93827000000E+00  0.93827000000E+00 0. -1.
     999902    2    1    2    0    0 -0.12482017903E-01 -0.40671556766E-02  0.53152201682E-02  0.10297668756E+01  0.10296694732E+01 0.  0.
     999903    2    3    3    0    0  0.10381923354E+00 -0.80583070629E-01  0.41083080248E-02  0.13882236392E+00  0.44527586991E-01 0.  0.
         14    1    1    2    0    0  0.12482017903E-01  0.40671556766E-02 -0.53152201682E-02  0.14163124361E-01  0.00000000000E+00 0. -1.
     999901    1    3    3    0    0 -0.11630125145E+00  0.76515914952E-01  0.12069121434E-02  0.89094451172E+00  0.88000000000E+00 0.  1.
        -11    1    4    4    0    0  0.82236348689E-01 -0.67049649155E-01  0.21115434495E-01  0.10818777746E+00  0.51100000000E-03 0.  1.
         11    1    4    4    0    0  0.21582884854E-01 -0.13533421474E-01 -0.17007126470E-01  0.30634586454E-01  0.51100000000E-03 0. -1.
</event>
<event>
 8    1  0.2077555E+004  0.1043930E+01  0.7957747E-01            NaN
         13   -1    0    0    0    0  0.00000000000E+00  0.00000000000E+00  0.74505805969E-08  0.10566000000E+00  0.10566000000E+00 0.  1.
     999900   -1    0    0    0    0 -0.00000000000E+00 -0.00000000000E+00 -0.74505805969E-08  0.93827000000E+00  0.93827000000E+00 0.  1.
     999902    2    1    2    0    0  0.74475528864E-02  0.21341194053E-02 -0.12334959890E-01  0.10293638837E+01  0.10292608189E+01 0.  0.
     999903    2    3    3    0    0  0.11836005492E+00 -0.60920858650E-01  0.17225491532E-03  0.14007543564E+00  0.43596380338E-01 0.  0.
         14    1    1    2    0    0 -0.74475528864E-02 -0.21341194053E-02  0.12334959890E-01  0.14566116336E-01  0.00000000000E+00 0. -1.
     999901    1    3    3    0    0 -0.11091250204E+00  0.63054978055E-01 -0.12507214805E-01  0.88928844802E+00  0.88000000000E+00 0.  1.
        -11    1    4    4    0    0  0.33627189623E-01 -0.33615159655E-01  0.14921501967E-01  0.49836524583E-01  0.51100000000E-03 0. -1.
         11    1    4    4    0    0  0.84732865298E-01 -0.27305698995E-01 -0.14749247052E-01  0.90238911058E-01  0.51100000000E-03 0.  1.
</event>
<event>
 8    1  0.2077555E+004  0.1043930E+01  0.7957747E-01            NaN
         13   -1    0    0    0    0  0.00000000000E+00  0.00000000000E+00  0.74505805969E-08  0.10566000000E+00  0.10566000000E+00 0.  1.
     999900   -1    0    0    0    0 -0.00000000000E+00 -0.00000000000E+00 -0.74505805969E-08  0.93827000000E+00  0.93827000000E+00 0.  1.
     999902    2    1    2    0    0 -0.97043925053E-02  0.17138823263E-02 -0.95522730167E-02  0.10302056222E+01  0.10301142002E+01 0.  0.
     999903    2    3    3    0    0 -0.21516407299E-01  0.36337575093E-02  0.12985941536E+00  0.13915072575E+00  0.44981070941E-01 0.  0.
         14    1    1    2    0    0  0.97043925053E-02 -0.17138823263E-02  0.95522730167E-02  0.13724377811E-01  0.00000000000E+00 0.  1.
     999901    1    3    3    0    0  0.11812014794E-01 -0.19198751831E-02 -0.13941168837E+00  0.89105489644E+00  0.88000000000E+00 0.  1.
        -11    1    4    4    0    0 -0.10531931950E-01  0.57325205061E-02  0.37911622733E-02  0.12586397989E-01  0.51100000000E-03 0. -1.
         11    1    4    4    0    0 -0.10984475349E-01 -0.20987629968E-02  0.12606825308E+00  0.12656432776E+00  0.51100000000E-03 0.  1.
</event>
<event>
 8    1  0.2077555E+004  0.1043930E+01  0.7957747E-01            NaN
         13   -1    0    0    0    0  0.00000000000E+00  0.00000000000E+00  0.74505805969E-08  0.10566000000E+00  0.10566000000E+00 0.  1.
     999900   -1    0    0    0    0 -0.00000000000E+00 -0.00000000000E+00 -0.74505805969E-08  0.93827000000E+00  0.93827000000E+00 0. -1.
     999902    2    1    2    0    0  0.57628726300E-02 -0.11652577640E-01 -0.55495968365E-03  0.10309184187E+01  0.10308363036E+01 0.  0.
     999903    2    3    3    0    0  0.10419243438E+00  0.81838891802E-01 -0.74056009763E-02  0.14048259019E+00  0.46117758263E-01 0.  0.
         14    1    1    2    0    0 -0.57628726300E-02  0.11652577640E-01  0.55495968365E-03  0.13011581259E-01  0.00000000000E+00 0. -1.
     999901    1    3    3    0    0 -0.98429561748E-01 -0.93491469442E-01  0.68506412926E-02  0.89043582855E+00  0.88000000000E+00 0. -1.
        -11    1    4    4    0    0  0.51547776610E-01  0.13174564213E-01  0.32388919496E-02  0.53305665343E-01  0.51100000000E-03 0. -1.
         11    1    4    4    0    0  0.52644657768E-01  0.68664327589E-01 -0.10644492926E-01  0.87176924845E-01  0.51100000000E-03 0.  1.
</event>
<event>
 8    1  0.2077555E+004  0.1043930E+01  0.7957747E-01            NaN
         13   -1    0    0    0    0  0.00000000000E+00  0.00000000000E+00  0.74505805969E-08  0.10566000000E+00  0.10566000000E+00 0. -1.
     999900   -1    0    0    0    0 -0.00000000000E+00 -0.00000000000E+00 -0.74505805969E-08  0.93827000000E+00  0.93827000000E+00 0. -1.
     999902    2    1    2    0    0 -0.12090838293E-01 -0.74944218612E-02  0.62103415784E-03  0.10296913058E+01  0.10295928539E+01 0.  0.
     999903    2    3    3    0    0 -0.46865618225E-01  0.10216445991E+00 -0.68550559681E-01  0.13951207379E+00  0.46157084628E-01 0.  0.
         14    1    1    2    0    0  0.12090838293E-01  0.74944218612E-02 -0.62103415784E-03  0.14238694220E-01  0.00000000000E+00 0. -1.
     999901    1    3    3    0    0  0.34774779932E-01 -0.10965888177E+00  0.69171593839E-01  0.89017923199E+00  0.88000000000E+00 0. -1.
        -11    1    4    4    0    0 -0.21739546932E-01  0.88733689792E-01 -0.41948862096E-01  0.10052981526E+00  0.51100000000E-03 0. -1.
         11    1    4    4    0    0 -0.25126071293E-01  0.13430770115E-01 -0.26601697585E-01  0.38982258527E-01  0.51100000000E-03 0.  1.
</event>
<event>
 8    1  0.2077555E+004  0.1043930E+01  0.7957747E-01            NaN
         13   -1    0    0    0    0  0.00000000000E+00  0.00000000000E+00  0.74505805969E-08  0.10566000000E+00  0.10566000000E+00 0.  1.
     999900   -1    0    0    0    0 -0.00000000000E+00 -0.00000000000E+00 -0.74505805969E-08  0.93827000000E+00  0.93827000000E+00 0. -1.
     999902    2    1    2    0    0 -0.12263078353E-01 -0.36161255397E-03  0.78151144337E-02  0.10293838710E+01  0.10292810909E+01 0.  0.
     999903    2    3    3    0    0  0.11216268917E-01  0.88760320369E-02 -0.12999215227E+00  0.13830168819E+00  0.44997874065E-01 0.  0.
         14    1    1    2    0    0  0.12263078353E-01  0.36161255397E-03 -0.78151144337E-02  0.14546128968E-01  0.00000000000E+00 0. -1.
     999901    1    3    3    0    0 -0.23479347270E-01 -0.92376445909E-02  0.13780726670E+00  0.89108218284E+00  0.88000000000E+00 0.  1.
        -11    1    4    4    0    0  0.17057934435E-01 -0.11821196250E-01 -0.33265845081E-01  0.39212133045E-01  0.51100000000E-03 0. -1.
         11    1    4    4    0    0 -0.58416655185E-02  0.20697228287E-01 -0.96726307190E-01  0.99089555143E-01  0.51100000000E-03 0.  1.
</event>
<event>
 8    1  0.2077555E+004  0.1043930E+01  0.7957747E-01            NaN
         13   -1    0    0    0    0  0.00000000000E+00  0.00000000000E+00  0.74505805969E-08  0.10566000000E+00  0.10566000000E+00 0. -1.
     999900   -1    0    0    0    0 -0.00000000000E+00 -0.00000000000E+00 -0.74505805969E-08  0.93827000000E+00  0.93827000000E+00 0.  1.
     999902    2    1    2    0    0 -0.40281418938E-02 -0.13250423196E-01  0.30784880269E-02  0.10297427969E+01  0.10296450608E+01 0.  0.
     999903    2    3    3    0    0 -0.12662647632E+00  0.33131999189E-01  0.19768654008E-01  0.13987750245E+00  0.45198696158E-01 0.  0.
         14    1    1    2    0    0  0.40281418938E-02  0.13250423196E-01 -0.30784880269E-02  0.14187203055E-01  0.00000000000E+00 0.  1.
     999901    1    3    3    0    0  0.12259833443E+00 -0.46382422385E-01 -0.16690165981E-01  0.88986529450E+00  0.88000000000E+00 0.  1.
        -11    1    4    4    0    0 -0.63253838792E-01  0.36885611295E-01 -0.52668711173E-03  0.73226600104E-01  0.51100000000E-03 0.  1.
         11    1    4    4    0    0 -0.63372637528E-01 -0.37536121059E-02  0.20295341120E-01  0.66650902344E-01  0.51100000000E-03 0. -1.
</event>
<event>
 7    1  0.4022212E+004  0.1043930E+01  0.7957747E-01            NaN
         13   -1    0    0    0    0  0.00000000000E+00  0.00000000000E+00  0.74505805969E-08  0.10566000000E+00  0.10566000000E+00 0.  1.
     999900   -1    0    0    0    0 -0.00000000000E+00 -0.00000000000E+00 -0.74505805969E-08  0.93827000000E+00  0.93827000000E+00 0.  1.
     999903    2    1    2    0    0  0.66212970201E-01 -0.16351570086E-01  0.32950089771E-01  0.88917087706E-01  0.46572618598E-01 0.  0.
         14    1    1    2    0    0  0.51792216402E-01 -0.45282143219E-03  0.37863350000E-01  0.64158179528E-01  0.00000000000E+00 0. -1.
     999901    1    1    2    0    0 -0.11800518660E+00  0.16804391518E-01 -0.70813439771E-01  0.89085473277E+00  0.88000000000E+00 0.  1.
        -11    1    3    3    0    0  0.45674899163E-01  0.11360279018E-01  0.25838917404E-01  0.53695094064E-01  0.51100000000E-03 0.  1.
         11    1    3    3    0    0  0.20538071039E-01 -0.27711849104E-01  0.71111723663E-02  0.35221993642E-01  0.51100000000E-03 0. -1.
</event>
<event>
 8    1  0.2077555E+004  0.1043930E+01  0.7957747E-01            NaN
         13   -1    0    0    0    0  0.00000000000E+00  0.00000000000E+00  0.74505805969E-08  0.10566000000E+00  0.10566000000E+00 0.  1.
     999900   -1    0    0    0    0 -0.00000000000E+00 -0.00000000000E+00 -0.74505805969E-08  0.93827000000E+00  0.93827000000E+00 0.  1.
     999902    2    1    2    0    0 -0.16735485507E-02 -0.16242200156E-01  0.45134645981E-02  0.10269894807E+01  0.10268497516E+01 0.  0.
     999903    2    3    3    0    0 -0.10263012120E+00 -0.81690426473E-01  0.88493022005E-02  0.13879214940E+00  0.44482390121E-01 0.  0.
         14    1    1    2    0    0  0.16735485507E-02  0.16242200156E-01 -0.45134645981E-02  0.16940519276E-01  0.00000000000E+00 0. -1.
     999901    1    3    3    0    0  0.10095657265E+00  0.65448226317E-01 -0.43358376024E-02  0.88819733133E+00  0.88000000000E+00 0.  1.
        -11    1    4    4    0    0 -0.86096045523E-01 -0.45437931413E-01  0.14905345518E-01  0.98486370183E-01  0.51100000000E-03 0. -1.
         11    1    4    4    0    0 -0.16534075673E-01 -0.36252495059E-01 -0.60560433173E-02  0.40305779214E-01  0.51100000000E-03 0.  1.
</event>
<event>
 8    1  0.2077555E+004  0.1043930E+01  0.7957747E-01            NaN
         13   -1    0    0    0    0  0.00000000000E+00  0.00000000000E+00  0.74505805969E-08  0.10566000000E+00  0.10566000000E+00 0. -1.
     999900   -1    0    0    0    0 -0.00000000000E+00 -0.00000000000E+00 -0.74505805969E-08  0.93827000000E+00  0.93827000000E+00 0.  1.
     999902    2    1    2    0    0 -0.56468318792E-02  0.17551044787E-02  0.10837928558E-01  0.10315838347E+01  0.10315099516E+01 0.  0.
     999903    2    3    3    0    0  0.12817999378E+00 -0.33887541622E-01  0.14670000942E-01  0.14074451010E+00  0.44892448278E-01 0.  0.
         14    1    1    2    0    0  0.56468318792E-02 -0.17551044787E-02 -0.10837928558E-01  0.12346165292E-01  0.00000000000E+00 0.  1.
     999901    1    3    3    0    0 -0.13382682566E+00  0.35642646100E-01 -0.38320723845E-02  0.89083932461E+00  0.88000000000E+00 0. -1.
        -11    1    4    4    0    0  0.11523587518E+00 -0.33548179164E-01  0.26819636443E-01  0.12298106063E+00  0.51100000000E-03 0. -1.
         11    1    4    4    0    0  0.12944118603E-01 -0.33936245744E-03 -0.12149635501E-01  0.17763449470E-01  0.51100000000E-03 0.  1.
</event>
<event>
 8    1  0.2077555E+004  0.1043930E+01  0.7957747E-01            NaN
         13   -1    0    0    0    0  0.00000000000E+00  0.00000000000E+00  0.74505805969E-08  0.10566000000E+00  0.10566000000E+00 0.  1.
     999900   -1    0    0    0    0 -0.00000000000E+00 -0.00000000000E+00 -0.74505805969E-08  0.93827000000E+00  0.93827000000E+00 0. -1.
     999902    2    1    2    0    0  0.61686150408E-02  0.23949136431E-02 -0.11548020901E-01  0.10306204467E+01  0.10305345025E+01 0.  0.
     999903    2    3    3    0    0  0.28453659281E-01 -0.88771129297E-01  0.93229747649E-01  0.13944916608E+00  0.45435228080E-01 0.  0.
         14    1    1    2    0    0 -0.61686150408E-02 -0.23949136431E-02  0.11548020901E-01  0.13309553321E-01  0.00000000000E+00 0.  1.
     999901    1    3    3    0    0 -0.22285044241E-01  0.91166042940E-01 -0.10477776855E+00  0.89117128060E+00  0.88000000000E+00 0. -1.
        -11    1    4    4    0    0  0.28308469796E-01 -0.44222369923E-01  0.25484149975E-01  0.58366861186E-01  0.51100000000E-03 0.  1.
         11    1    4    4    0    0  0.14518948558E-03 -0.44548759374E-01  0.67745597674E-01  0.81082304894E-01  0.51100000000E-03 0. -1.
</event>
<event>
 8    1  0.2077555E+004  0.1043930E+01  0.7957747E-01            NaN
         13   -1    0    0    0    0  0.00000000000E+00  0.00000000000E+00  0.74505805969E-08  0.10566000000E+00  0.10566000000E+00 0.  1.
     999900   -1    0    0    0    0 -0.00000000000E+00 -0.00000000000E+00 -0.74505805969E-08  0.93827000000E+00  0.93827000000E+00 0.  1.
     999902    2    1    2    0    0  0.34025159786E-02 -0.13705066547E-01  0.17584988227E-02  0.10296998109E+01  0.10296014774E+01 0.  0.
     999903    2    3    3    0    0  0.10923596075E+00  0.69509827779E-01 -0.22910168884E-01  0.13911911278E+00  0.45443816118E-01 0.  0.
         14    1    1    2    0    0 -0.34025159786E-02  0.13705066547E-01 -0.17584988227E-02  0.14230189112E-01  0.00000000000E+00 0. -1.
     999901    1    3    3    0    0 -0.10583344478E+00 -0.83214894326E-01  0.24668667707E-01  0.89058069811E+00  0.88000000000E+00 0.  1.
        -11    1    4    4    0    0  0.45840412854E-02  0.85382180931E-02  0.96646863832E-02  0.13696053687E-01  0.51100000000E-03 0. -1.
         11    1    4    4    0    0  0.10465191947E+00  0.60971609685E-01 -0.32574855268E-01  0.12542305910E+00  0.51100000000E-03 0.  1.
</event>
<event>
 8    1  0.2077555E+004  0.1043930E+01  0.7957747E-01            NaN
         13   -1    0    0    0    0  0.00000000000E+00  0.00000000000E+00  0.74505805969E-08  0.10566000000E+00  0.10566000000E+00 0.  1.
     999900   -1    0    0    0    0 -0.00000000000E+00 -0.00000000000E+00 -0.74505805969E-08  0.93827000000E+00  0.93827000000E+00 0.  1.
     999902    2    1    2    0    0 -0.27109690188E-02  0.60341559552E-03 -0.13904327112E-01  0.10297510094E+01  0.10296533871E+01 0.  0.
     999903    2    3    3    0    0  0.71061543802E-02  0.11582917873E+00 -0.64453791816E-01  0.14074673446E+00  0.46780935284E-01 0.  0.
         14    1    1    2    0    0  0.27109690188E-02 -0.60341559552E-03  0.13904327112E-01  0.14178990649E-01  0.00000000000E+00 0.  1.
     999901    1    3    3    0    0 -0.98171233990E-02 -0.11522576313E+00  0.50549464704E-01  0.88900427490E+00  0.88000000000E+00 0. -1.
        -11    1    4    4    0    0 -0.50805658096E-02  0.14611297822E-01  0.62358777384E-02  0.16686805121E-01  0.51100000000E-03 0. -1.
         11    1    4    4    0    0  0.12186720190E-01  0.10121788090E+00 -0.70689669554E-01  0.12405992933E+00  0.51100000000E-03 0.  1.
</event>
<event>
 8    1  0.2077555E+004  0.1043930E+01  0.7957747E-01            NaN
         13   -1    0    0    0    0  0.00000000000E+00  0.00000000000E+00  0.74505805969E-08  0.10566000000E+00  0.10566000000E+00 0.  1.
     999900   -1    0    0    0    0 -0.00000000000E+00 -0.00000000000E+00 -0.74505805969E-08  0.93827000000E+00  0.93827000000E+00 0. -1.
     999902    2    1    2    0    0  0.10001992157E-01 -0.56970430035E-02  0.65828481961E-02  0.10306699081E+01  0.10305846057E+01 0.  0.
     999903    2    3    3    0    0  0.55636578189E-01 -0.10364185368E+00  0.65748900828E-01  0.14208883520E+00  0.45047269204E-01 0.  0.
         14    1    1    2    0    0 -0.10001992157E-01  0.56970430035E-02 -0.65828481961E-02  0.13260091872E-01  0.00000000000E+00 0. -1.
     999901    1    3    3    0    0 -0.45634586032E-01  0.97944810672E-01 -0.59166052632E-01  0.88858107293E+00  0.88000000000E+00 0. -1.
        -11    1    4    4    0    0  0.34323718855E-01 -0.67062202974E-01  0.65376094652E-01  0.99748441676E-01  0.51100000000E-03 0.  1.
         11    1    4    4    0    0  0.21312859333E-01 -0.36579650702E-01  0.37280617598E-03  0.42340393525E-01  0.51100000000E-03 0. -1.
</event>
<event>
 8    1  0.2077555E+004  0.1043930E+01  0.7957747E-01            NaN
         13   -1    0    0    0    0  0.00000000000E+00  0.00000000000E+00  0.74505805969E-08  0.10566000000E+00  0.10566000000E+00 0.  1.
     999900   -1    0    0    0    0 -0.00000000000E+00 -0.00000000000E+00 -0.74505805969E-08  0.93827000000E+00  0.93827000000E+00 0. -1.
     999902    2    1    2    0    0  0.77122567141E-02  0.11661237992E-01 -0.19079709571E-02  0.10298195879E+01  0.10297229142E+01 0.  0.
     999903    2    3    3    0    0  0.13065506516E+00  0.82608823818E-02  0.27556904487E-01  0.14077815165E+00  0.43819137002E-01 0.  0.
         14    1    1    2    0    0 -0.77122567141E-02 -0.11661237992E-01  0.19079709571E-02  0.14110412053E-01  0.00000000000E+00 0. -1.
     999901    1    3    3    0    0 -0.12294280845E+00  0.34003556099E-02 -0.29464875445E-01  0.88904143630E+00  0.88000000000E+00 0. -1.
        -11    1    4    4    0    0  0.29245776767E-01 -0.14731227776E-01 -0.15811029933E-02  0.32788497041E-01  0.51100000000E-03 0. -1.
         11    1    4    4    0    0  0.10140928839E+00  0.22992110158E-01  0.29138007481E-01  0.10798965461E+00  0.51100000000E-03 0.  1.
</event>
<event>
 8    1  0.2077555E+004  0.1043930E+01  0.7957747E-01            NaN
         13   -1    0    0    0    0  0.00000000000E+00  0.00000000000E+00  0.74505805969E-08  0.10566000000E+00  0.10566000000E+00 0. -1.
     999900   -1    0    0    0    0 -0.00000000000E+00 -0.00000000000E+00 -0.74505805969E-08  0.93827000000E+00  0.93827000000E+00 0. -1.
     999902    2    1    2    0    0 -0.33617656617E-02  0.11773487201E-01  0.74283663620E-02  0.10296087886E+01  0.10295091843E+01 0.  0.
     999903    2    3    3    0    0  0.10072948083E+00  0.61737946414E-01  0.61106385270E-01  0.14044470672E+00  0.45085729349E-01 0.  0.
         14    1    1    2    0    0  0.33617656617E-02 -0.11773487201E-01 -0.74283663620E-02  0.14321211403E-01  0.00000000000E+00 0.  1.
     999901    1    3    3    0    0 -0.10409124649E+00 -0.49964459212E-01 -0.53678018908E-01  0.88916408187E+00  0.88000000000E+00 0. -1.
        -11    1    4    4    0    0  0.41376044938E-01  0.12521731135E-01  0.43551077273E-01  0.61365530210E-01  0.51100000000E-03 0. -1.
         11    1    4    4    0    0  0.59353435889E-01  0.49216215279E-01  0.17555307997E-01  0.79079176514E-01  0.51100000000E-03 0.  1.
</event>
<event>
 8    1  0.2077555E+004  0.1043930E+01  0.7957747E-01            NaN
         13   -1    0    0    0    0  0.00000000000E+00  0.00000000000E+00  0.74505805969E-08  0.10566000000E+00  0.10566000000E+00 0.  1.
     999900   -1    0    0    0    0 -0.00000000000E+00 -0.00000000000E+00 -0.74505805969E-08  0.93827000000E+00  0.93827000000E+00 0. -1.
     999902    2    1    2    0    0 -0.12519382487E-01 -0.23325246882E-02 -0.57686333224E-02  0.10299495587E+01  0.10298546697E+01 0.  0.
     999903    2    3    3    0    0  0.60459490810E-02  0.13035944526E+00  0.20361987243E-01  0.13942463496E+00  0.44659599643E-01 0.  0.
         14    1    1    2    0    0  0.12519382487E-01  0.23325246882E-02  0.57686333224E-02  0.13980441326E-01  0.00000000000E+00 0.  1.
     999901    1    3    3    0    0 -0.18565331568E-01 -0.13269196995E+00 -0.26130620565E-01  0.89052492371E+00  0.88000000000E+00 0.  1.
        -11    1    4    4    0    0  0.34103394299E-02  0.43595848158E-01  0.28562237721E-01  0.52233044487E-01  0.51100000000E-03 0. -1.
         11    1    4    4    0    0  0.26356096511E-02  0.86763597102E-01 -0.82002504787E-02  0.87191590473E-01  0.51100000000E-03 0.  1.
</event>
<event>
 8    1  0.2077555E+004  0.1043930E+01  0.7957747E-01            NaN
         13   -1    0    0    0    0  0.00000000000E+00  0.00000000000E+00  0.74505805969E-08  0.10566000000E+00  0.10566000000E+00 0.  1.
     999900   -1    0    0    0    0 -0.00000000000E+00 -0.00000000000E+00 -0.74505805969E-08  0.93827000000E+00  0.93827000000E+00 0. -1.
     999902    2    1    2    0    0  0.87153598431E-02  0.10698364375E-01  0.19014848963E-02  0.10300006015E+01  0.10299064088E+01 0.  0.
     999903    2    3    3    0    0 -0.10155187985E+00 -0.23807339481E-01 -0.79366219169E-01  0.13873523840E+00  0.45485117525E-01 0.  0.
         14    1    1    2    0    0 -0.87153598431E-02 -0.10698364375E-01 -0.19014848963E-02  0.13929398491E-01  0.00000000000E+00 0. -1.
     999901    1    3    3    0    0  0.11026723969E+00  0.34505703856E-01  0.81267704065E-01  0.89126536311E+00  0.88000000000E+00 0. -1.
        -11    1    4    4    0    0 -0.48139193906E-01  0.94249744198E-02 -0.47215715524E-01  0.68086687731E-01  0.51100000000E-03 0.  1.
         11    1    4    4    0    0 -0.53412685940E-01 -0.33232313900E-01 -0.32150503646E-01  0.70648550673E-01  0.51100000000E-03 0. -1.
</event>
<event>
 8    1  0.2077555E+004  0.1043930E+01  0.7957747E-01            NaN
         13   -1    0    0    0    0  0.00000000000E+00  0.00000000000E+00  0.74505805969E-08  0.10566000000E+00  0.10566000000E+00 0. -1.
     999900   -1    0    0    0    0 -0.00000000000E+00 -0.00000000000E+00 -0.74505805969E-08  0.93827000000E+00  0.93827000000E+00 0.  1.
     999902    2    1    2    0    0 -0.72215229295E-02  0.33911899909E-02  0.13538285117E-01  0.10282158113E+01  0.10280957246E+01 0.  0.
     999903    2    3    3    0    0 -0.11490834533E+00 -0.29584063173E-01 -0.54752975506E-01  0.13841385843E+00  0.45621960252E-01 0.  0.
         14    1    1    2    0    0  0.72215229295E-02 -0.33911899909E-02 -0.13538285117E-01  0.15714188712E-01  0.00000000000E+00 0. -1.
     999901    1    3    3    0    0  0.10768682240E+00  0.32975253164E-01  0.68291260623E-01  0.88980195286E+00  0.88000000000E+00 0.  1.
        -11    1    4    4    0    0 -0.44432866413E-01  0.31717361838E-02 -0.22142174697E-02  0.44603849700E-01  0.51100000000E-03 0. -1.
         11    1    4    4    0    0 -0.70475478917E-01 -0.32755799357E-01 -0.52538758036E-01  0.93810008725E-01  0.51100000000E-03 0.  1.
</event>
<event>
 8    1  0.2077555E+004  0.1043930E+01  0.7957747E-01            NaN
         13   -1    0    0    0    0  0.00000000000E+00  0.00000000000E+00  0.74505805969E-08  0.10566000000E+00  0.10566000000E+00 0.  1.
     999900   -1    0    0    0    0 -0.00000000000E+00 -0.00000000000E+00 -0.74505805969E-08  0.93827000000E+00  0.93827000000E+00 0.  1.
     999902    2    1    2    0    0 -0.91751092898E-02  0.42075026453E-02 -0.80932982615E-02  0.10309921800E+01  0.10309109991E+01 0.  0.
     999903    2    3    3    0    0 -0.11295650547E+00  0.32149614896E-01 -0.63636394513E-01  0.14271498490E+00  0.50251431262E-01 0.  0.
         14    1    1    2    0    0  0.91751092898E-02 -0.42075026453E-02  0.80932982615E-02  0.12937819976E-01  0.00000000000E+00 0. -1.
     999901    1    3    3    0    0  0.10378139618E+00 -0.27942112251E-01  0.55543096252E-01  0.88827719512E+00  0.88000000000E+00 0.  1.
        -11    1    4    4    0    0 -0.27851288319E-01  0.28412869175E-01 -0.69572439496E-02  0.40393684657E-01  0.51100000000E-03 0.  1.
         11    1    4    4    0    0 -0.85105217148E-01  0.37367457208E-02 -0.56679150564E-01  0.10232130025E+00  0.51100000000E-03 0. -1.
</event>
<event>
 8    1  0.2077555E+004  0.1043930E+01  0.7957747E-01            NaN
         13   -1    0    0    0    0  0.00000000000E+00  0.00000000000E+00  0.74505805969E-08  0.10566000000E+00  0.10566000000E+00 0.  1.
     999900   -1    0    0    0    0 -0.00000000000E+00 -0.00000000000E+00 -0.74505805969E-08  0.93827000000E+00  0.93827000000E+00 0. -1.
     999902    2    1    2    0    0  0.11763504681E-01  0.66393511662E-02 -0.44556895007E-02  0.10297062805E+01  0.10296080371E+01 0.  0.
     999903    2    3    3    0    0 -0.67974311032E-01 -0.63468592632E-01  0.91721933121E-01  0.13812152398E+00  0.44898476149E-01 0.  0.
         14    1    1    2    0    0 -0.11763504681E-01 -0.66393511662E-02  0.44556895007E-02  0.14223719458E-01  0.00000000000E+00 0. -1.
     999901    1    3    3    0    0  0.79737815713E-01  0.70107943798E-01 -0.96177622621E-01  0.89158475656E+00  0.88000000000E+00 0. -1.
        -11    1    4    4    0    0  0.27119219786E-02 -0.15359302379E-01  0.25806314184E-01  0.30157746321E-01  0.51100000000E-03 0. -1.
         11    1    4    4    0    0 -0.70686233011E-01 -0.48109290253E-01  0.65915618937E-01  0.10796377766E+00  0.51100000000E-03 0.  1.
</event>
<event>
 8    1  0.2077555E+004  0.1043930E+01  0.7957747E-01            NaN
         13   -1    0    0    0    0  0.00000000000E+00  0.00000000000E+00  0.74505805969E-08  0.10566000000E+00  0.10566000000E+00 0.  1.
     999900   -1    0    0    0    0 -0.00000000000E+00 -0.00000000000E+00 -0.74505805969E-08  0.93827000000E+00  0.93827000000E+00 0. -1.
     999902    2    1    2    0    0  0.12805698616E-01 -0.28388842977E-02  0.44710908104E-02  0.10300723005E+01  0.10299790816E+01 0.  0.
     999903    2    3    3    0    0 -0.12805736205E+00 -0.26920270250E-02 -0.26433935684E-01  0.13833380520E+00  0.45072760296E-01 0.  0.
         14    1    1    2    0    0 -0.12805698616E-01  0.28388842977E-02 -0.44710908104E-02  0.13857699453E-01  0.00000000000E+00 0.  1.
     999901    1    3    3    0    0  0.14086306066E+00 -0.14685727278E-03  0.30905026494E-01  0.89173849535E+00  0.88000000000E+00 0.  1.
        -11    1    4    4    0    0 -0.25591240393E-01  0.14756795447E-01 -0.16695069690E-01  0.33936132214E-01  0.51100000000E-03 0.  1.
         11    1    4    4    0    0 -0.10246612165E+00 -0.17448822471E-01 -0.97388659939E-02  0.10439767298E+00  0.51100000000E-03 0. -1.
</event>
<event>
 8    1  0.2077555E+004  0.1043930E+01  0.7957747E-01            NaN
         13   -1    0    0    0    0  0.00000000000E+00  0.00000000000E+00  0.74505805969E-08  0.10566000000E+00  0.10566000000E+00 0. -1.
     999900   -1    0    0    0    0 -0.00000000000E+00 -0.00000000000E+00 -0.74505805969E-08  0.93827000000E+00  0.93827000000E+00 0. -1.
     999902    2    1    2    0    0 -0.14397680363E-01 -0.27554328261E-03 -0.44383762228E-02  0.10288612141E+01  0.10287508589E+01 0.  0.
     999903    2    3    3    0    0  0.12938676153E+00 -0.37692752302E-02  0.59805839823E-02  0.13712429854E+00  0.44857155175E-01 0.  0.
         14    1    1    2    0    0  0.14397680363E-01  0.27554328261E-03  0.44383762228E-02  0.15068785865E-01  0.00000000000E+00 0. -1.
     999901    1    3    3    0    0 -0.14378444190E+00  0.34937319476E-02 -0.10418960205E-01  0.89173691559E+00  0.88000000000E+00 0.  1.
        -11    1    4    4    0    0  0.16278296224E-01 -0.16456784324E-01  0.19255406725E-02  0.23233112278E-01  0.51100000000E-03 0. -1.
         11    1    4    4    0    0  0.11310846531E+00  0.12687509094E-01  0.40550433098E-02  0.11389118627E+00  0.51100000000E-03 0.  1.
</event>
<event>
 8    1  0.2077555E+004  0.1043930E+01  0.7957747E-01            NaN
         13   -1    0    0    0    0  0.00000000000E+00  0.00000000000E+00  0.74505805969E-08  0.10566000000E+00  0.10566000000E+00 0.  1.
     999900   -1    0    0    0    0 -0.00000000000E+00 -0.00000000000E+00 -0.74505805969E-08  0.93827000000E+00  0.93827000000E+00 0.  1.
     999902    2    1    2    0    0 -0.25237776794E-02  0.10553699909E-01  0.51833965194E-02  0.10319042927E+01  0.10318342172E+01 0.  0.
     999903    2    3    3    0    0  0.72032642835E-01 -0.10927075735E+00  0.22104343757E-01  0.14049929004E+00  0.46072208995E-01 0.  0.
         14    1    1    2    0    0  0.25237776794E-02 -0.10553699909E-01 -0.51833965194E-02  0.12025707256E-01  0.00000000000E+00 0. -1.
     999901    1    3    3    0    0 -0.74556420515E-01  0.11982445726E+00 -0.16920947237E-01  0.89140500271E+00  0.88000000000E+00 0.  1.
        -11    1    4    4    0    0  0.63172030436E-01 -0.77383122211E-01  0.33700645924E-01  0.10542697800E+00  0.51100000000E-03 0. -1.
         11    1    4    4    0    0  0.88606123994E-02 -0.31887635140E-01 -0.11596302167E-01  0.35072312040E-01  0.51100000000E-03 0.  1.
</event>
<event>
 8    1  0.2077555E+004  0.1043930E+01  0.7957747E-01            NaN
         13   -1    0    0    0    0  0.00000000000E+00  0.00000000000E+00  0.74505805969E-08  0.10566000000E+00  0.10566000000E+00 0.  1.
     999900   -1    0    0    0    0 -0.00000000000E+00 -0.00000000000E+00 -0.74505805969E-08  0.93827000000E+00  0.93827000000E+00 0.  1.
     999902    2    1    2    0    0 -0.11281551127E-01  0.64068264993E-02  0.39169329532E-02  0.10303777609E+01  0.10302886328E+01 0.  0.
     999903    2    3    3    0    0 -0.93011369585E-01  0.73031537395E-01 -0.62174431550E-01  0.14162206678E+00  0.46972646647E-01 0.  0.
         14    1    1    2    0    0  0.11281551127E-01 -0.64068264993E-02 -0.39169329532E-02  0.13552239128E-01  0.00000000000E+00 0.  1.
     999901    1    3    3    0    0  0.81729818458E-01 -0.66624710895E-01  0.66091364503E-01  0.88875569410E+00  0.88000000000E+00 0. -1.
        -11    1    4    4    0    0 -0.50909622692E-01  0.47396188082E-01 -0.10746363652E-01  0.70384187003E-01  0.51100000000E-03 0. -1.
         11    1    4    4    0    0 -0.42101746892E-01  0.25635349313E-01 -0.51428067898E-01  0.71237879772E-01  0.51100000000E-03 0.  1.
</event>
<event>
 8    1  0.2077555E+004  0.1043930E+01  0.7957747E-01            NaN
         13   -1    0    0    0    0  0.00000000000E+00  0.00000000000E+00  0.74505805969E-08  0.10566000000E+00  0.10566000000E+00 0.  1.
     999900   -1    0    0    0    0 -0.00000000000E+00 -0.00000000000E+00 -0.74505805969E-08  0.93827000000E+00  0.93827000000E+00 0. -1.
     999902    2    1    2    0    0 -0.34365172078E-02  0.40227048026E-02 -0.13968295773E-01  0.10289932972E+01  0.10288848821E+01 0.  0.
     999903    2    3    3    0    0  0.61330803903E-01 -0.10426005039E-01 -0.11774311651E+00  0.14041421543E+00  0.44525737728E-01 0.  0.
         14    1    1    2    0    0  0.34365172078E-02 -0.40227048026E-02  0.13968295773E-01  0.14936702824E-01  0.00000000000E+00 0.  1.
     999901    1    3    3    0    0 -0.64767321111E-01  0.14448709842E-01  0.10377482074E+00  0.88857908175E+00  0.88000000000E+00 0.  1.
        -11    1    4    4    0    0  0.47711940439E-01 -0.22665788777E-01 -0.60522550738E-01  0.80333103452E-01  0.51100000000E-03 0.  1.
         11    1    4    4    0    0  0.13618863464E-01  0.12239783738E-01 -0.57220565773E-01  0.60081111977E-01  0.51100000000E-03 0. -1.
</event>
<event>
 8    1  0.2077555E+004  0.1043930E+01  0.7957747E-01            NaN
         13   -1    0    0    0    0  0.00000000000E+00  0.00000000000E+00  0.74505805969E-08  0.10566000000E+00  0.10566000000E+00 0.  1.
     999900   -1    0    0    0    0 -0.00000000000E+00 -0.00000000000E+00 -0.74505805969E-08  0.93827000000E+00  0.93827000000E+00 0.  1.
     999902    2    1    2    0    0  0.58563483826E-02 -0.26014174418E-02 -0.13163824012E-01  0.10292892879E+01  0.10291851571E+01 0.  0.
     999903    2    3    3    0    0  0.12517283612E-01 -0.79314682950E-01  0.10319404944E+00  0.13829633174E+00  0.45048442952E-01 0.  0.
         14    1    1    2    0    0 -0.58563483826E-02  0.26014174418E-02  0.13163824012E-01  0.14640712131E-01  0.00000000000E+00 0.  1.
     999901    1    3    3    0    0 -0.66609352293E-02  0.76713265508E-01 -0.11635787345E+00  0.89099295613E+00  0.88000000000E+00 0.  1.
        -11    1    4    4    0    0 -0.12145765858E-01 -0.29404580767E-01  0.59690709894E-01  0.67641636342E-01  0.51100000000E-03 0.  1.
         11    1    4    4    0    0  0.24663049470E-01 -0.49910102183E-01  0.43503339542E-01  0.70654695395E-01  0.51100000000E-03 0. -1.
</event>
<event>
 8    1  0.2077555E+004  0.1043930E+01  0.7957747E-01            NaN
         13   -1    0    0    0    0  0.00000000000E+00  0.00000000000E+00  0.74505805969E-08  0.10566000000E+00  0.10566000000E+00 0.  1.
     999900   -1    0    0    0    0 -0.00000000000E+00 -0.00000000000E+00 -0.74505805969E-08  0.93827000000E+00  0.93827000000E+00 0. -1.
     999902    2    1    2    0    0 -0.10387930205E-01 -0.64067114540E-02 -0.70449242153E-02  0.10298379454E+01  0.10297415247E+01 0.  0.
     999903    2    3    3    0    0 -0.12774574812E+00 -0.40154884329E-01  0.74931359407E-02  0.14128679224E+00  0.44434442462E-01 0.  0.
         14    1    1    2    0    0  0.10387930205E-01  0.64067114540E-02  0.70449242153E-02  0.14092054598E-01  0.00000000000E+00 0.  1.
     999901    1    3    3    0    0  0.11735781791E+00  0.33748172875E-01 -0.14538060156E-01  0.88855115316E+00  0.88000000000E+00 0.  1.
        -11    1    4    4    0    0 -0.53111915771E-01 -0.30074939057E-02 -0.14355581830E-01  0.55102309091E-01  0.51100000000E-03 0.  1.
         11    1    4    4    0    0 -0.74633832346E-01 -0.37147390423E-01  0.21848717771E-01  0.86184483146E-01  0.51100000000E-03 0. -1.
</event>
<event>
 8    1  0.2077555E+004  0.1043930E+01  0.7957747E-01            NaN
         13   -1    0    0    0    0  0.00000000000E+00  0.00000000000E+00  0.74505805969E-08  0.10566000000E+00  0.10566000000E+00 0. -1.
     999900   -1    0    0    0    0 -0.00000000000E+00 -0.00000000000E+00 -0.74505805969E-08  0.93827000000E+00  0.93827000000E+00 0. -1.
     999902    2    1    2    0    0 -0.55677453360E-02  0.80767341843E-02 -0.10793543891E-01  0.10293445959E+01  0.10292412560E+01 0.  0.
     999903    2    3    3    0    0  0.44475166060E-01  0.24480437171E-01  0.12028916198E+00  0.13807805314E+00  0.44930324615E-01 0.  0.
         14    1    1    2    0    0  0.55677453360E-02 -0.80767341843E-02  0.10793543891E-01  0.14585404106E-01  0.00000000000E+00 0. -1.
     999901    1    3    3    0    0 -0.50042911396E-01 -0.16403702987E-01 -0.13108270587E+00  0.89126654275E+00  0.88000000000E+00 0. -1.
        -11    1    4    4    0    0  0.69800225462E-02  0.23036082375E-01  0.77554317679E-01  0.81205388477E-01  0.51100000000E-03 0. -1.
         11    1    4    4    0    0  0.37495143514E-01  0.14443547962E-02  0.42734844297E-01  0.56872664665E-01  0.51100000000E-03 0.  1.
</event>
<event>
 8    1  0.2077555E+004  0.1043930E+01  0.7957747E-01            NaN
         13   -1    0    0    0    0  0.00000000000E+00  0.00000000000E+00  0.74505805969E-08  0.10566000000E+00  0.10566000000E+00 0.  1.
     999900   -1    0    0    0    0 -0.00000000000E+00 -0.00000000000E+00 -0.74505805969E-08  0.93827000000E+00  0.93827000000E+00 0.  1.
     999902    2    1    2    0    0 -0.49060330157E-02  0.41318434662E-02 -0.15069203511E-01  0.10275525098E+01  0.10274219864E+01 0.  0.
     999903    2    3    3    0    0  0.65573234907E-01 -0.45300815665E-01  0.10079718643E+00  0.13579248867E+00  0.43903463980E-01 0.  0.
         14    1    1    2    0    0  0.49060330157E-02 -0.41318434662E-02  0.15069203511E-01  0.16377490187E-01  0.00000000000E+00 0.  1.
     999901    1    3    3    0    0 -0.70479267923E-01  0.49432659131E-01 -0.11586638994E+00  0.89176002115E+00  0.88000000000E+00 0.  1.
        -11    1    4    4    0    0  0.13987775032E-01  0.71068043664E-02  0.29226588670E-01  0.33175580250E-01  0.51100000000E-03 0.  1.
         11    1    4    4    0    0  0.51585459875E-01 -0.52407620031E-01  0.71570597764E-01  0.10261690842E+00  0.51100000000E-03 0. -1.
</event>
<event>
 8    1  0.2077555E+004  0.1043930E+01  0.7957747E-01            NaN
         13   -1    0    0    0    0  0.00000000000E+00  0.00000000000E+00  0.74505805969E-08  0.10566000000E+00  0.10566000000E+00 0.  1.
     999900   -1    0    0    0    0 -0.00000000000E+00 -0.00000000000E+00 -0.74505805969E-08  0.93827000000E+00  0.93827000000E+00 0. -1.
     999902    2    1    2    0    0 -0.18223606066E-02 -0.13711431689E-01  0.36777945730E-02  0.10296173996E+01  0.10295179158E+01 0.  0.
     999903    2    3    3    0    0  0.91362563795E-01  0.46866033017E-01  0.82561387713E-01  0.13912558008E+00  0.44676628998E-01 0.  0.
         14    1    1    2    0    0  0.18223606066E-02  0.13711431689E-01 -0.36777945730E-02  0.14312600395E-01  0.00000000000E+00 0. -1.
     999901    1    3    3    0    0 -0.93184924402E-01 -0.60577464707E-01 -0.78883593140E-01  0.89049181952E+00  0.88000000000E+00 0. -1.
        -11    1    4    4    0    0  0.64738605127E-01  0.11388019331E-01  0.36548882089E-01  0.75212072708E-01  0.51100000000E-03 0. -1.
         11    1    4    4    0    0  0.26623958668E-01  0.35478013686E-01  0.46012505625E-01  0.63913507376E-01  0.51100000000E-03 0.  1.
</event>
<event>
 8    1  0.2077555E+004  0.1043930E+01  0.7957747E-01            NaN
         13   -1    0    0    0    0  0.00000000000E+00  0.00000000000E+00  0.74505805969E-08  0.10566000000E+00  0.10566000000E+00 0.  1.
     999900   -1    0    0    0    0 -0.00000000000E+00 -0.00000000000E+00 -0.74505805969E-08  0.93827000000E+00  0.93827000000E+00 0. -1.
     999902    2    1    2    0    0  0.59724136056E-02 -0.11555350968E-01 -0.19831405515E-02  0.10307721618E+01  0.10306881783E+01 0.  0.
     999903    2    3    3    0    0  0.20187037028E-01  0.11271754071E+00 -0.66217658231E-01  0.13960894419E+00  0.44644356719E-01 0.  0.
         14    1    1    2    0    0 -0.59724136056E-02  0.11555350968E-01  0.19831405515E-02  0.13157838224E-01  0.00000000000E+00 0.  1.
     999901    1    3    3    0    0 -0.14214623422E-01 -0.12427289168E+00  0.64234517679E-01  0.89116321759E+00  0.88000000000E+00 0.  1.
        -11    1    4    4    0    0  0.30276828935E-02  0.59891395802E-02 -0.21667234901E-01  0.22688473855E-01  0.51100000000E-03 0. -1.
         11    1    4    4    0    0  0.17159354134E-01  0.10672840113E+00 -0.44550423330E-01  0.11692047033E+00  0.51100000000E-03 0.  1.
</event>
<event>
 8    1  0.2077555E+004  0.1043930E+01  0.7957747E-01            NaN
         13   -1    0    0    0    0  0.00000000000E+00  0.00000000000E+00  0.74505805969E-08  0.10566000000E+00  0.10566000000E+00 0. -1.
     999900   -1    0    0    0    0 -0.00000000000E+00 -0.00000000000E+00 -0.74505805969E-08  0.93827000000E+00  0.93827000000E+00 0. -1.
     999902    2    1    2    0    0  0.90826906242E-02 -0.49683722941E-02  0.10332564308E-01  0.10293032479E+01  0.10291993171E+01 0.  0.
     999903    2    3    3    0    0  0.49027726783E-01 -0.26404609808E-01 -0.11875473365E+00  0.13873115721E+00  0.45196524238E-01 0.  0.
         14    1    1    2    0    0 -0.90826906242E-02  0.49683722941E-02 -0.10332564308E-01  0.14626752114E-01  0.00000000000E+00 0.  1.
     999901    1    3    3    0    0 -0.39945036159E-01  0.21436237514E-01  0.12908729796E+00  0.89057209067E+00  0.88000000000E+00 0.  1.
        -11    1    4    4    0    0  0.52068035414E-01 -0.10965590068E-01 -0.10546161705E+00  0.11812594241E+00  0.51100000000E-03 0. -1.
         11    1    4    4    0    0 -0.30403086308E-02 -0.15439019740E-01 -0.13293116601E-01  0.20605214803E-01  0.51100000000E-03 0.  1.
</event>
<event>
 8    1  0.2077555E+004  0.1043930E+01  0.7957747E-01            NaN
         13   -1    0    0    0    0  0.00000000000E+00  0.00000000000E+00  0.74505805969E-08  0.10566000000E+00  0.10566000000E+00 0.  1.
     999900   -1    0    0    0    0 -0.00000000000E+00 -0.00000000000E+00 -0.74505805969E-08  0.93827000000E+00  0.93827000000E+00 0. -1.
     999902    2    1    2    0    0  0.68555284102E-02  0.26823939629E-02  0.10955792344E-01  0.10307306480E+01  0.10306461303E+01 0.  0.
     999903    2    3    3    0    0  0.68593109059E-01 -0.30803342662E-01 -0.10927104039E+00  0.13978322266E+00  0.44105878761E-01 0.  0.
         14    1    1    2    0    0 -0.68555284102E-02 -0.26823939629E-02 -0.10955792344E-01  0.13199351993E-01  0.00000000000E+00 0. -1.
     999901    1    3    3    0    0 -0.61737580648E-01  0.33485736625E-01  0.12022683273E+00  0.89094742535E+00  0.88000000000E+00 0.  1.
        -11    1    4    4    0    0  0.41417368183E-01 -0.27327192751E-01 -0.98588436982E-01  0.11037261834E+00  0.51100000000E-03 0.  1.
         11    1    4    4    0    0  0.27175740875E-01 -0.34761499110E-02 -0.10682603404E-01  0.29410604326E-01  0.51100000000E-03 0. -1.
</event>
<event>
 8    1  0.2077555E+004  0.1043930E+01  0.7957747E-01            NaN
         13   -1    0    0    0    0  0.00000000000E+00  0.00000000000E+00  0.74505805969E-08  0.10566000000E+00  0.10566000000E+00 0.  1.
     999900   -1    0    0    0    0 -0.00000000000E+00 -0.00000000000E+00 -0.74505805969E-08  0.93827000000E+00  0.93827000000E+00 0. -1.
     999902    2    1    2    0    0 -0.12147775856E-01  0.58082504797E-03 -0.58370853714E-02  0.10304401008E+01  0.10303517962E+01 0.  0.
     999903    2    3    3    0    0 -0.39917425632E-01 -0.76422992311E-01 -0.10282019380E+00  0.14133579604E+00  0.44384010273E-01 0.  0.
         14    1    1    2    0    0  0.12147775856E-01 -0.58082504797E-03  0.58370853714E-02  0.13489899244E-01  0.00000000000E+00 0.  1.
     999901    1    3    3    0    0  0.27769649776E-01  0.77003817359E-01  0.96983108427E-01  0.88910430471E+00  0.88000000000E+00 0.  1.
        -11    1    4    4    0    0 -0.33806943185E-01 -0.61563467980E-01 -0.50246284701E-01  0.86359251065E-01  0.51100000000E-03 0.  1.
         11    1    4    4    0    0 -0.61104824473E-02 -0.14859524330E-01 -0.52573909098E-01  0.54976544979E-01  0.51100000000E-03 0. -1.
</event>
<event>
 8    1  0.2077555E+004  0.1043930E+01  0.7957747E-01            NaN
         13   -1    0    0    0    0  0.00000000000E+00  0.00000000000E+00  0.74505805969E-08  0.10566000000E+00  0.10566000000E+00 0.  1.
     999900   -1    0    0    0    0 -0.00000000000E+00 -0.00000000000E+00 -0.74505805969E-08  0.93827000000E+00  0.93827000000E+00 0. -1.
     999902    2    1    2    0    0 -0.14794893246E-02  0.12726910798E-02 -0.13434400866E-01  0.10303545900E+01  0.10302651548E+01 0.  0.
     999903    2    3    3    0    0 -0.27944623263E-01 -0.11877337341E+00 -0.54067613210E-01  0.14088142068E+00  0.45124845638E-01 0.  0.
         14    1    1    2    0    0  0.14794893246E-02 -0.12726910798E-02  0.13434400866E-01  0.13575410044E-01  0.00000000000E+00 0.  1.
     999901    1    3    3    0    0  0.26465133939E-01  0.12004606449E+00  0.40633212345E-01  0.88947316927E+00  0.88000000000E+00 0.  1.
        -11    1    4    4    0    0 -0.78905966834E-02 -0.26192070639E-01  0.69150549357E-02  0.28219943057E-01  0.51100000000E-03 0. -1.
         11    1    4    4    0    0 -0.20054026580E-01 -0.92581302773E-01 -0.60982668146E-01  0.11266147762E+00  0.51100000000E-03 0.  1.
</event>
<event>
 8    1  0.2077555E+004  0.1043930E+01  0.7957747E-01            NaN
         13   -1    0    0    0    0  0.00000000000E+00  0.00000000000E+00  0.74505805969E-08  0.10566000000E+00  0.10566000000E+00 0.  1.
     999900   -1    0    0    0    0 -0.00000000000E+00 -0.00000000000E+00 -0.74505805969E-08  0.93827000000E+00  0.93827000000E+00 0.  1.
     999902    2    1    2    0    0 -0.15282803587E-01  0.30296450317E-02 -0.20263834862E-03  0.10283484758E+01  0.10282304235E+01 0.  0.
     999903    2    3    3    0    0  0.11223989039E+00  0.30601239822E-01  0.56426098614E-01  0.13692879675E+00  0.45070632361E-01 0.  0.
         14    1    1    2    0    0  0.15282803587E-01 -0.30296450317E-02  0.20263834862E-03  0.15581524213E-01  0.00000000000E+00 0. -1.
     999901    1    3    3    0    0 -0.12752269398E+00 -0.27571594790E-01 -0.56628736963E-01  0.89141967903E+00  0.88000000000E+00 0.  1.
        -11    1    4    4    0    0  0.51429117154E-01  0.15072963625E-02  0.45398610394E-01  0.68618663498E-01  0.51100000000E-03 0.  1.
         11    1    4    4    0    0  0.60810773238E-01  0.29093943459E-01  0.11027488220E-01  0.68310133255E-01  0.51100000000E-03 0. -1.
</event>
<event>
 8    1  0.2077555E+004  0.1043930E+01  0.7957747E-01            NaN
         13   -1    0    0    0    0  0.00000000000E+00  0.00000000000E+00  0.74505805969E-08  0.10566000000E+00  0.10566000000E+00 0. -1.
     999900   -1    0    0    0    0 -0.00000000000E+00 -0.00000000000E+00 -0.74505805969E-08  0.93827000000E+00  0.93827000000E+00 0. -1.
     999902    2    1    2    0    0  0.11438527947E-01 -0.35435705806E-02  0.70923760506E-02  0.10300124351E+01  0.10299184035E+01 0.  0.
     999903    2    3    3    0    0  0.13130228943E+00  0.26261549201E-01  0.57340660526E-02  0.14138567912E+00  0.45023000451E-01 0.  0.
         14    1    1    2    0    0 -0.11438527947E-01  0.35435705806E-02 -0.70923760506E-02  0.13917564877E-01  0.00000000000E+00 0. -1.
     999901    1    3    3    0    0 -0.11986376148E+00 -0.29805119782E-01  0.13583099980E-02  0.88862675601E+00  0.88000000000E+00 0. -1.
        -11    1    4    4    0    0  0.66986581425E-01 -0.45879407631E-02  0.16758867398E-01  0.69205289168E-01  0.51100000000E-03 0. -1.
         11    1    4    4    0    0  0.64315708007E-01  0.30849489964E-01 -0.11024801346E-01  0.72180389949E-01  0.51100000000E-03 0.  1.
</event>
<event>
 8    1  0.2077555E+004  0.1043930E+01  0.7957747E-01            NaN
         13   -1    0    0    0    0  0.00000000000E+00  0.00000000000E+00  0.74505805969E-08  0.10566000000E+00  0.10566000000E+00 0. -1.
     999900   -1    0    0    0    0 -0.00000000000E+00 -0.00000000000E+00 -0.74505805969E-08  0.93827000000E+00  0.93827000000E+00 0. -1.
     999902    2    1    2    0    0  0.90435999433E-03 -0.10076954031E-01 -0.93929281933E-02  0.10301245674E+01  0.10300320550E+01 0.  0.
     999903    2    3    3    0    0  0.92506659737E-02 -0.10064432164E+00 -0.88863033881E-01  0.14187482402E+00  0.44910718114E-01 0.  0.
         14    1    1    2    0    0 -0.90435999433E-03  0.10076954031E-01  0.93929281933E-02  0.13805432611E-01  0.00000000000E+00 0.  1.
     999901    1    3    3    0    0 -0.83463059793E-02  0.90567367605E-01  0.79470105688E-01  0.88824974337E+00  0.88000000000E+00 0.  1.
        -11    1    4    4    0    0  0.11764276212E-01 -0.39730550618E-01 -0.10796756570E-01  0.42822259639E-01  0.51100000000E-03 0.  1.
         11    1    4    4    0    0 -0.25136102379E-02 -0.60913771017E-01 -0.78066277311E-01  0.99052564380E-01  0.51100000000E-03 0. -1.
</event>
<event>
 8    1  0.2077555E+004  0.1043930E+01  0.7957747E-01            NaN
         13   -1    0    0    0    0  0.00000000000E+00  0.00000000000E+00  0.74505805969E-08  0.10566000000E+00  0.10566000000E+00 0.  1.
     999900   -1    0    0    0    0 -0.00000000000E+00 -0.00000000000E+00 -0.74505805969E-08  0.93827000000E+00  0.93827000000E+00 0.  1.
     999902    2    1    2    0    0 -0.72655338462E-02  0.25049691613E-02  0.10659446688E-01  0.10307889705E+01  0.10307052028E+01 0.  0.
     999903    2    3    3    0    0 -0.53745293905E-01 -0.12042325696E+00  0.21936965475E-01  0.14095814428E+00  0.44695084166E-01 0.  0.
         14    1    1    2    0    0  0.72655338462E-02 -0.25049691613E-02 -0.10659446688E-01  0.13141029498E-01  0.00000000000E+00 0. -1.
     999901    1    3    3    0    0  0.46479760059E-01  0.12292822613E+00 -0.11277518787E-01  0.88983082623E+00  0.88000000000E+00 0. -1.
        -11    1    4    4    0    0 -0.41784933789E-02 -0.35228656139E-01 -0.10818493876E-01  0.37092033525E-01  0.51100000000E-03 0.  1.
         11    1    4    4    0    0 -0.49566800526E-01 -0.85194600825E-01  0.32755459352E-01  0.10386611075E+00  0.51100000000E-03 0. -1.
</event>
<event>
 8    1  0.2077555E+004  0.1043930E+01  0.7957747E-01            NaN
         13   -1    0    0    0    0  0.00000000000E+00  0.00000000000E+00  0.74505805969E-08  0.10566000000E+00  0.10566000000E+00 0.  1.
     999900   -1    0    0    0    0 -0.00000000000E+00 -0.00000000000E+00 -0.74505805969E-08  0.93827000000E+00  0.93827000000E+00 0.  1.
     999902    2    1    2    0    0 -0.12502098225E-01  0.72882043518E-02 -0.51357811643E-02  0.10285743290E+01  0.10284596996E+01 0.  0.
     999903    2    3    3    0    0  0.26609178829E-01  0.11761772022E+00 -0.53066927095E-01  0.13953007321E+00  0.45940897586E-01 0.  0.
         14    1    1    2    0    0  0.12502098225E-01 -0.72882043518E-02  0.51357811643E-02  0.15355670967E-01  0.00000000000E+00 0. -1.
     999901    1    3    3    0    0 -0.39111277054E-01 -0.11032951587E+00  0.47931145931E-01  0.88904425582E+00  0.88000000000E+00 0. -1.
        -11    1    4    4    0    0  0.13108375014E-01  0.44152652853E-02 -0.12107696162E-01  0.18389711536E-01  0.51100000000E-03 0.  1.
         11    1    4    4    0    0  0.13500803816E-01  0.11320245493E+00 -0.40959230933E-01  0.12114036167E+00  0.51100000000E-03 0. -1.
</event>
<event>
 8    1  0.2077555E+004  0.1043930E+01  0.7957747E-01            NaN
         13   -1    0    0    0    0  0.00000000000E+00  0.00000000000E+00  0.74505805969E-08  0.10566000000E+00  0.10566000000E+00 0. -1.
     999900   -1    0    0    0    0 -0.00000000000E+00 -0.00000000000E+00 -0.74505805969E-08  0.93827000000E+00  0.93827000000E+00 0. -1.
     999902    2    1    2    0    0 -0.38156011063E-02 -0.10936353141E-01 -0.10289905419E-01  0.10284366212E+01  0.10283199109E+01 0.  0.
     999903    2    3    3    0    0  0.41790620054E-02 -0.12626871359E+00  0.38245023872E-01  0.13954905390E+00  0.45276969899E-01 0.  0.
         14    1    1    2    0    0  0.38156011063E-02  0.10936353141E-01  0.10289905419E-01  0.15493378759E-01  0.00000000000E+00 0. -1.
     999901    1    3    3    0    0 -0.79946631117E-02  0.11533236045E+00 -0.48534929292E-01  0.88888756734E+00  0.88000000000E+00 0. -1.
        -11    1    4    4    0    0 -0.16467312199E-01 -0.78514042118E-01  0.34676289436E-01  0.87397559181E-01  0.51100000000E-03 0. -1.
         11    1    4    4    0    0  0.20646374205E-01 -0.47754671474E-01  0.35687344360E-02  0.52151494723E-01  0.51100000000E-03 0.  1.
</event>
<event>
 8    1  0.2077555E+004  0.1043930E+01  0.7957747E-01            NaN
         13   -1    0    0    0    0  0.00000000000E+00  0.00000000000E+00  0.74505805969E-08  0.10566000000E+00  0.10566000000E+00 0. -1.
     999900   -1    0    0    0    0 -0.00000000000E+00 -0.00000000000E+00 -0.74505805969E-08  0.93827000000E+00  0.93827000000E+00 0. -1.
     999902    2    1    2    0    0  0.17983053177E-01  0.11727500041E-01 -0.24991792845E-03  0.10224593941E+01  0.10222339388E+01 0.  0.
     999903    2    3    3    0    0 -0.13008577639E-01  0.12401843558E+00  0.23484727053E-01  0.13446554910E+00  0.44493325727E-01 0.  0.
         14    1    1    2    0    0 -0.17983053177E-01 -0.11727500041E-01  0.24991792845E-03  0.21470605901E-01  0.00000000000E+00 0. -1.
     999901    1    3    3    0    0  0.30991630816E-01 -0.11229093554E+00 -0.23734644982E-01  0.88799384500E+00  0.88000000000E+00 0. -1.
        -11    1    4    4    0    0  0.68450195987E-02  0.14342946193E-01  0.16306031161E-01  0.22775473036E-01  0.51100000000E-03 0.  1.
         11    1    4    4    0    0 -0.19853597238E-01  0.10967548939E+00  0.71786958920E-02  0.11169007606E+00  0.51100000000E-03 0. -1.
</event>
<event>
 8    1  0.2077555E+004  0.1043930E+01  0.7957747E-01            NaN
         13   -1    0    0    0    0  0.00000000000E+00  0.00000000000E+00  0.74505805969E-08  0.10566000000E+00  0.10566000000E+00 0.  1.
     999900   -1    0    0    0    0 -0.00000000000E+00 -0.00000000000E+00 -0.74505805969E-08  0.93827000000E+00  0.93827000000E+00 0.  1.
     999902    2    1    2    0    0  0.10481450813E-01  0.26081146589E-03 -0.90463890795E-02  0.10300820403E+01  0.10299889532E+01 0.  0.
     999903    2    3    3    0    0  0.66633999848E-01 -0.67823853376E-02  0.11062666515E+00  0.14018072253E+00  0.54095149859E-01 0.  0.
         14    1    1    2    0    0 -0.10481450813E-01 -0.26081146589E-03  0.90463890795E-02  0.13847959747E-01  0.00000000000E+00 0.  1.
     999901    1    3    3    0    0 -0.56152549035E-01  0.70431968035E-02 -0.11967305423E+00  0.88990131773E+00  0.88000000000E+00 0.  1.
        -11    1    4    4    0    0  0.13883928567E-01  0.20461012248E-01  0.19853085980E-01  0.31714706977E-01  0.51100000000E-03 0.  1.
         11    1    4    4    0    0  0.52750071282E-01 -0.27243397586E-01  0.90773579172E-01  0.10846601555E+00  0.51100000000E-03 0. -1.
</event>
<event>
 8    1  0.2077555E+004  0.1043930E+01  0.7957747E-01            NaN
         13   -1    0    0    0    0  0.00000000000E+00  0.00000000000E+00  0.74505805969E-08  0.10566000000E+00  0.10566000000E+00 0. -1.
     999900   -1    0    0    0    0 -0.00000000000E+00 -0.00000000000E+00 -0.74505805969E-08  0.93827000000E+00  0.93827000000E+00 0.  1.
     999902    2    1    2    0    0  0.80684540130E-02 -0.96606989071E-02 -0.80160785027E-02  0.10290073136E+01  0.10288991034E+01 0.  0.
     999903    2    3    3    0    0  0.74232894188E-01 -0.10300074843E+00 -0.41792263735E-01  0.14095836867E+00  0.44754794522E-01 0.  0.
         14    1    1    2    0    0 -0.80684540130E-02  0.96606989071E-02  0.80160785027E-02  0.14922686357E-01  0.00000000000E+00 0. -1.
     999901    1    3    3    0    0 -0.66164440175E-01  0.93340049520E-01  0.33776185232E-01  0.88804894498E+00  0.88000000000E+00 0.  1.
        -11    1    4    4    0    0  0.19031384228E-01 -0.50995157739E-01 -0.35215982859E-01  0.64831522180E-01  0.51100000000E-03 0. -1.
         11    1    4    4    0    0  0.55201509960E-01 -0.52005590688E-01 -0.65762808758E-02  0.76126846485E-01  0.51100000000E-03 0.  1.
</event>
<event>
 8    1  0.2077555E+004  0.1043930E+01  0.7957747E-01            NaN
         13   -1    0    0    0    0  0.00000000000E+00  0.00000000000E+00  0.74505805969E-08  0.10566000000E+00  0.10566000000E+00 0. -1.
     999900   -1    0    0    0    0 -0.00000000000E+00 -0.00000000000E+00 -0.74505805969E-08  0.93827000000E+00  0.93827000000E+00 0.  1.
     999902    2    1    2    0    0  0.22916654113E-02  0.97748469036E-02  0.10076124085E-01  0.10297058080E+01  0.10296075579E+01 0.  0.
     999903    2    3    3    0    0  0.12844061760E+00  0.14580680054E-01  0.31327595248E-01  0.14044303511E+00  0.45091456015E-01 0.  0.
         14    1    1    2    0    0 -0.22916654113E-02 -0.97748469036E-02 -0.10076124085E-01  0.14224192030E-01  0.00000000000E+00 0.  1.
     999901    1    3    3    0    0 -0.12614895219E+00 -0.48058331502E-02 -0.21251471164E-01  0.88926277286E+00  0.88000000000E+00 0.  1.
        -11    1    4    4    0    0  0.12622679697E+00  0.16930756196E-01  0.38089880693E-01  0.13293214401E+00  0.51100000000E-03 0.  1.
         11    1    4    4    0    0  0.22138206322E-02 -0.23500761421E-02 -0.67622854449E-02  0.75108910992E-02  0.51100000000E-03 0. -1.
</event>
<event>
 8    1  0.2077555E+004  0.1043930E+01  0.7957747E-01            NaN
         13   -1    0    0    0    0  0.00000000000E+00  0.00000000000E+00  0.74505805969E-08  0.10566000000E+00  0.10566000000E+00 0.  1.
     999900   -1    0    0    0    0 -0.00000000000E+00 -0.00000000000E+00 -0.74505805969E-08  0.93827000000E+00  0.93827000000E+00 0.  1.
     999902    2    1    2    0    0  0.79461659242E-02  0.53139501911E-02  0.99783581856E-02  0.10301116335E+01  0.10300189466E+01 0.  0.
     999903    2    3    3    0    0  0.12573657614E+00  0.19524654450E-01 -0.39235344827E-01  0.14078688216E+00  0.45723464371E-01 0.  0.
         14    1    1    2    0    0 -0.79461659242E-02 -0.53139501911E-02 -0.99783581856E-02  0.13818366459E-01  0.00000000000E+00 0. -1.
     999901    1    3    3    0    0 -0.11779041021E+00 -0.14210704259E-01  0.49213703012E-01  0.88932475138E+00  0.88000000000E+00 0. -1.
        -11    1    4    4    0    0  0.60330789371E-01 -0.11484347902E-01 -0.79473712103E-02  0.61928315196E-01  0.51100000000E-03 0.  1.
         11    1    4    4    0    0  0.65405786768E-01  0.31009002352E-01 -0.31287973616E-01  0.78858566964E-01  0.51100000000E-03 0. -1.
</event>
<event>
 8    1  0.2077555E+004  0.1043930E+01  0.7957747E-01            NaN
         13   -1    0    0    0    0  0.00000000000E+00  0.00000000000E+00  0.74505805969E-08  0.10566000000E+00  0.10566000000E+00 0. -1.
     999900   -1    0    0    0    0 -0.00000000000E+00 -0.00000000000E+00 -0.74505805969E-08  0.93827000000E+00  0.93827000000E+00 0.  1.
     999902    2    1    2    0    0 -0.51585127333E-02  0.82251840318E-02  0.10125038352E-01  0.10299021596E+01  0.10298066216E+01 0.  0.
     999903    2    3    3    0    0 -0.40649809905E-01  0.12192120666E+00  0.37925886004E-01  0.14144321010E+00  0.45283784915E-01 0.  0.
         14    1    1    2    0    0  0.51585127333E-02 -0.82251840318E-02 -0.10125038352E-01  0.14027840447E-01  0.00000000000E+00 0.  1.
     999901    1    3    3    0    0  0.35491297172E-01 -0.11369602262E+00 -0.27800847652E-01  0.88845894945E+00  0.88000000000E+00 0.  1.
        -11    1    4    4    0    0 -0.46370691932E-01  0.81503815733E-01  0.36404034835E-01  0.10059139090E+00  0.51100000000E-03 0.  1.
         11    1    4    4    0    0  0.57208820264E-02  0.40417390923E-01  0.15218511686E-02  0.40851819202E-01  0.51100000000E-03 0. -1.
</event>
<event>
 8    1  0.2077555E+004  0.1043930E+01  0.7957747E-01            NaN
         13   -1    0    0    0    0  0.00000000000E+00  0.00000000000E+00  0.74505805969E-08  0.10566000000E+00  0.10566000000E+00 0. -1.
     999900   -1    0    0    0    0 -0.00000000000E+00 -0.00000000000E+00 -0.74505805969E-08  0.93827000000E+00  0.93827000000E+00 0. -1.
     999902    2    1    2    0    0 -0.75142513272E-02  0.11413855419E-01  0.39204027463E-02  0.10297134735E+01  0.10296153300E+01 0.  0.
     999903    2    3    3    0    0 -0.11720855272E+00 -0.59629865405E-01 -0.15069435738E-01  0.13985917980E+00  0.45165657324E-01 0.  0.
         14    1    1    2    0    0  0.75142513272E-02 -0.11413855419E-01 -0.39204027463E-02  0.14216526517E-01  0.00000000000E+00 0.  1.
     999901    1    3    3    0    0  0.10969430139E+00  0.71043720824E-01  0.18989838484E-01  0.88985429369E+00  0.88000000000E+00 0. -1.
        -11    1    4    4    0    0 -0.21536102080E-01 -0.33565603527E-01 -0.41365143432E-02  0.40097697002E-01  0.51100000000E-03 0. -1.
         11    1    4    4    0    0 -0.95672450637E-01 -0.26064261879E-01 -0.10932921395E-01  0.99761482795E-01  0.51100000000E-03 0.  1.
</event>
<event>
 8    1  0.2077555E+004  0.1043930E+01  0.7957747E-01            NaN
         13   -1    0    0    0    0  0.00000000000E+00  0.00000000000E+00  0.74505805969E-08  0.10566000000E+00  0.10566000000E+00 0. -1.
     999900   -1    0    0    0    0 -0.00000000000E+00 -0.00000000000E+00 -0.74505805969E-08  0.93827000000E+00  0.93827000000E+00 0. -1.
     999902    2    1    2    0    0 -0.21249657121E-02  0.13273738475E-01 -0.32886081724E-02  0.10300908325E+01  0.10299978644E+01 0.  0.
     999903    2    3    3    0    0 -0.90272755310E-01 -0.84904561433E-01 -0.44509753540E-01  0.13930006349E+00  0.45447052995E-01 0.  0.
         14    1    1    2    0    0  0.21249657121E-02 -0.13273738475E-01  0.32886081724E-02  0.13839167464E-01  0.00000000000E+00 0. -1.
     999901    1    3    3    0    0  0.88147789598E-01  0.98178299909E-01  0.41221145368E-01  0.89079076904E+00  0.88000000000E+00 0.  1.
        -11    1    4    4    0    0 -0.60099649344E-01 -0.46488293660E-01 -0.48730216267E-01  0.90266407911E-01  0.51100000000E-03 0.  1.
         11    1    4    4    0    0 -0.30173105966E-01 -0.38416267773E-01  0.42204627270E-02  0.49033655583E-01  0.51100000000E-03 0. -1.
</event>
<event>
 8    1  0.2077555E+004  0.1043930E+01  0.7957747E-01            NaN
         13   -1    0    0    0    0  0.00000000000E+00  0.00000000000E+00  0.74505805969E-08  0.10566000000E+00  0.10566000000E+00 0.  1.
     999900   -1    0    0    0    0 -0.00000000000E+00 -0.00000000000E+00 -0.74505805969E-08  0.93827000000E+00  0.93827000000E+00 0. -1.
     999902    2    1    2    0    0 -0.49561244769E-02  0.92965157881E-02 -0.10796076446E-01  0.10288454502E+01  0.10287348622E+01 0.  0.
     999903    2    3    3    0    0 -0.28788593703E-01  0.59801948035E-01 -0.11583206405E+00  0.14084131511E+00  0.44879314414E-01 0.  0.
         14    1    1    2    0    0  0.49561244769E-02 -0.92965157881E-02  0.10796076446E-01  0.15084549787E-01  0.00000000000E+00 0.  1.
     999901    1    3    3    0    0  0.23832469226E-01 -0.50505432247E-01  0.10503598760E+00  0.88800413511E+00  0.88000000000E+00 0.  1.
        -11    1    4    4    0    0 -0.39118925389E-01  0.50092626430E-01 -0.10594994446E+00  0.12355247225E+00  0.51100000000E-03 0.  1.
         11    1    4    4    0    0  0.10330331686E-01  0.97093216052E-02 -0.98821195908E-02  0.17288842859E-01  0.51100000000E-03 0. -1.
</event>
<event>
 7    1  0.2077555E+004  0.1043930E+01  0.7957747E-01            NaN
         13   -1    0    0    0    0  0.00000000000E+00  0.00000000000E+00  0.74505805969E-08  0.10566000000E+00  0.10566000000E+00 0. -1.
     999900   -1    0    0    0    0 -0.00000000000E+00 -0.00000000000E+00 -0.74505805969E-08  0.93827000000E+00  0.93827000000E+00 0.  1.
     999903    2    1    2    0    0  0.51772729880E-01  0.69589185778E-01  0.71070720315E-01  0.12066048856E+00  0.44551496908E-01 0.  0.
         14    1    1    2    0    0 -0.37130258071E-01 -0.44957137836E-03 -0.92881173227E-02  0.38276981363E-01  0.00000000000E+00 0.  1.
     999901    1    1    2    0    0 -0.14642471809E-01 -0.69139614400E-01 -0.61782602992E-01  0.88499253008E+00  0.88000000000E+00 0. -1.
        -11    1    3    3    0    0  0.43450736903E-01  0.25147953611E-01  0.24919210828E-01  0.56050105241E-01  0.51100000000E-03 0. -1.
         11    1    3    3    0    0  0.83219929779E-02  0.44441232167E-01  0.46151509487E-01  0.64610383319E-01  0.51100000000E-03 0.  1.
</event>
<event>
 7    1  0.3131488E+004  0.1043930E+01  0.7957747E-01            NaN
         13   -1    0    0    0    0  0.00000000000E+00  0.00000000000E+00  0.74505805969E-08  0.10566000000E+00  0.10566000000E+00 0.  1.
     999900   -1    0    0    0    0 -0.00000000000E+00 -0.00000000000E+00 -0.74505805969E-08  0.93827000000E+00  0.93827000000E+00 0. -1.
     999903    2    1    2    0    0 -0.68700807390E-01 -0.63134089370E-01  0.44347738831E-01  0.11147721974E+00  0.41889550066E-01 0.  0.
         14    1    1    2    0    0 -0.41942891186E-01 -0.25596971747E-02 -0.77727180865E-03  0.42028113474E-01  0.00000000000E+00 0. -1.
     999901    1    1    2    0    0  0.11064369858E+00  0.65693786545E-01 -0.43570467022E-01  0.89042466679E+00  0.88000000000E+00 0.  1.
        -11    1    3    3    0    0 -0.41187800110E-01 -0.62353524219E-01  0.31505626768E-01  0.81100323671E-01  0.51100000000E-03 0. -1.
         11    1    3    3    0    0 -0.27513007280E-01 -0.78056515129E-03  0.12842112063E-01  0.30376896069E-01  0.51100000000E-03 0.  1.
</event>
<event>
 8    1  0.2077555E+004  0.1043930E+01  0.7957747E-01            NaN
         13   -1    0    0    0    0  0.00000000000E+00  0.00000000000E+00  0.74505805969E-08  0.10566000000E+00  0.10566000000E+00 0.  1.
     999900   -1    0    0    0    0 -0.00000000000E+00 -0.00000000000E+00 -0.74505805969E-08  0.93827000000E+00  0.93827000000E+00 0. -1.
     999902    2    1    2    0    0  0.41693332056E-03  0.14354872682E-01 -0.13757105037E-01  0.10240429655E+01  0.10238498430E+01 0.  0.
     999903    2    3    3    0    0  0.30855846294E-01 -0.10591179203E+00 -0.61414903479E-01  0.13406439056E+00  0.45078592523E-01 0.  0.
         14    1    1    2    0    0 -0.41693332056E-03 -0.14354872682E-01  0.13757105037E-01  0.19887034523E-01  0.00000000000E+00 0.  1.
     999901    1    3    3    0    0 -0.30438912974E-01  0.12026666471E+00  0.47657798442E-01  0.88997857492E+00  0.88000000000E+00 0.  1.
        -11    1    4    4    0    0  0.11412492118E-01 -0.32067276296E-02 -0.16426463433E-01  0.20263708949E-01  0.51100000000E-03 0.  1.
         11    1    4    4    0    0  0.19443354176E-01 -0.10270506440E+00 -0.44988440046E-01  0.11380068161E+00  0.51100000000E-03 0. -1.
</event>
<event>
 8    1  0.2077555E+004  0.1043930E+01  0.7957747E-01            NaN
         13   -1    0    0    0    0  0.00000000000E+00  0.00000000000E+00  0.74505805969E-08  0.10566000000E+00  0.10566000000E+00 0.  1.
     999900   -1    0    0    0    0 -0.00000000000E+00 -0.00000000000E+00 -0.74505805969E-08  0.93827000000E+00  0.93827000000E+00 0.  1.
     999902    2    1    2    0    0  0.76780563281E-02  0.43735743656E-02  0.15562031331E-01  0.10260342597E+01  0.10258781821E+01 0.  0.
     999903    2    3    3    0    0  0.49595208377E-01 -0.11061439518E+00  0.45265655481E-01  0.13706767649E+00  0.45203310241E-01 0.  0.
         14    1    1    2    0    0 -0.76780563281E-02 -0.43735743656E-02 -0.15562031331E-01  0.17895740299E-01  0.00000000000E+00 0. -1.
     999901    1    3    3    0    0 -0.41917152048E-01  0.11498796955E+00 -0.29703624150E-01  0.88896658321E+00  0.88000000000E+00 0.  1.
        -11    1    4    4    0    0  0.22729614075E-01 -0.51373469120E-01 -0.27020020419E-02  0.56244383021E-01  0.51100000000E-03 0.  1.
         11    1    4    4    0    0  0.26865594302E-01 -0.59240926064E-01  0.47967657523E-01  0.80823293470E-01  0.51100000000E-03 0. -1.
</event>
<event>
 8    1  0.2077555E+004  0.1043930E+01  0.7957747E-01            NaN
         13   -1    0    0    0    0  0.00000000000E+00  0.00000000000E+00  0.74505805969E-08  0.10566000000E+00  0.10566000000E+00 0.  1.
     999900   -1    0    0    0    0 -0.00000000000E+00 -0.00000000000E+00 -0.74505805969E-08  0.93827000000E+00  0.93827000000E+00 0.  1.
     999902    2    1    2    0    0  0.40583321887E-02 -0.11192620895E-01 -0.73822030462E-02  0.10299213689E+01  0.10298260943E+01 0.  0.
     999903    2    3    3    0    0 -0.95980956123E-01 -0.75741874704E-01 -0.53028771914E-01  0.14073180836E+00  0.45213003795E-01 0.  0.
         14    1    1    2    0    0 -0.40583321887E-02  0.11192620895E-01  0.73822030462E-02  0.14008631070E-01  0.00000000000E+00 0.  1.
     999901    1    3    3    0    0  0.10003928831E+00  0.64549253809E-01  0.45646568868E-01  0.88918956057E+00  0.88000000000E+00 0. -1.
        -11    1    4    4    0    0 -0.47031847088E-01 -0.21276673808E-01 -0.42257527033E-01  0.66713201098E-01  0.51100000000E-03 0. -1.
         11    1    4    4    0    0 -0.48949109035E-01 -0.54465200896E-01 -0.10771244882E-01  0.74018607264E-01  0.51100000000E-03 0.  1.
</event>
<event>
 8    1  0.2077555E+004  0.1043930E+01  0.7957747E-01            NaN
         13   -1    0    0    0    0  0.00000000000E+00  0.00000000000E+00  0.74505805969E-08  0.10566000000E+00  0.10566000000E+00 0.  1.
     999900   -1    0    0    0    0 -0.00000000000E+00 -0.00000000000E+00 -0.74505805969E-08  0.93827000000E+00  0.93827000000E+00 0.  1.
     999902    2    1    2    0    0  0.13837212006E-01  0.29960025406E-02 -0.11187821306E-01  0.10258852830E+01  0.10257265727E+01 0.  0.
     999903    2    3    3    0    0 -0.34256881345E-01 -0.68707498564E-01 -0.10404427868E+00  0.13679768573E+00  0.44655801602E-01 0.  0.
         14    1    1    2    0    0 -0.13837212006E-01 -0.29960025406E-02  0.11187821306E-01  0.18044717036E-01  0.00000000000E+00 0.  1.
     999901    1    3    3    0    0  0.48094093351E-01  0.71703501105E-01  0.92856457369E-01  0.88908759724E+00  0.88000000000E+00 0. -1.
        -11    1    4    4    0    0 -0.32604265406E-01 -0.44913326733E-01 -0.97281218579E-01  0.11200063236E+00  0.51100000000E-03 0.  1.
         11    1    4    4    0    0 -0.16526159394E-02 -0.23794171832E-01 -0.67630600968E-02  0.24797053363E-01  0.51100000000E-03 0. -1.
</event>
<event>
 8    1  0.2077555E+004  0.1043930E+01  0.7957747E-01            NaN
         13   -1    0    0    0    0  0.00000000000E+00  0.00000000000E+00  0.74505805969E-08  0.10566000000E+00  0.10566000000E+00 0.  1.
     999900   -1    0    0    0    0 -0.00000000000E+00 -0.00000000000E+00 -0.74505805969E-08  0.93827000000E+00  0.93827000000E+00 0.  1.
     999902    2    1    2    0    0 -0.13904884657E-01  0.97855409282E-02 -0.37433619197E-02  0.10265197907E+01  0.10263721379E+01 0.  0.
     999903    2    3    3    0    0 -0.12835712049E+00 -0.45766329206E-02 -0.26770827900E-01  0.13869331527E+00  0.44974020569E-01 0.  0.
         14    1    1    2    0    0  0.13904884657E-01 -0.97855409282E-02  0.37433619197E-02  0.17410209277E-01  0.00000000000E+00 0.  1.
     999901    1    3    3    0    0  0.11445223583E+00  0.14362173849E-01  0.23027465980E-01  0.88782647545E+00  0.88000000000E+00 0. -1.
        -11    1    4    4    0    0 -0.92326738213E-01 -0.21315418724E-02  0.22213217349E-02  0.92379464445E-01  0.51100000000E-03 0. -1.
         11    1    4    4    0    0 -0.36030382273E-01 -0.24450910483E-02 -0.28992149635E-01  0.46313850827E-01  0.51100000000E-03 0.  1.
</event>
<event>
 8    1  0.2077555E+004  0.1043930E+01  0.7957747E-01            NaN
         13   -1    0    0    0    0  0.00000000000E+00  0.00000000000E+00  0.74505805969E-08  0.10566000000E+00  0.10566000000E+00 0. -1.
     999900   -1    0    0    0    0 -0.00000000000E+00 -0.00000000000E+00 -0.74505805969E-08  0.93827000000E+00  0.93827000000E+00 0.  1.
     999902    2    1    2    0    0 -0.39205252988E-02  0.10535230254E-01 -0.80183460058E-02  0.10301221954E+01  0.10300296510E+01 0.  0.
     999903    2    3    3    0    0  0.61597873865E-01  0.11441415385E+00  0.30146443919E-01  0.14077409562E+00  0.44984900269E-01 0.  0.
         14    1    1    2    0    0  0.39205252988E-02 -0.10535230254E-01  0.80183460058E-02  0.13807804597E-01  0.00000000000E+00 0. -1.
     999901    1    3    3    0    0 -0.65518399164E-01 -0.10387892359E+00 -0.38164789924E-01  0.88934809978E+00  0.88000000000E+00 0.  1.
        -11    1    4    4    0    0  0.43238290405E-01  0.98859849404E-01  0.39565930384E-01  0.11492842794E+00  0.51100000000E-03 0. -1.
         11    1    4    4    0    0  0.18359583460E-01  0.15554304442E-01 -0.94194864650E-02  0.25845667679E-01  0.51100000000E-03 0.  1.
</event>
<event>
 8    1  0.2077555E+004  0.1043930E+01  0.7957747E-01            NaN
         13   -1    0    0    0    0  0.00000000000E+00  0.00000000000E+00  0.74505805969E-08  0.10566000000E+00  0.10566000000E+00 0.  1.
     999900   -1    0    0    0    0 -0.00000000000E+00 -0.00000000000E+00 -0.74505805969E-08  0.93827000000E+00  0.93827000000E+00 0. -1.
     999902    2    1    2    0    0 -0.12587838997E-01 -0.47036262005E-02  0.38584983258E-02  0.10299490916E+01  0.10298541962E+01 0.  0.
     999903    2    3    3    0    0 -0.27218764896E-01  0.93401375423E-01 -0.89338311640E-01  0.13948612173E+00  0.44837106688E-01 0.  0.
         14    1    1    2    0    0  0.12587838997E-01  0.47036262005E-02 -0.38584983258E-02  0.13980908389E-01  0.00000000000E+00 0. -1.
     999901    1    3    3    0    0  0.14630925899E-01 -0.98105001624E-01  0.93196809965E-01  0.89046296988E+00  0.88000000000E+00 0.  1.
        -11    1    4    4    0    0  0.11211623506E-01  0.11211502732E-01 -0.18538111785E-01  0.24399200903E-01  0.51100000000E-03 0. -1.
         11    1    4    4    0    0 -0.38430388402E-01  0.82189872691E-01 -0.70800199854E-01  0.11508692083E+00  0.51100000000E-03 0.  1.
</event>
<event>
 8    1  0.2129879E+004  0.1043930E+01  0.7957747E-01            NaN
         13   -1    0    0    0    0  0.00000000000E+00  0.00000000000E+00  0.74505805969E-08  0.10566000000E+00  0.10566000000E+00 0.  1.
     999900   -1    0    0    0    0 -0.00000000000E+00 -0.00000000000E+00 -0.74505805969E-08  0.93827000000E+00  0.93827000000E+00 0. -1.
     999902    2    1    2    0    0 -0.19235205498E-02  0.29870689218E-02 -0.19822918898E-01  0.10237912159E+01  0.10235931238E+01 0.  0.
     999903    2    3    3    0    0  0.15161965585E-01  0.11328247370E+00  0.51427795493E-01  0.13388467334E+00  0.47090164139E-01 0.  0.
         14    1    1    2    0    0  0.19235205498E-02 -0.29870689218E-02  0.19822918898E-01  0.20138784116E-01  0.00000000000E+00 0.  1.
     999901    1    3    3    0    0 -0.17085486135E-01 -0.11029540478E+00 -0.71250714391E-01  0.88990654254E+00  0.88000000000E+00 0. -1.
        -11    1    4    4    0    0  0.81899297699E-02  0.28235302078E-01  0.37127850038E-01  0.47360802385E-01  0.51100000000E-03 0. -1.
         11    1    4    4    0    0  0.69720358153E-02  0.85047171626E-01  0.14299945454E-01  0.86523870960E-01  0.51100000000E-03 0.  1.
</event>
<event>
 8    1  0.2077555E+004  0.1043930E+01  0.7957747E-01            NaN
         13   -1    0    0    0    0  0.00000000000E+00  0.00000000000E+00  0.74505805969E-08  0.10566000000E+00  0.10566000000E+00 0. -1.
     999900   -1    0    0    0    0 -0.00000000000E+00 -0.00000000000E+00 -0.74505805969E-08  0.93827000000E+00  0.93827000000E+00 0. -1.
     999902    2    1    2    0    0 -0.12272337605E-01 -0.19316424385E-02 -0.63142236864E-02  0.10299940417E+01  0.10298997597E+01 0.  0.
     999903    2    3    3    0    0 -0.10242060392E+00  0.51811617927E-02 -0.87071468011E-01  0.14168157730E+00  0.44445520143E-01 0.  0.
         14    1    1    2    0    0  0.12272337605E-01  0.19316424385E-02  0.63142236864E-02  0.13935958293E-01  0.00000000000E+00 0.  1.
     999901    1    3    3    0    0  0.90148266315E-01 -0.71128042312E-02  0.80757244324E-01  0.88831246440E+00  0.88000000000E+00 0.  1.
        -11    1    4    4    0    0 -0.13872077592E-01 -0.57331634822E-02 -0.35696128225E-01  0.38726972403E-01  0.51100000000E-03 0. -1.
         11    1    4    4    0    0 -0.88548526328E-01  0.10914325275E-01 -0.51375339785E-01  0.10295460490E+00  0.51100000000E-03 0.  1.
</event>
<event>
 8    1  0.2077555E+004  0.1043930E+01  0.7957747E-01            NaN
         13   -1    0    0    0    0  0.00000000000E+00  0.00000000000E+00  0.74505805969E-08  0.10566000000E+00  0.10566000000E+00 0.  1.
     999900   -1    0    0    0    0 -0.00000000000E+00 -0.00000000000E+00 -0.74505805969E-08  0.93827000000E+00  0.93827000000E+00 0. -1.
     999902    2    1    2    0    0  0.10869123937E-01 -0.38258523844E-02 -0.10425599180E-01  0.10283907555E+01  0.10282733478E+01 0.  0.
     999903    2    3    3    0    0 -0.12132439281E+00 -0.33671523076E-01 -0.34440727612E-01  0.13769293001E+00  0.43815516639E-01 0.  0.
         14    1    1    2    0    0 -0.10869123937E-01  0.38258523844E-02  0.10425599180E-01  0.15539244508E-01  0.00000000000E+00 0.  1.
     999901    1    3    3    0    0  0.13219351675E+00  0.29845670691E-01  0.24015128432E-01  0.89069782548E+00  0.88000000000E+00 0. -1.
        -11    1    4    4    0    0 -0.97928237699E-01 -0.15731229058E-01 -0.41264598452E-01  0.10742643768E+00  0.51100000000E-03 0.  1.
         11    1    4    4    0    0 -0.23396155113E-01 -0.17940294018E-01  0.68238708399E-02  0.30266492326E-01  0.51100000000E-03 0. -1.
</event>
<event>
 8    1  0.2077555E+004  0.1043930E+01  0.7957747E-01            NaN
         13   -1    0    0    0    0  0.00000000000E+00  0.00000000000E+00  0.74505805969E-08  0.10566000000E+00  0.10566000000E+00 0.  1.
     999900   -1    0    0    0    0 -0.00000000000E+00 -0.00000000000E+00 -0.74505805969E-08  0.93827000000E+00  0.93827000000E+00 0. -1.
     999902    2    1    2    0    0  0.13059574177E-02 -0.13586557638E-01 -0.41489795873E-02  0.10296641630E+01  0.10295653328E+01 0.  0.
     999903    2    3    3    0    0 -0.84801712901E-01 -0.94193680250E-01 -0.41419965298E-01  0.14101284474E+00  0.45882773954E-01 0.  0.
         14    1    1    2    0    0 -0.13059574177E-02  0.13586557638E-01  0.41489795873E-02  0.14265836984E-01  0.00000000000E+00 0.  1.
     999901    1    3    3    0    0  0.86107670318E-01  0.80607122611E-01  0.37270985711E-01  0.88865131828E+00  0.88000000000E+00 0. -1.
        -11    1    4    4    0    0 -0.73985359694E-01 -0.50062366618E-01 -0.28582949454E-01  0.93794030306E-01  0.51100000000E-03 0.  1.
         11    1    4    4    0    0 -0.10816353206E-01 -0.44131313631E-01 -0.12837015844E-01  0.47218814431E-01  0.51100000000E-03 0. -1.
</event>
<event>
 8    1  0.2077555E+004  0.1043930E+01  0.7957747E-01            NaN
         13   -1    0    0    0    0  0.00000000000E+00  0.00000000000E+00  0.74505805969E-08  0.10566000000E+00  0.10566000000E+00 0. -1.
     999900   -1    0    0    0    0 -0.00000000000E+00 -0.00000000000E+00 -0.74505805969E-08  0.93827000000E+00  0.93827000000E+00 0.  1.
     999902    2    1    2    0    0  0.12448834878E-02  0.13147615260E-01 -0.61871437043E-02  0.10293460955E+01  0.10292427771E+01 0.  0.
     999903    2    3    3    0    0 -0.13355756423E-01 -0.27320150568E-02 -0.13204278892E+00  0.14013015733E+00  0.44892346250E-01 0.  0.
         14    1    1    2    0    0 -0.12448834878E-02 -0.13147615260E-01  0.61871437043E-02  0.14583904454E-01  0.00000000000E+00 0.  1.
     999901    1    3    3    0    0  0.14600639911E-01  0.15879630316E-01  0.12585564522E+00  0.88921593822E+00  0.88000000000E+00 0. -1.
        -11    1    4    4    0    0 -0.22875509985E-01 -0.17238526061E-01 -0.94926750504E-01  0.99155457843E-01  0.51100000000E-03 0. -1.
         11    1    4    4    0    0  0.95197535617E-02  0.14506511004E-01 -0.37116038415E-01  0.40974699487E-01  0.51100000000E-03 0.  1.
</event>
<event>
 8    1  0.2077555E+004  0.1043930E+01  0.7957747E-01            NaN
         13   -1    0    0    0    0  0.00000000000E+00  0.00000000000E+00  0.74505805969E-08  0.10566000000E+00  0.10566000000E+00 0.  1.
     999900   -1    0    0    0    0 -0.00000000000E+00 -0.00000000000E+00 -0.74505805969E-08  0.93827000000E+00  0.93827000000E+00 0. -1.
     999902    2    1    2    0    0 -0.30452492346E-02 -0.44212771068E-02  0.13205694192E-01  0.10296747696E+01  0.10295760873E+01 0.  0.
     999903    2    3    3    0    0  0.18110859238E-01  0.93799572593E-01  0.92564011308E-01  0.14040953430E+00  0.44948616143E-01 0.  0.
         14    1    1    2    0    0  0.30452492346E-02  0.44212771068E-02 -0.13205694192E-01  0.14255230382E-01  0.00000000000E+00 0. -1.
     999901    1    3    3    0    0 -0.21156108473E-01 -0.98220849700E-01 -0.79358317116E-01  0.88926523531E+00  0.88000000000E+00 0. -1.
        -11    1    4    4    0    0 -0.13662469132E-01  0.14141873384E-01  0.14473907927E-01  0.24421522829E-01  0.51100000000E-03 0.  1.
         11    1    4    4    0    0  0.31773328370E-01  0.79657699209E-01  0.78090103381E-01  0.11598801148E+00  0.51100000000E-03 0. -1.
</event>
<event>
 8    1  0.2077555E+004  0.1043930E+01  0.7957747E-01            NaN
         13   -1    0    0    0    0  0.00000000000E+00  0.00000000000E+00  0.74505805969E-08  0.10566000000E+00  0.10566000000E+00 0.  1.
     999900   -1    0    0    0    0 -0.00000000000E+00 -0.00000000000E+00 -0.74505805969E-08  0.93827000000E+00  0.93827000000E+00 0.  1.
     999902    2    1    2    0    0  0.64314049102E-02  0.11294713145E-01  0.37566605459E-02  0.10304005502E+01  0.10303117236E+01 0.  0.
     999903    2    3    3    0    0  0.12084415545E+00 -0.59745333054E-01 -0.14109610126E-01  0.13997583731E+00  0.34947663788E-01 0.  0.
         14    1    1    2    0    0 -0.64314049102E-02 -0.11294713145E-01 -0.37566605459E-02  0.13529449826E-01  0.00000000000E+00 0.  1.
     999901    1    3    3    0    0 -0.11441275054E+00  0.71040046199E-01  0.17866270671E-01  0.89042471286E+00  0.88000000000E+00 0. -1.
        -11    1    4    4    0    0  0.55751490286E-01 -0.45615054640E-01 -0.13898786756E-01  0.73364836763E-01  0.51100000000E-03 0.  1.
         11    1    4    4    0    0  0.65092665166E-01 -0.14130278414E-01 -0.21082336964E-03  0.66611000547E-01  0.51100000000E-03 0. -1.
</event>
<event>
 7    1  0.2077555E+004  0.1043930E+01  0.7957747E-01            NaN
         13   -1    0    0    0    0  0.00000000000E+00  0.00000000000E+00  0.74505805969E-08  0.10566000000E+00  0.10566000000E+00 0.  1.
     999900   -1    0    0    0    0 -0.00000000000E+00 -0.00000000000E+00 -0.74505805969E-08  0.93827000000E+00  0.93827000000E+00 0.  1.
     999903    2    1    2    0    0 -0.10652845060E+00  0.15784298478E-01  0.32071156818E-01  0.12088127003E+00  0.44567560838E-01 0.  0.
         14    1    1    2    0    0  0.88544676139E-02  0.31518221328E-01  0.13029284818E-01  0.35235807572E-01  0.00000000000E+00 0.  1.
     999901    1    1    2    0    0  0.97673982990E-01 -0.47302519805E-01 -0.45100441636E-01  0.88781292239E+00  0.88000000000E+00 0. -1.
        -11    1    3    3    0    0 -0.79756821819E-01 -0.20237897539E-02  0.69720127888E-02  0.80088179121E-01  0.51100000000E-03 0. -1.
         11    1    3    3    0    0 -0.26771628785E-01  0.17808088232E-01  0.25099144029E-01  0.40793090913E-01  0.51100000000E-03 0.  1.
</event>
<event>
 8    1  0.2077555E+004  0.1043930E+01  0.7957747E-01            NaN
         13   -1    0    0    0    0  0.00000000000E+00  0.00000000000E+00  0.74505805969E-08  0.10566000000E+00  0.10566000000E+00 0.  1.
     999900   -1    0    0    0    0 -0.00000000000E+00 -0.00000000000E+00 -0.74505805969E-08  0.93827000000E+00  0.93827000000E+00 0.  1.
     999902    2    1    2    0    0 -0.78557373926E-03 -0.13156394706E-01  0.42330512942E-02  0.10300870751E+01  0.10299940561E+01 0.  0.
     999903    2    3    3    0    0  0.73954305416E-02  0.70822629739E-02 -0.13157635204E+00  0.13940153788E+00  0.44895450854E-01 0.  0.
         14    1    1    2    0    0  0.78557373926E-03  0.13156394706E-01 -0.42330512942E-02  0.13842924944E-01  0.00000000000E+00 0. -1.
     999901    1    3    3    0    0 -0.81810042808E-02 -0.20238657680E-01  0.13580940333E+00  0.89068553717E+00  0.88000000000E+00 0. -1.
        -11    1    4    4    0    0 -0.31802680587E-02  0.24887818482E-01 -0.64979822964E-01  0.69657419757E-01  0.51100000000E-03 0. -1.
         11    1    4    4    0    0  0.10575698600E-01 -0.17805555508E-01 -0.66596529072E-01  0.69744118126E-01  0.51100000000E-03 0.  1.
</event>
<event>
 8    1  0.2077555E+004  0.1043930E+01  0.7957747E-01            NaN
         13   -1    0    0    0    0  0.00000000000E+00  0.00000000000E+00  0.74505805969E-08  0.10566000000E+00  0.10566000000E+00 0. -1.
     999900   -1    0    0    0    0 -0.00000000000E+00 -0.00000000000E+00 -0.74505805969E-08  0.93827000000E+00  0.93827000000E+00 0. -1.
     999902    2    1    2    0    0  0.15315758696E-03  0.13444810276E-01 -0.57835832081E-02  0.10292931897E+01  0.10291891149E+01 0.  0.
     999903    2    3    3    0    0 -0.76096646289E-01 -0.13190288605E-01 -0.10731456194E+00  0.13978096342E+00  0.45360988078E-01 0.  0.
         14    1    1    2    0    0 -0.15315758696E-03 -0.13444810276E-01  0.57835832081E-02  0.14636810286E-01  0.00000000000E+00 0.  1.
     999901    1    3    3    0    0  0.76249803876E-01  0.26635098882E-01  0.10153097874E+00  0.88951222629E+00  0.88000000000E+00 0. -1.
        -11    1    4    4    0    0 -0.67851126494E-01 -0.53210557086E-02 -0.58801275324E-01  0.89944094309E-01  0.51100000000E-03 0.  1.
         11    1    4    4    0    0 -0.82455197953E-02 -0.78692328969E-02 -0.48513286621E-01  0.49836869111E-01  0.51100000000E-03 0. -1.
</event>
<event>
 7    1  0.2229532E+004  0.1043930E+01  0.7957747E-01            NaN
         13   -1    0    0    0    0  0.00000000000E+00  0.00000000000E+00  0.74505805969E-08  0.10566000000E+00  0.10566000000E+00 0. -1.
     999900   -1    0    0    0    0 -0.00000000000E+00 -0.00000000000E+00 -0.74505805969E-08  0.93827000000E+00  0.93827000000E+00 0. -1.
     999903    2    1    2    0    0  0.66292613609E-01  0.79440512223E-01 -0.34261354994E-01  0.11786718955E+00  0.44870127324E-01 0.  0.
         14    1    1    2    0    0  0.18776660264E-01 -0.25466467494E-01 -0.21988152043E-01  0.38530283772E-01  0.00000000000E+00 0.  1.
     999901    1    1    2    0    0 -0.85069273873E-01 -0.53974044729E-01  0.56249507037E-01  0.88753252667E+00  0.88000000000E+00 0. -1.
        -11    1    3    3    0    0  0.16596965589E-01  0.11590482005E-01  0.10265377584E-01  0.22703251702E-01  0.51100000000E-03 0.  1.
         11    1    3    3    0    0  0.49695648020E-01  0.67850030217E-01 -0.44526732577E-01  0.95163937853E-01  0.51100000000E-03 0. -1.
</event>
<event>
 8    1  0.2077555E+004  0.1043930E+01  0.7957747E-01            NaN
         13   -1    0    0    0    0  0.00000000000E+00  0.00000000000E+00  0.74505805969E-08  0.10566000000E+00  0.10566000000E+00 0.  1.
     999900   -1    0    0    0    0 -0.00000000000E+00 -0.00000000000E+00 -0.74505805969E-08  0.93827000000E+00  0.93827000000E+00 0.  1.
     999902    2    1    2    0    0 -0.12187439165E-01 -0.64860599088E-02  0.27685217065E-02  0.10298492557E+01  0.10297529909E+01 0.  0.
     999903    2    3    3    0    0 -0.51441712050E-01  0.28623052131E-01  0.11949652226E+00  0.14058046971E+00  0.44921273138E-01 0.  0.
         14    1    1    2    0    0  0.12187439165E-01  0.64860599088E-02 -0.27685217065E-02  0.14080744263E-01  0.00000000000E+00 0.  1.
     999901    1    3    3    0    0  0.39254272885E-01 -0.35109112040E-01 -0.11672800055E+00  0.88926878603E+00  0.88000000000E+00 0.  1.
        -11    1    4    4    0    0 -0.63409118566E-02 -0.35484634362E-02  0.55324383592E-01  0.55801857467E-01  0.51100000000E-03 0.  1.
         11    1    4    4    0    0 -0.45100800193E-01  0.32171515568E-01  0.64172138667E-01  0.84778612244E-01  0.51100000000E-03 0. -1.
</event>
<event>
 8    1  0.2077555E+004  0.1043930E+01  0.7957747E-01            NaN
         13   -1    0    0    0    0  0.00000000000E+00  0.00000000000E+00  0.74505805969E-08  0.10566000000E+00  0.10566000000E+00 0.  1.
     999900   -1    0    0    0    0 -0.00000000000E+00 -0.00000000000E+00 -0.74505805969E-08  0.93827000000E+00  0.93827000000E+00 0. -1.
     999902    2    1    2    0    0  0.45452497896E-02 -0.36557768132E-02  0.11531703161E-01  0.10310069904E+01  0.10309259964E+01 0.  0.
     999903    2    3    3    0    0 -0.10854579522E+00  0.47264203019E-01 -0.58444605234E-01  0.13955922829E+00  0.45220700704E-01 0.  0.
         14    1    1    2    0    0 -0.45452497896E-02  0.36557768132E-02 -0.11531703161E-01  0.12923009617E-01  0.00000000000E+00 0. -1.
     999901    1    3    3    0    0  0.11309104501E+00 -0.50919979832E-01  0.69976308395E-01  0.89144776210E+00  0.88000000000E+00 0.  1.
        -11    1    4    4    0    0 -0.18769657278E-01  0.11810667588E-01 -0.32956397488E-01  0.39726277948E-01  0.51100000000E-03 0.  1.
         11    1    4    4    0    0 -0.89776137943E-01  0.35453535431E-01 -0.25488207746E-01  0.99832950340E-01  0.51100000000E-03 0. -1.
</event>
<event>
 8    1  0.2077555E+004  0.1043930E+01  0.7957747E-01            NaN
         13   -1    0    0    0    0  0.00000000000E+00  0.00000000000E+00  0.74505805969E-08  0.10566000000E+00  0.10566000000E+00 0.  1.
     999900   -1    0    0    0    0 -0.00000000000E+00 -0.00000000000E+00 -0.74505805969E-08  0.93827000000E+00  0.93827000000E+00 0. -1.
     999902    2    1    2    0    0  0.84075094299E-02 -0.10645402490E-01  0.37049411820E-02  0.10298680870E+01  0.10297720812E+01 0.  0.
     999903    2    3    3    0    0  0.78054070657E-01 -0.20126134078E-01  0.10644085176E+00  0.14110760456E+00  0.45653060389E-01 0.  0.
         14    1    1    2    0    0 -0.84075094299E-02  0.10645402490E-01 -0.37049411820E-02  0.14061913033E-01  0.00000000000E+00 0.  1.
     999901    1    3    3    0    0 -0.69646561227E-01  0.94807315883E-02 -0.10273591058E+00  0.88876048240E+00  0.88000000000E+00 0. -1.
        -11    1    4    4    0    0  0.49546031078E-01 -0.29918719575E-01  0.89330416822E-01  0.10644305270E+00  0.51100000000E-03 0. -1.
         11    1    4    4    0    0  0.28508039578E-01  0.97925854968E-02  0.17110434938E-01  0.34664551866E-01  0.51100000000E-03 0.  1.
</event>
<event>
 8    1  0.2077555E+004  0.1043930E+01  0.7957747E-01            NaN
         13   -1    0    0    0    0  0.00000000000E+00  0.00000000000E+00  0.74505805969E-08  0.10566000000E+00  0.10566000000E+00 0.  1.
     999900   -1    0    0    0    0 -0.00000000000E+00 -0.00000000000E+00 -0.74505805969E-08  0.93827000000E+00  0.93827000000E+00 0.  1.
     999902    2    1    2    0    0 -0.31135010594E-03 -0.10651429700E-01 -0.86137914439E-02  0.10302279090E+01  0.10301367857E+01 0.  0.
     999903    2    3    3    0    0 -0.49288876767E-01  0.12186040649E+00 -0.19172235595E-02  0.13893501169E+00  0.44943405360E-01 0.  0.
         14    1    1    2    0    0  0.31135010594E-03  0.10651429700E-01  0.86137914439E-02  0.13702090957E-01  0.00000000000E+00 0.  1.
     999901    1    3    3    0    0  0.48977526661E-01 -0.13251183619E+00 -0.66965678844E-02  0.89129289735E+00  0.88000000000E+00 0. -1.
        -11    1    4    4    0    0 -0.55136126783E-02  0.14110608931E-01  0.15096630048E-01  0.21393423498E-01  0.51100000000E-03 0. -1.
         11    1    4    4    0    0 -0.43775264089E-01  0.10774979756E+00 -0.17013853607E-01  0.11754158819E+00  0.51100000000E-03 0.  1.
</event>
<event>
 8    1  0.2077555E+004  0.1043930E+01  0.7957747E-01            NaN
         13   -1    0    0    0    0  0.00000000000E+00  0.00000000000E+00  0.74505805969E-08  0.10566000000E+00  0.10566000000E+00 0. -1.
     999900   -1    0    0    0    0 -0.00000000000E+00 -0.00000000000E+00 -0.74505805969E-08  0.93827000000E+00  0.93827000000E+00 0.  1.
     999902    2    1    2    0    0 -0.82219719669E-02 -0.44245813374E-03  0.13829070013E-01  0.10278352875E+01  0.10277092675E+01 0.  0.
     999903    2    3    3    0    0  0.12546997862E+00 -0.27712872055E-01 -0.13185866795E-01  0.13691047592E+00  0.45386038817E-01 0.  0.
         14    1    1    2    0    0  0.82219719669E-02  0.44245813374E-03 -0.13829070013E-01  0.16094712475E-01  0.00000000000E+00 0.  1.
     999901    1    3    3    0    0 -0.13369195059E+00  0.27270413922E-01  0.27014936809E-01  0.89092481161E+00  0.88000000000E+00 0.  1.
        -11    1    4    4    0    0  0.30810185600E-01  0.12524729111E-01 -0.60206627143E-02  0.33803045373E-01  0.51100000000E-03 0. -1.
         11    1    4    4    0    0  0.94659793023E-01 -0.40237601166E-01 -0.71652040810E-02  0.10310743054E+00  0.51100000000E-03 0.  1.
</event>
<event>
 8    1  0.2077555E+004  0.1043930E+01  0.7957747E-01            NaN
         13   -1    0    0    0    0  0.00000000000E+00  0.00000000000E+00  0.74505805969E-08  0.10566000000E+00  0.10566000000E+00 0.  1.
     999900   -1    0    0    0    0 -0.00000000000E+00 -0.00000000000E+00 -0.74505805969E-08  0.93827000000E+00  0.93827000000E+00 0. -1.
     999902    2    1    2    0    0 -0.72905062162E-02  0.15691996937E-01 -0.27205255646E-02  0.10264145352E+01  0.10262650761E+01 0.  0.
     999903    2    3    3    0    0  0.11762902621E+00  0.11234703530E-01 -0.51208893830E-01  0.13625956052E+00  0.44514162416E-01 0.  0.
         14    1    1    2    0    0  0.72905062162E-02 -0.15691996937E-01  0.27205255646E-02  0.17515464827E-01  0.00000000000E+00 0. -1.
     999901    1    3    3    0    0 -0.12491953242E+00  0.44572934070E-02  0.48488368266E-01  0.89015497465E+00  0.88000000000E+00 0.  1.
        -11    1    4    4    0    0  0.73590969445E-01  0.27739172659E-01 -0.25606636652E-01  0.82710661013E-01  0.51100000000E-03 0.  1.
         11    1    4    4    0    0  0.44038056762E-01 -0.16504469129E-01 -0.25602257179E-01  0.53548899505E-01  0.51100000000E-03 0. -1.
</event>
<event>
 8    1  0.2077555E+004  0.1043930E+01  0.7957747E-01            NaN
         13   -1    0    0    0    0  0.00000000000E+00  0.00000000000E+00  0.74505805969E-08  0.10566000000E+00  0.10566000000E+00 0. -1.
     999900   -1    0    0    0    0 -0.00000000000E+00 -0.00000000000E+00 -0.74505805969E-08  0.93827000000E+00  0.93827000000E+00 0.  1.
     999902    2    1    2    0    0 -0.10024049169E-01  0.38893576687E-02 -0.10148725133E-01  0.10291446936E+01  0.10290384808E+01 0.  0.
     999903    2    3    3    0    0  0.12830615918E+00 -0.17219133753E-01 -0.25940489664E-01  0.13794875843E+00  0.39974765771E-01 0.  0.
         14    1    1    2    0    0  0.10024049169E-01 -0.38893576687E-02  0.10148725133E-01  0.14785306444E-01  0.00000000000E+00 0. -1.
     999901    1    3    3    0    0 -0.13833020835E+00  0.21108491422E-01  0.15791764531E-01  0.89119593512E+00  0.88000000000E+00 0. -1.
        -11    1    4    4    0    0  0.78070040312E-01 -0.17160935763E-01 -0.34363410875E-01  0.87008815867E-01  0.51100000000E-03 0. -1.
         11    1    4    4    0    0  0.50236118868E-01 -0.58197989836E-04  0.84229212108E-02  0.50939942566E-01  0.51100000000E-03 0.  1.
</event>
<event>
 8    1  0.2077555E+004  0.1043930E+01  0.7957747E-01            NaN
         13   -1    0    0    0    0  0.00000000000E+00  0.00000000000E+00  0.74505805969E-08  0.10566000000E+00  0.10566000000E+00 0. -1.
     999900   -1    0    0    0    0 -0.00000000000E+00 -0.00000000000E+00 -0.74505805969E-08  0.93827000000E+00  0.93827000000E+00 0. -1.
     999902    2    1    2    0    0  0.40714017912E-02 -0.97293952566E-03  0.12106774303E-01  0.10311199685E+01  0.10310403932E+01 0.  0.
     999903    2    3    3    0    0  0.10458398952E+00 -0.80036632060E-01 -0.25180723068E-01  0.14109513441E+00  0.43932844274E-01 0.  0.
         14    1    1    2    0    0 -0.40714017912E-02  0.97293952566E-03 -0.12106774303E-01  0.12810031533E-01  0.00000000000E+00 0.  1.
     999901    1    3    3    0    0 -0.10051258773E+00  0.79063692534E-01  0.37287497371E-01  0.89002483405E+00  0.88000000000E+00 0.  1.
        -11    1    4    4    0    0  0.47881680416E-01 -0.57339527842E-01  0.82993678446E-03  0.74708946510E-01  0.51100000000E-03 0. -1.
         11    1    4    4    0    0  0.56702309104E-01 -0.22697104218E-01 -0.26010659853E-01  0.66386187905E-01  0.51100000000E-03 0.  1.
</event>
<event>
 8    1  0.2077555E+004  0.1043930E+01  0.7957747E-01            NaN
         13   -1    0    0    0    0  0.00000000000E+00  0.00000000000E+00  0.74505805969E-08  0.10566000000E+00  0.10566000000E+00 0. -1.
     999900   -1    0    0    0    0 -0.00000000000E+00 -0.00000000000E+00 -0.74505805969E-08  0.93827000000E+00  0.93827000000E+00 0.  1.
     999902    2    1    2    0    0  0.11227123107E-01  0.13231384110E-02 -0.77663021939E-02  0.10302145183E+01  0.10301232156E+01 0.  0.
     999903    2    3    3    0    0 -0.33158934292E-01 -0.12301309872E+00  0.42528946726E-01  0.13894618944E+00  0.35575200217E-01 0.  0.
         14    1    1    2    0    0 -0.11227123107E-01 -0.13231384110E-02  0.77663021939E-02  0.13715481701E-01  0.00000000000E+00 0.  1.
     999901    1    3    3    0    0  0.44386057399E-01  0.12433623713E+00 -0.50295248920E-01  0.89126832886E+00  0.88000000000E+00 0.  1.
        -11    1    4    4    0    0  0.88727966205E-03 -0.45515903033E-01  0.32902535505E-02  0.45646156284E-01  0.51100000000E-03 0. -1.
         11    1    4    4    0    0 -0.34046213954E-01 -0.77497195690E-01  0.39238693176E-01  0.93300033160E-01  0.51100000000E-03 0.  1.
</event>
<event>
 8    1  0.2077555E+004  0.1043930E+01  0.7957747E-01            NaN
         13   -1    0    0    0    0  0.00000000000E+00  0.00000000000E+00  0.74505805969E-08  0.10566000000E+00  0.10566000000E+00 0. -1.
     999900   -1    0    0    0    0 -0.00000000000E+00 -0.00000000000E+00 -0.74505805969E-08  0.93827000000E+00  0.93827000000E+00 0.  1.
     999902    2    1    2    0    0 -0.68660235256E-02  0.10929084107E-01  0.50930797291E-02  0.10300546038E+01  0.10299611450E+01 0.  0.
     999903    2    3    3    0    0  0.93696380482E-01 -0.68552902201E-01  0.62047102511E-01  0.13894633656E+00  0.44471669596E-01 0.  0.
         14    1    1    2    0    0  0.68660235256E-02 -0.10929084107E-01 -0.50930797291E-02  0.13875396196E-01  0.00000000000E+00 0.  1.
     999901    1    3    3    0    0 -0.10056240401E+00  0.79481986308E-01 -0.56954022782E-01  0.89110826725E+00  0.88000000000E+00 0.  1.
        -11    1    4    4    0    0  0.70075091403E-01 -0.26588337213E-01  0.47098123018E-01  0.88520915176E-01  0.51100000000E-03 0.  1.
         11    1    4    4    0    0  0.23621289079E-01 -0.41964564988E-01  0.14948979493E-01  0.50425421379E-01  0.51100000000E-03 0. -1.
</event>
<event>
 8    1  0.2077555E+004  0.1043930E+01  0.7957747E-01            NaN
         13   -1    0    0    0    0  0.00000000000E+00  0.00000000000E+00  0.74505805969E-08  0.10566000000E+00  0.10566000000E+00 0. -1.
     999900   -1    0    0    0    0 -0.00000000000E+00 -0.00000000000E+00 -0.74505805969E-08  0.93827000000E+00  0.93827000000E+00 0. -1.
     999902    2    1    2    0    0  0.71057789560E-03 -0.88012624036E-02  0.10415910104E-01  0.10302750257E+01  0.10301845321E+01 0.  0.
     999903    2    3    3    0    0 -0.66480316316E-01  0.36951545799E-01  0.10990944906E+00  0.14094555915E+00  0.44727110962E-01 0.  0.
         14    1    1    2    0    0 -0.71057789560E-03  0.88012624036E-02 -0.10415910104E-01  0.13654974336E-01  0.00000000000E+00 0.  1.
     999901    1    3    3    0    0  0.67190894212E-01 -0.45752808202E-01 -0.99493538959E-01  0.88932946652E+00  0.88000000000E+00 0. -1.
        -11    1    4    4    0    0 -0.19767792359E-01  0.20323646356E-01  0.11212804902E-01  0.30492693071E-01  0.51100000000E-03 0.  1.
         11    1    4    4    0    0 -0.46712523957E-01  0.16627899443E-01  0.98696644161E-01  0.11045286607E+00  0.51100000000E-03 0. -1.
</event>
<event>
 8    1  0.2077555E+004  0.1043930E+01  0.7957747E-01            NaN
         13   -1    0    0    0    0  0.00000000000E+00  0.00000000000E+00  0.74505805969E-08  0.10566000000E+00  0.10566000000E+00 0. -1.
     999900   -1    0    0    0    0 -0.00000000000E+00 -0.00000000000E+00 -0.74505805969E-08  0.93827000000E+00  0.93827000000E+00 0. -1.
     999902    2    1    2    0    0  0.57321691028E-02  0.40370272405E-02 -0.10024304069E-01  0.10316971743E+01  0.10316246495E+01 0.  0.
     999903    2    3    3    0    0 -0.81187396974E-01  0.41925550793E-01  0.96300544291E-01  0.14024020703E+00  0.45214771933E-01 0.  0.
         14    1    1    2    0    0 -0.57321691028E-02 -0.40370272405E-02  0.10024304069E-01  0.12232825660E-01  0.00000000000E+00 0. -1.
     999901    1    3    3    0    0  0.86919566077E-01 -0.37888523553E-01 -0.10632484836E+00  0.89145696731E+00  0.88000000000E+00 0. -1.
        -11    1    4    4    0    0 -0.42718484233E-01 -0.20854731413E-02  0.49017101018E-01  0.65055018305E-01  0.51100000000E-03 0. -1.
         11    1    4    4    0    0 -0.38468912741E-01  0.44011023934E-01  0.47283443273E-01  0.75185188727E-01  0.51100000000E-03 0.  1.
</event>
<event>
 8    1  0.2077555E+004  0.1043930E+01  0.7957747E-01            NaN
         13   -1    0    0    0    0  0.00000000000E+00  0.00000000000E+00  0.74505805969E-08  0.10566000000E+00  0.10566000000E+00 0. -1.
     999900   -1    0    0    0    0 -0.00000000000E+00 -0.00000000000E+00 -0.74505805969E-08  0.93827000000E+00  0.93827000000E+00 0.  1.
     999902    2    1    2    0    0  0.16468479309E-02 -0.61312013973E-02  0.11644625913E-01  0.10306672306E+01  0.10305818935E+01 0.  0.
     999903    2    3    3    0    0  0.10629641533E-01 -0.66871446857E-01  0.11891016547E+00  0.14203009210E+00  0.38054433737E-01 0.  0.
         14    1    1    2    0    0 -0.16468479309E-02  0.61312013973E-02 -0.11644625913E-01  0.13262769369E-01  0.00000000000E+00 0.  1.
     999901    1    3    3    0    0 -0.89827936025E-02  0.60740245460E-01 -0.10726553955E+00  0.88863713853E+00  0.88000000000E+00 0.  1.
        -11    1    4    4    0    0  0.23664810558E-01 -0.35953156877E-01  0.78269738023E-01  0.89325616479E-01  0.51100000000E-03 0. -1.
         11    1    4    4    0    0 -0.13035169025E-01 -0.30918289981E-01  0.40640427444E-01  0.52704475623E-01  0.51100000000E-03 0.  1.
</event>
<event>
 8    1  0.2077555E+004  0.1043930E+01  0.7957747E-01            NaN
         13   -1    0    0    0    0  0.00000000000E+00  0.00000000000E+00  0.74505805969E-08  0.10566000000E+00  0.10566000000E+00 0. -1.
     999900   -1    0    0    0    0 -0.00000000000E+00 -0.00000000000E+00 -0.74505805969E-08  0.93827000000E+00  0.93827000000E+00 0.  1.
     999902    2    1    2    0    0 -0.84040709856E-02 -0.97087746414E-02  0.63552589046E-02  0.10296024730E+01  0.10295027802E+01 0.  0.
     999903    2    3    3    0    0 -0.92649583248E-02 -0.28875620994E-01 -0.12780938113E+00  0.13922712532E+00  0.46144485912E-01 0.  0.
         14    1    1    2    0    0  0.84040709856E-02  0.97087746414E-02 -0.63552589046E-02  0.14327526999E-01  0.00000000000E+00 0.  1.
     999901    1    3    3    0    0  0.86088733914E-03  0.19166846352E-01  0.13416464003E+00  0.89037534768E+00  0.88000000000E+00 0. -1.
        -11    1    4    4    0    0 -0.22037584822E-01 -0.34529439596E-01 -0.88939814793E-01  0.97920830879E-01  0.51100000000E-03 0.  1.
         11    1    4    4    0    0  0.12772626497E-01  0.56538186021E-02 -0.38869566333E-01  0.41306294440E-01  0.51100000000E-03 0. -1.
</event>
<event>
 8    1  0.2077555E+004  0.1043930E+01  0.7957747E-01            NaN
         13   -1    0    0    0    0  0.00000000000E+00  0.00000000000E+00  0.74505805969E-08  0.10566000000E+00  0.10566000000E+00 0. -1.
     999900   -1    0    0    0    0 -0.00000000000E+00 -0.00000000000E+00 -0.74505805969E-08  0.93827000000E+00  0.93827000000E+00 0.  1.
     999902    2    1    2    0    0  0.10357801382E-01 -0.13832795366E-02  0.81529400408E-02  0.10306760216E+01  0.10305907983E+01 0.  0.
     999903    2    3    3    0    0 -0.41557887864E-01  0.10371543730E+00 -0.70667654890E-01  0.13941081683E+00  0.44243738822E-01 0.  0.
         14    1    1    2    0    0 -0.10357801382E-01  0.13832795366E-02 -0.81529400408E-02  0.13253978386E-01  0.00000000000E+00 0.  1.
     999901    1    3    3    0    0  0.51915689246E-01 -0.10509871683E+00  0.78820594930E-01  0.89126520478E+00  0.88000000000E+00 0. -1.
        -11    1    4    4    0    0 -0.94586868101E-03  0.26138960060E-01 -0.37608491105E-01  0.45812657910E-01  0.51100000000E-03 0. -1.
         11    1    4    4    0    0 -0.40612019183E-01  0.77576477236E-01 -0.33059163785E-01  0.93598158922E-01  0.51100000000E-03 0.  1.
</event>
<event>
 8    1  0.2151459E+004  0.1043930E+01  0.7957747E-01            NaN
         13   -1    0    0    0    0  0.00000000000E+00  0.00000000000E+00  0.74505805969E-08  0.10566000000E+00  0.10566000000E+00 0. -1.
     999900   -1    0    0    0    0 -0.00000000000E+00 -0.00000000000E+00 -0.74505805969E-08  0.93827000000E+00  0.93827000000E+00 0. -1.
     999902    2    1    2    0    0 -0.77413514979E-02  0.11162494596E-01 -0.22145469799E-02  0.10301664966E+01  0.10300745491E+01 0.  0.
     999903    2    3    3    0    0 -0.23381669724E-01 -0.45566333907E-01 -0.12268283928E+00  0.14001179709E+00  0.43923012247E-01 0.  0.
         14    1    1    2    0    0  0.77413514979E-02 -0.11162494596E-01  0.22145469799E-02  0.13763503440E-01  0.00000000000E+00 0. -1.
     999901    1    3    3    0    0  0.15640318226E-01  0.56728828502E-01  0.12046829230E+00  0.89015469947E+00  0.88000000000E+00 0.  1.
        -11    1    4    4    0    0  0.95819520369E-02 -0.24915911927E-01 -0.34461231852E-01  0.43594197937E-01  0.51100000000E-03 0.  1.
         11    1    4    4    0    0 -0.32963621761E-01 -0.20650421979E-01 -0.88221607433E-01  0.96417599154E-01  0.51100000000E-03 0. -1.
</event>
<event>
 8    1  0.2077555E+004  0.1043930E+01  0.7957747E-01            NaN
         13   -1    0    0    0    0  0.00000000000E+00  0.00000000000E+00  0.74505805969E-08  0.10566000000E+00  0.10566000000E+00 0.  1.
     999900   -1    0    0    0    0 -0.00000000000E+00 -0.00000000000E+00 -0.74505805969E-08  0.93827000000E+00  0.93827000000E+00 0.  1.
     999902    2    1    2    0    0  0.64938356758E-03  0.29328080273E-02  0.13659143907E-01  0.10299444620E+01  0.10298495033E+01 0.  0.
     999903    2    3    3    0    0 -0.10269492837E+00 -0.43887985905E-01 -0.69056425708E-01  0.13881366404E+00  0.45033762587E-01 0.  0.
         14    1    1    2    0    0 -0.64938356758E-03 -0.29328080273E-02 -0.13659143907E-01  0.13985538038E-01  0.00000000000E+00 0. -1.
     999901    1    3    3    0    0  0.10334431194E+00  0.46820793932E-01  0.82715569614E-01  0.89113079792E+00  0.88000000000E+00 0. -1.
        -11    1    4    4    0    0 -0.52074681614E-01 -0.85966608497E-02 -0.53539448284E-01  0.75182502529E-01  0.51100000000E-03 0.  1.
         11    1    4    4    0    0 -0.50620246754E-01 -0.35291325055E-01 -0.15516977424E-01  0.63631161508E-01  0.51100000000E-03 0. -1.
</event>
<event>
 8    1  0.2077555E+004  0.1043930E+01  0.7957747E-01            NaN
         13   -1    0    0    0    0  0.00000000000E+00  0.00000000000E+00  0.74505805969E-08  0.10566000000E+00  0.10566000000E+00 0.  1.
     999900   -1    0    0    0    0 -0.00000000000E+00 -0.00000000000E+00 -0.74505805969E-08  0.93827000000E+00  0.93827000000E+00 0. -1.
     999902    2    1    2    0    0 -0.12069589568E-01 -0.40644683851E-02  0.87744583506E-02  0.10284643602E+01  0.10283480705E+01 0.  0.
     999903    2    3    3    0    0 -0.10099397413E+00 -0.17904567929E-01 -0.81742836839E-01  0.13925545601E+00  0.46795665317E-01 0.  0.
         14    1    1    2    0    0  0.12069589568E-01  0.40644683851E-02 -0.87744583506E-02  0.15465639817E-01  0.00000000000E+00 0. -1.
     999901    1    3    3    0    0  0.88924384560E-01  0.13840099543E-01  0.90517295189E-01  0.88920890417E+00  0.88000000000E+00 0.  1.
        -11    1    4    4    0    0 -0.47145598603E-01 -0.26315163294E-01 -0.59611258667E-01  0.80429836303E-01  0.51100000000E-03 0. -1.
         11    1    4    4    0    0 -0.53848375525E-01  0.84105953658E-02 -0.22131578172E-01  0.58825619711E-01  0.51100000000E-03 0.  1.
</event>
<event>
 8    1  0.2077555E+004  0.1043930E+01  0.7957747E-01            NaN
         13   -1    0    0    0    0  0.00000000000E+00  0.00000000000E+00  0.74505805969E-08  0.10566000000E+00  0.10566000000E+00 0. -1.
     999900   -1    0    0    0    0 -0.00000000000E+00 -0.00000000000E+00 -0.74505805969E-08  0.93827000000E+00  0.93827000000E+00 0.  1.
     999902    2    1    2    0    0 -0.12854037801E-01  0.17213576642E-02  0.21027205148E-02  0.10307918573E+01  0.10307081266E+01 0.  0.
     999903    2    3    3    0    0 -0.12162557224E+00  0.23994055049E-01 -0.52603789504E-01  0.14212987320E+00  0.45444996269E-01 0.  0.
         14    1    1    2    0    0  0.12854037801E-01 -0.17213576642E-02 -0.21027205148E-02  0.13138142698E-01  0.00000000000E+00 0.  1.
     999901    1    3    3    0    0  0.10877153444E+00 -0.22272697385E-01  0.54706510019E-01  0.88866198410E+00  0.88000000000E+00 0. -1.
        -11    1    4    4    0    0 -0.33634452857E-01 -0.20361453336E-02 -0.35201628367E-01  0.48732310304E-01  0.51100000000E-03 0.  1.
         11    1    4    4    0    0 -0.87991119379E-01  0.26030200383E-01 -0.17402161136E-01  0.93397562895E-01  0.51100000000E-03 0. -1.
</event>
<event>
 8    1  0.2521139E+004  0.1043930E+01  0.7957747E-01            NaN
         13   -1    0    0    0    0  0.00000000000E+00  0.00000000000E+00  0.74505805969E-08  0.10566000000E+00  0.10566000000E+00 0. -1.
     999900   -1    0    0    0    0 -0.00000000000E+00 -0.00000000000E+00 -0.74505805969E-08  0.93827000000E+00  0.93827000000E+00 0. -1.
     999902    2    1    2    0    0 -0.28439783468E-03  0.13416903098E-01  0.28604996527E-02  0.10302086069E+01  0.10301172249E+01 0.  0.
     999903    2    3    3    0    0  0.61613817269E-01 -0.80710292742E-01  0.84389310933E-01  0.13928870863E+00  0.44377637603E-01 0.  0.
         14    1    1    2    0    0  0.28439783468E-03 -0.13416903098E-01 -0.28604996527E-02  0.13721393119E-01  0.00000000000E+00 0.  1.
     999901    1    3    3    0    0 -0.61898215104E-01  0.94127195840E-01 -0.81528811280E-01  0.89091989825E+00  0.88000000000E+00 0. -1.
        -11    1    4    4    0    0  0.18226573802E-01 -0.28203436211E-01  0.56410803290E-01  0.65651212140E-01  0.51100000000E-03 0.  1.
         11    1    4    4    0    0  0.43387243467E-01 -0.52506856531E-01  0.27978507643E-01  0.73637496490E-01  0.51100000000E-03 0. -1.
</event>
<event>
 8    1  0.2077555E+004  0.1043930E+01  0.7957747E-01            NaN
         13   -1    0    0    0    0  0.00000000000E+00  0.00000000000E+00  0.74505805969E-08  0.10566000000E+00  0.10566000000E+00 0. -1.
     999900   -1    0    0    0    0 -0.00000000000E+00 -0.00000000000E+00 -0.74505805969E-08  0.93827000000E+00  0.93827000000E+00 0. -1.
     999902    2    1    2    0    0 -0.12974016214E-01 -0.50961748013E-02 -0.70806825543E-02  0.10282956737E+01  0.10281768137E+01 0.  0.
     999903    2    3    3    0    0  0.95883479766E-01  0.45219455391E-01 -0.75040346041E-01  0.13756556138E+00  0.45329783888E-01 0.  0.
         14    1    1    2    0    0  0.12974016214E-01  0.50961748013E-02  0.70806825543E-02  0.15634326329E-01  0.00000000000E+00 0. -1.
     999901    1    3    3    0    0 -0.10885749598E+00 -0.50315630192E-01  0.67959663487E-01  0.89073011229E+00  0.88000000000E+00 0.  1.
        -11    1    4    4    0    0  0.36232667570E-01  0.41548573816E-01 -0.30296155877E-01  0.62906346002E-01  0.51100000000E-03 0. -1.
         11    1    4    4    0    0  0.59650812195E-01  0.36708815747E-02 -0.44744190164E-01  0.74659215382E-01  0.51100000000E-03 0.  1.
</event>
<event>
 8    1  0.2077555E+004  0.1043930E+01  0.7957747E-01            NaN
         13   -1    0    0    0    0  0.00000000000E+00  0.00000000000E+00  0.74505805969E-08  0.10566000000E+00  0.10566000000E+00 0.  1.
     999900   -1    0    0    0    0 -0.00000000000E+00 -0.00000000000E+00 -0.74505805969E-08  0.93827000000E+00  0.93827000000E+00 0.  1.
     999902    2    1    2    0    0  0.12352524333E-01 -0.26882172540E-02  0.51692286153E-02  0.10302723174E+01  0.10301817877E+01 0.  0.
     999903    2    3    3    0    0  0.20920668865E-01 -0.12029844360E+00  0.54737203582E-01  0.14102400417E+00  0.44522111110E-01 0.  0.
         14    1    1    2    0    0 -0.12352524333E-01  0.26882172540E-02 -0.51692286153E-02  0.13657682596E-01  0.00000000000E+00 0. -1.
     999901    1    3    3    0    0 -0.85681445314E-02  0.11761022635E+00 -0.49567974967E-01  0.88924831323E+00  0.88000000000E+00 0.  1.
        -11    1    4    4    0    0  0.30907349454E-01 -0.50420646144E-01  0.29194316509E-01  0.65955098706E-01  0.51100000000E-03 0. -1.
         11    1    4    4    0    0 -0.99866805890E-02 -0.69877797460E-01  0.25542887073E-01  0.75068905467E-01  0.51100000000E-03 0.  1.
</event>
<event>
 8    1  0.2077555E+004  0.1043930E+01  0.7957747E-01            NaN
         13   -1    0    0    0    0  0.00000000000E+00  0.00000000000E+00  0.74505805969E-08  0.10566000000E+00  0.10566000000E+00 0.  1.
     999900   -1    0    0    0    0 -0.00000000000E+00 -0.00000000000E+00 -0.74505805969E-08  0.93827000000E+00  0.93827000000E+00 0. -1.
     999902    2    1    2    0    0  0.22096048286E-02  0.67419075739E-02 -0.98394189882E-02  0.10317994667E+01  0.10317281569E+01 0.  0.
     999903    2    3    3    0    0  0.87495232368E-01  0.66574200228E-01 -0.80003670804E-01  0.14288070569E+00  0.43894975713E-01 0.  0.
         14    1    1    2    0    0 -0.22096048286E-02 -0.67419075739E-02  0.98394189882E-02  0.12130533264E-01  0.00000000000E+00 0.  1.
     999901    1    3    3    0    0 -0.85285627539E-01 -0.59832292654E-01  0.70164251816E-01  0.88891876105E+00  0.88000000000E+00 0.  1.
        -11    1    4    4    0    0  0.38466214827E-01  0.48222429688E-02 -0.18936802033E-01  0.43148201615E-01  0.51100000000E-03 0.  1.
         11    1    4    4    0    0  0.49029017541E-01  0.61751957259E-01 -0.61066868771E-01  0.99732504074E-01  0.51100000000E-03 0. -1.
</event>
<event>
 8    1  0.2077555E+004  0.1043930E+01  0.7957747E-01            NaN
         13   -1    0    0    0    0  0.00000000000E+00  0.00000000000E+00  0.74505805969E-08  0.10566000000E+00  0.10566000000E+00 0.  1.
     999900   -1    0    0    0    0 -0.00000000000E+00 -0.00000000000E+00 -0.74505805969E-08  0.93827000000E+00  0.93827000000E+00 0.  1.
     999902    2    1    2    0    0 -0.37044171083E-02 -0.87048893393E-02 -0.21916624733E-02  0.10342191201E+01  0.10341735285E+01 0.  0.
     999903    2    3    3    0    0  0.73788713120E-01 -0.23495500960E-01 -0.11241721928E+00  0.14384076185E+00  0.45340057678E-01 0.  0.
         14    1    1    2    0    0  0.37044171083E-02  0.87048893393E-02  0.21916624733E-02  0.97108799250E-02  0.00000000000E+00 0. -1.
     999901    1    3    3    0    0 -0.77493130228E-01  0.14790611621E-01  0.11022555680E+00  0.89037835823E+00  0.88000000000E+00 0. -1.
        -11    1    4    4    0    0  0.22444143252E-02 -0.11070133104E-02 -0.38419712210E-01  0.38504522870E-01  0.51100000000E-03 0. -1.
         11    1    4    4    0    0  0.71544298795E-01 -0.22388487650E-01 -0.73997507066E-01  0.10533623898E+00  0.51100000000E-03 0.  1.
</event>
<event>
 8    1  0.2077555E+004  0.1043930E+01  0.7957747E-01            NaN
         13   -1    0    0    0    0  0.00000000000E+00  0.00000000000E+00  0.74505805969E-08  0.10566000000E+00  0.10566000000E+00 0. -1.
     999900   -1    0    0    0    0 -0.00000000000E+00 -0.00000000000E+00 -0.74505805969E-08  0.93827000000E+00  0.93827000000E+00 0.  1.
     999902    2    1    2    0    0 -0.56342381192E-02  0.45544915304E-03  0.11664570074E-01  0.10309679682E+01  0.10308864812E+01 0.  0.
     999903    2    3    3    0    0 -0.44852797433E-01 -0.11961324766E+00  0.41795228251E-01  0.14143862979E+00  0.44033424101E-01 0.  0.
         14    1    1    2    0    0  0.56342381192E-02 -0.45544915304E-03 -0.11664570074E-01  0.12962031790E-01  0.00000000000E+00 0.  1.
     999901    1    3    3    0    0  0.39218559314E-01  0.12006869682E+00 -0.30130658177E-01  0.88952933842E+00  0.88000000000E+00 0. -1.
        -11    1    4    4    0    0 -0.50333115421E-01 -0.90679580666E-01  0.42233677541E-01  0.11198282680E+00  0.51100000000E-03 0. -1.
         11    1    4    4    0    0  0.54803179886E-02 -0.28933666996E-01 -0.43844929030E-03  0.29455802992E-01  0.51100000000E-03 0.  1.
</event>
<event>
 8    1  0.2077555E+004  0.1043930E+01  0.7957747E-01            NaN
         13   -1    0    0    0    0  0.00000000000E+00  0.00000000000E+00  0.74505805969E-08  0.10566000000E+00  0.10566000000E+00 0. -1.
     999900   -1    0    0    0    0 -0.00000000000E+00 -0.00000000000E+00 -0.74505805969E-08  0.93827000000E+00  0.93827000000E+00 0.  1.
     999902    2    1    2    0    0  0.14576354398E-02  0.22041935872E-02 -0.13766991854E-01  0.10299116822E+01  0.10298162748E+01 0.  0.
     999903    2    3    3    0    0 -0.30297335226E-01 -0.96580399004E-01 -0.87703451964E-01  0.14073601108E+00  0.43232248795E-01 0.  0.
         14    1    1    2    0    0 -0.14576354398E-02 -0.22041935872E-02  0.13766991854E-01  0.14018317843E-01  0.00000000000E+00 0. -1.
     999901    1    3    3    0    0  0.31754970665E-01  0.98784592591E-01  0.73936460110E-01  0.88917567107E+00  0.88000000000E+00 0.  1.
        -11    1    4    4    0    0 -0.35928230259E-01 -0.74542468657E-01 -0.49951683819E-01  0.96658415053E-01  0.51100000000E-03 0.  1.
         11    1    4    4    0    0  0.56308950338E-02 -0.22037930346E-01 -0.37751768145E-01  0.44077596031E-01  0.51100000000E-03 0. -1.
</event>
<event>
 8    1  0.2077555E+004  0.1043930E+01  0.7957747E-01            NaN
         13   -1    0    0    0    0  0.00000000000E+00  0.00000000000E+00  0.74505805969E-08  0.10566000000E+00  0.10566000000E+00 0.  1.
     999900   -1    0    0    0    0 -0.00000000000E+00 -0.00000000000E+00 -0.74505805969E-08  0.93827000000E+00  0.93827000000E+00 0. -1.
     999902    2    1    2    0    0 -0.13243100603E-01  0.49135635520E-02 -0.10243418205E-02  0.10297676522E+01  0.10296702605E+01 0.  0.
     999903    2    3    3    0    0  0.11186200455E+00  0.62869924478E-01 -0.25004872009E-01  0.13870912830E+00  0.46359930786E-01 0.  0.
         14    1    1    2    0    0  0.13243100603E-01 -0.49135635520E-02  0.10243418205E-02  0.14162347846E-01  0.00000000000E+00 0. -1.
     999901    1    3    3    0    0 -0.12510510516E+00 -0.57956360926E-01  0.23980530189E-01  0.89105852386E+00  0.88000000000E+00 0. -1.
        -11    1    4    4    0    0  0.24019623568E-01  0.38305902656E-01 -0.89193181223E-02  0.46087957770E-01  0.51100000000E-03 0. -1.
         11    1    4    4    0    0  0.87842380984E-01  0.24564021822E-01 -0.16085553887E-01  0.92621170528E-01  0.51100000000E-03 0.  1.
</event>
<event>
 8    1  0.2077555E+004  0.1043930E+01  0.7957747E-01            NaN
         13   -1    0    0    0    0  0.00000000000E+00  0.00000000000E+00  0.74505805969E-08  0.10566000000E+00  0.10566000000E+00 0.  1.
     999900   -1    0    0    0    0 -0.00000000000E+00 -0.00000000000E+00 -0.74505805969E-08  0.93827000000E+00  0.93827000000E+00 0. -1.
     999902    2    1    2    0    0 -0.88234601765E-02  0.77578529226E-02 -0.87810285336E-02  0.10292622056E+01  0.10291576865E+01 0.  0.
     999903    2    3    3    0    0 -0.16928522988E-01 -0.10309156159E+00 -0.80234828649E-01  0.13939764829E+00  0.45602978623E-01 0.  0.
         14    1    1    2    0    0  0.88234601765E-02 -0.77578529226E-02  0.87810285336E-02  0.14667794434E-01  0.00000000000E+00 0.  1.
     999901    1    3    3    0    0  0.81050628119E-02  0.11084941451E+00  0.71453800116E-01  0.88986455727E+00  0.88000000000E+00 0.  1.
        -11    1    4    4    0    0  0.12211507089E-01 -0.61916727977E-01 -0.38516953069E-01  0.73936587043E-01  0.51100000000E-03 0. -1.
         11    1    4    4    0    0 -0.29140030077E-01 -0.41174833613E-01 -0.41717875580E-01  0.65461061250E-01  0.51100000000E-03 0.  1.
</event>
<event>
 8    1  0.2077555E+004  0.1043930E+01  0.7957747E-01            NaN
         13   -1    0    0    0    0  0.00000000000E+00  0.00000000000E+00  0.74505805969E-08  0.10566000000E+00  0.10566000000E+00 0.  1.
     999900   -1    0    0    0    0 -0.00000000000E+00 -0.00000000000E+00 -0.74505805969E-08  0.93827000000E+00  0.93827000000E+00 0. -1.
     999902    2    1    2    0    0 -0.11356662394E-01 -0.46451963634E-02  0.38430210145E-02  0.10310723003E+01  0.10309921280E+01 0.  0.
     999903    2    3    3    0    0 -0.10521366526E+00 -0.23640870587E-01  0.80934771773E-01  0.14252679748E+00  0.46202214218E-01 0.  0.
         14    1    1    2    0    0  0.11356662394E-01  0.46451963634E-02 -0.38430210145E-02  0.12857699659E-01  0.00000000000E+00 0.  1.
     999901    1    3    3    0    0  0.93857002861E-01  0.18995674223E-01 -0.77091750758E-01  0.88854550286E+00  0.88000000000E+00 0. -1.
        -11    1    4    4    0    0 -0.56434214769E-01  0.10872654577E-01  0.42417595063E-01  0.71432126568E-01  0.51100000000E-03 0.  1.
         11    1    4    4    0    0 -0.48779450486E-01 -0.34513525164E-01  0.38517176710E-01  0.71094670909E-01  0.51100000000E-03 0. -1.
</event>
<event>
 8    1  0.2077555E+004  0.1043930E+01  0.7957747E-01            NaN
         13   -1    0    0    0    0  0.00000000000E+00  0.00000000000E+00  0.74505805969E-08  0.10566000000E+00  0.10566000000E+00 0.  1.
     999900   -1    0    0    0    0 -0.00000000000E+00 -0.00000000000E+00 -0.74505805969E-08  0.93827000000E+00  0.93827000000E+00 0. -1.
     999902    2    1    2    0    0  0.96968755276E-02  0.64460003037E-02 -0.69302629763E-02  0.10303797653E+01  0.10302906638E+01 0.  0.
     999903    2    3    3    0    0 -0.41882272940E-01 -0.57191245075E-01 -0.11230512167E+00  0.14031574043E+00  0.45289108615E-01 0.  0.
         14    1    1    2    0    0 -0.96968755276E-02 -0.64460003037E-02  0.69302629763E-02  0.13550234678E-01  0.00000000000E+00 0. -1.
     999901    1    3    3    0    0  0.51579148468E-01  0.63637245379E-01  0.10537485870E+00  0.89006402489E+00  0.88000000000E+00 0. -1.
        -11    1    4    4    0    0 -0.16384945798E-01 -0.54774311071E-01 -0.65376389649E-01  0.86850590364E-01  0.51100000000E-03 0.  1.
         11    1    4    4    0    0 -0.25497327142E-01 -0.24169340042E-02 -0.46928732025E-01  0.53465150069E-01  0.51100000000E-03 0. -1.
</event>
<event>
 8    1  0.2077555E+004  0.1043930E+01  0.7957747E-01            NaN
         13   -1    0    0    0    0  0.00000000000E+00  0.00000000000E+00  0.74505805969E-08  0.10566000000E+00  0.10566000000E+00 0. -1.
     999900   -1    0    0    0    0 -0.00000000000E+00 -0.00000000000E+00 -0.74505805969E-08  0.93827000000E+00  0.93827000000E+00 0.  1.
     999902    2    1    2    0    0 -0.70353927770E-02 -0.14306765258E-01 -0.71457799246E-02  0.10264588107E+01  0.10263101128E+01 0.  0.
     999903    2    3    3    0    0 -0.20336395095E-01 -0.48630692847E-01  0.11796392118E+00  0.13684794863E+00  0.45092805324E-01 0.  0.
         14    1    1    2    0    0  0.70353927770E-02  0.14306765258E-01  0.71457799246E-02  0.17471189267E-01  0.00000000000E+00 0.  1.
     999901    1    3    3    0    0  0.13301002318E-01  0.34323927589E-01 -0.12510970110E+00  0.88961086211E+00  0.88000000000E+00 0.  1.
        -11    1    4    4    0    0 -0.18277535790E-01 -0.16762348401E-01  0.93168264742E-01  0.96413854370E-01  0.51100000000E-03 0.  1.
         11    1    4    4    0    0 -0.20588593042E-02 -0.31868344446E-01  0.24795656434E-01  0.40434094256E-01  0.51100000000E-03 0. -1.
</event>
<event>
 8    1  0.2077555E+004  0.1043930E+01  0.7957747E-01            NaN
         13   -1    0    0    0    0  0.00000000000E+00  0.00000000000E+00  0.74505805969E-08  0.10566000000E+00  0.10566000000E+00 0.  1.
     999900   -1    0    0    0    0 -0.00000000000E+00 -0.00000000000E+00 -0.74505805969E-08  0.93827000000E+00  0.93827000000E+00 0. -1.
     999902    2    1    2    0    0  0.12687388458E-01  0.30466966259E-02  0.86468328352E-02  0.10282768884E+01  0.10281577404E+01 0.  0.
     999903    2    3    3    0    0  0.11493086021E-02  0.47912419092E-01  0.12301095565E+00  0.13966830583E+00  0.45591881179E-01 0.  0.
         14    1    1    2    0    0 -0.12687388458E-01 -0.30466966259E-02 -0.86468328352E-02  0.15653111649E-01  0.00000000000E+00 0. -1.
     999901    1    3    3    0    0  0.11538079856E-01 -0.44865722466E-01 -0.11436412282E+00  0.88860858252E+00  0.88000000000E+00 0. -1.
        -11    1    4    4    0    0 -0.15346552639E-02 -0.22327047015E-02  0.55289516077E-01  0.55358213899E-01  0.51100000000E-03 0.  1.
         11    1    4    4    0    0  0.26839638660E-02  0.50145123793E-01  0.67721439578E-01  0.84310091933E-01  0.51100000000E-03 0. -1.
</event>
<event>
 8    1  0.2077555E+004  0.1043930E+01  0.7957747E-01            NaN
         13   -1    0    0    0    0  0.00000000000E+00  0.00000000000E+00  0.74505805969E-08  0.10566000000E+00  0.10566000000E+00 0. -1.
     999900   -1    0    0    0    0 -0.00000000000E+00 -0.00000000000E+00 -0.74505805969E-08  0.93827000000E+00  0.93827000000E+00 0.  1.
     999902    2    1    2    0    0 -0.55271511523E-02 -0.52700559954E-02  0.15763996908E-01  0.10264135366E+01  0.10262640604E+01 0.  0.
     999903    2    3    3    0    0  0.12195492145E+00  0.31737959642E-01  0.26500859122E-01  0.13639300190E+00  0.44949465909E-01 0.  0.
         14    1    1    2    0    0  0.55271511523E-02  0.52700559954E-02 -0.15763996908E-01  0.17516463358E-01  0.00000000000E+00 0.  1.
     999901    1    3    3    0    0 -0.12748207260E+00 -0.37008015637E-01 -0.10736862214E-01  0.89002053474E+00  0.88000000000E+00 0.  1.
        -11    1    4    4    0    0  0.37823711158E-01  0.15748033996E-02  0.27860649163E-01  0.47006276435E-01  0.51100000000E-03 0.  1.
         11    1    4    4    0    0  0.84131210288E-01  0.30163156242E-01 -0.13597900414E-02  0.89386725463E-01  0.51100000000E-03 0. -1.
</event>
<event>
 8    1  0.2077555E+004  0.1043930E+01  0.7957747E-01            NaN
         13   -1    0    0    0    0  0.00000000000E+00  0.00000000000E+00  0.74505805969E-08  0.10566000000E+00  0.10566000000E+00 0. -1.
     999900   -1    0    0    0    0 -0.00000000000E+00 -0.00000000000E+00 -0.74505805969E-08  0.93827000000E+00  0.93827000000E+00 0. -1.
     999902    2    1    2    0    0 -0.77875464876E-02 -0.57426916073E-02  0.11091100614E-01  0.10292114097E+01  0.10291061602E+01 0.  0.
     999903    2    3    3    0    0 -0.13960412844E-01 -0.11136147419E+00  0.65524671804E-01  0.14120440232E+00  0.55217112903E-01 0.  0.
         14    1    1    2    0    0  0.77875464876E-02  0.57426916073E-02 -0.11091100614E-01  0.14718590286E-01  0.00000000000E+00 0.  1.
     999901    1    3    3    0    0  0.61728663568E-02  0.10561878259E+00 -0.54433571190E-01  0.88800700740E+00  0.88000000000E+00 0. -1.
        -11    1    4    4    0    0 -0.15239030812E-01 -0.26811810852E-01  0.44369945056E-01  0.54037527761E-01  0.51100000000E-03 0. -1.
         11    1    4    4    0    0  0.12786179676E-02 -0.84549663341E-01  0.21154726748E-01  0.87166874556E-01  0.51100000000E-03 0.  1.
</event>
<event>
 8    1  0.2077555E+004  0.1043930E+01  0.7957747E-01            NaN
         13   -1    0    0    0    0  0.00000000000E+00  0.00000000000E+00  0.74505805969E-08  0.10566000000E+00  0.10566000000E+00 0. -1.
     999900   -1    0    0    0    0 -0.00000000000E+00 -0.00000000000E+00 -0.74505805969E-08  0.93827000000E+00  0.93827000000E+00 0.  1.
     999902    2    1    2    0    0  0.10370532174E-01 -0.94062472999E-02  0.13986757837E-02  0.10298594023E+01  0.10297632771E+01 0.  0.
     999903    2    3    3    0    0  0.12785403632E+00 -0.20437171151E-01  0.34602196685E-01  0.14136262187E+00  0.44963833011E-01 0.  0.
         14    1    1    2    0    0 -0.10370532174E-01  0.94062472999E-02 -0.13986757837E-02  0.14070597705E-01  0.00000000000E+00 0.  1.
     999901    1    3    3    0    0 -0.11748350414E+00  0.11030923851E-01 -0.33203520902E-01  0.88849678043E+00  0.88000000000E+00 0. -1.
        -11    1    4    4    0    0  0.12180715839E+00 -0.29659662966E-01  0.27856117348E-01  0.12842470104E+00  0.51100000000E-03 0.  1.
         11    1    4    4    0    0  0.60468779245E-02  0.92224918151E-02  0.67460793375E-02  0.12937920828E-01  0.51100000000E-03 0. -1.
</event>
<event>
 8    1  0.2077555E+004  0.1043930E+01  0.7957747E-01            NaN
         13   -1    0    0    0    0  0.00000000000E+00  0.00000000000E+00  0.74505805969E-08  0.10566000000E+00  0.10566000000E+00 0. -1.
     999900   -1    0    0    0    0 -0.00000000000E+00 -0.00000000000E+00 -0.74505805969E-08  0.93827000000E+00  0.93827000000E+00 0.  1.
     999902    2    1    2    0    0  0.21585537224E-02  0.14243445848E-01 -0.17736753072E-03  0.10295228295E+01  0.10294220174E+01 0.  0.
     999903    2    3    3    0    0 -0.12258519110E+00 -0.43364065643E-01 -0.18139947614E-01  0.13867925086E+00  0.44668844328E-01 0.  0.
         14    1    1    2    0    0 -0.21585537224E-02 -0.14243445848E-01  0.17736753072E-03  0.14407170543E-01  0.00000000000E+00 0. -1.
     999901    1    3    3    0    0  0.12474374482E+00  0.57607511492E-01  0.17962580083E-01  0.89084357860E+00  0.88000000000E+00 0. -1.
        -11    1    4    4    0    0 -0.35351924768E-01 -0.86515926740E-02 -0.25594013733E-01  0.44496329069E-01  0.51100000000E-03 0.  1.
         11    1    4    4    0    0 -0.87233266327E-01 -0.34712472969E-01  0.74540661187E-02  0.94182921788E-01  0.51100000000E-03 0. -1.
</event>
<event>
 8    1  0.2077555E+004  0.1043930E+01  0.7957747E-01            NaN
         13   -1    0    0    0    0  0.00000000000E+00  0.00000000000E+00  0.74505805969E-08  0.10566000000E+00  0.10566000000E+00 0.  1.
     999900   -1    0    0    0    0 -0.00000000000E+00 -0.00000000000E+00 -0.74505805969E-08  0.93827000000E+00  0.93827000000E+00 0. -1.
     999902    2    1    2    0    0 -0.11807083947E-01 -0.63023353057E-02 -0.49314729479E-02  0.10296665472E+01  0.10295677502E+01 0.  0.
     999903    2    3    3    0    0 -0.11960167627E+00 -0.35166581485E-01 -0.49819778701E-01  0.14148425796E+00  0.44660222571E-01 0.  0.
         14    1    1    2    0    0  0.11807083947E-01  0.63023353057E-02  0.49314729479E-02  0.14263452845E-01  0.00000000000E+00 0.  1.
     999901    1    3    3    0    0  0.10779459233E+00  0.28864246179E-01  0.44888305753E-01  0.88818228919E+00  0.88000000000E+00 0. -1.
        -11    1    4    4    0    0 -0.26613476511E-01  0.51259611036E-02  0.28750336102E-02  0.27259485478E-01  0.51100000000E-03 0. -1.
         11    1    4    4    0    0 -0.92988199763E-01 -0.40292542588E-01 -0.52694812311E-01  0.11422477248E+00  0.51100000000E-03 0.  1.
</event>
<event>
 8    1  0.2077555E+004  0.1043930E+01  0.7957747E-01            NaN
         13   -1    0    0    0    0  0.00000000000E+00  0.00000000000E+00  0.74505805969E-08  0.10566000000E+00  0.10566000000E+00 0.  1.
     999900   -1    0    0    0    0 -0.00000000000E+00 -0.00000000000E+00 -0.74505805969E-08  0.93827000000E+00  0.93827000000E+00 0. -1.
     999902    2    1    2    0    0 -0.11262089359E-01 -0.74740109594E-02  0.18642899531E-02  0.10302855479E+01  0.10301951947E+01 0.  0.
     999903    2    3    3    0    0 -0.23689311260E-01  0.98541760247E-01  0.85778074707E-01  0.13987255221E+00  0.43986256730E-01 0.  0.
         14    1    1    2    0    0  0.11262089359E-01  0.74740109594E-02 -0.18642899531E-02  0.13644452117E-01  0.00000000000E+00 0.  1.
     999901    1    3    3    0    0  0.12427221901E-01 -0.10601577121E+00 -0.83913784754E-01  0.89041299567E+00  0.88000000000E+00 0. -1.
        -11    1    4    4    0    0 -0.27651338695E-01  0.35994139892E-01  0.21960801677E-01  0.50425316751E-01  0.51100000000E-03 0. -1.
         11    1    4    4    0    0  0.39620274346E-02  0.62547620355E-01  0.63817273030E-01  0.89447235460E-01  0.51100000000E-03 0.  1.
</event>
<event>
 8    1  0.2077555E+004  0.1043930E+01  0.7957747E-01            NaN
         13   -1    0    0    0    0  0.00000000000E+00  0.00000000000E+00  0.74505805969E-08  0.10566000000E+00  0.10566000000E+00 0. -1.
     999900   -1    0    0    0    0 -0.00000000000E+00 -0.00000000000E+00 -0.74505805969E-08  0.93827000000E+00  0.93827000000E+00 0. -1.
     999902    2    1    2    0    0  0.42907401235E-02 -0.11291018290E-01 -0.62902606425E-02  0.10303114493E+01  0.10302214410E+01 0.  0.
     999903    2    3    3    0    0  0.56608221375E-01 -0.10906012675E-01  0.11940875758E+00  0.13984106220E+00  0.44425662081E-01 0.  0.
         14    1    1    2    0    0 -0.42907401235E-02  0.11291018290E-01  0.62902606425E-02  0.13618550723E-01  0.00000000000E+00 0. -1.
     999901    1    3    3    0    0 -0.52317481251E-01 -0.38500561482E-03 -0.12569901822E+00  0.89047038707E+00  0.88000000000E+00 0. -1.
        -11    1    4    4    0    0  0.26675144987E-01 -0.26455701841E-01  0.76766179478E-01  0.85467976181E-01  0.51100000000E-03 0. -1.
         11    1    4    4    0    0  0.29933076388E-01  0.15549689166E-01  0.42642578104E-01  0.54373086022E-01  0.51100000000E-03 0.  1.
</event>
<event>
 8    1  0.2077555E+004  0.1043930E+01  0.7957747E-01            NaN
         13   -1    0    0    0    0  0.00000000000E+00  0.00000000000E+00  0.74505805969E-08  0.10566000000E+00  0.10566000000E+00 0. -1.
     999900   -1    0    0    0    0 -0.00000000000E+00 -0.00000000000E+00 -0.74505805969E-08  0.93827000000E+00  0.93827000000E+00 0. -1.
     999902    2    1    2    0    0  0.85595530840E-02  0.79615491837E-02  0.45643335565E-02  0.10313806831E+01  0.10313043334E+01 0.  0.
     999903    2    3    3    0    0 -0.31241837260E-01  0.12924112344E+00  0.21448677277E-01  0.14201126216E+00  0.45031460556E-01 0.  0.
         14    1    1    2    0    0 -0.85595530840E-02 -0.79615491837E-02 -0.45643335565E-02  0.12549316922E-01  0.00000000000E+00 0.  1.
     999901    1    3    3    0    0  0.39801390344E-01 -0.12127957425E+00 -0.16884343721E-01  0.88936942092E+00  0.88000000000E+00 0.  1.
        -11    1    4    4    0    0 -0.41009539905E-01  0.77764982522E-01  0.11301830646E-01  0.88640664296E-01  0.51100000000E-03 0.  1.
         11    1    4    4    0    0  0.97677026454E-02  0.51476140916E-01  0.10146846631E-01  0.53370597862E-01  0.51100000000E-03 0. -1.
</event>
<event>
 8    1  0.2077555E+004  0.1043930E+01  0.7957747E-01            NaN
         13   -1    0    0    0    0  0.00000000000E+00  0.00000000000E+00  0.74505805969E-08  0.10566000000E+00  0.10566000000E+00 0. -1.
     999900   -1    0    0    0    0 -0.00000000000E+00 -0.00000000000E+00 -0.74505805969E-08  0.93827000000E+00  0.93827000000E+00 0.  1.
     999902    2    1    2    0    0 -0.87142410926E-03  0.48564252917E-03  0.14520237731E-01  0.10293755322E+01  0.10292726334E+01 0.  0.
     999903    2    3    3    0    0 -0.12583592279E+00  0.39267430477E-01  0.12467787028E-01  0.13969898113E+00  0.44539297868E-01 0.  0.
         14    1    1    2    0    0  0.87142410926E-03 -0.48564252917E-03 -0.14520237731E-01  0.14554467782E-01  0.00000000000E+00 0.  1.
     999901    1    3    3    0    0  0.12496449868E+00 -0.38781787948E-01  0.20524507037E-02  0.88967655109E+00  0.88000000000E+00 0. -1.
        -11    1    4    4    0    0 -0.41142462097E-01  0.23426658470E-01 -0.14323072337E-01  0.49466372787E-01  0.51100000000E-03 0.  1.
         11    1    4    4    0    0 -0.84693460690E-01  0.15840772006E-01  0.26790859364E-01  0.90232608341E-01  0.51100000000E-03 0. -1.
</event>
<event>
 8    1  0.2077555E+004  0.1043930E+01  0.7957747E-01            NaN
         13   -1    0    0    0    0  0.00000000000E+00  0.00000000000E+00  0.74505805969E-08  0.10566000000E+00  0.10566000000E+00 0. -1.
     999900   -1    0    0    0    0 -0.00000000000E+00 -0.00000000000E+00 -0.74505805969E-08  0.93827000000E+00  0.93827000000E+00 0. -1.
     999902    2    1    2    0    0 -0.88550696422E-02  0.34776023696E-03 -0.94667594651E-02  0.10309626282E+01  0.10308810737E+01 0.  0.
     999903    2    3    3    0    0 -0.63472708266E-01  0.36110349305E-01 -0.11321818379E+00  0.14246591622E+00  0.46318874363E-01 0.  0.
         14    1    1    2    0    0  0.88550696422E-02 -0.34776023696E-03  0.94667594651E-02  0.12967371758E-01  0.00000000000E+00 0.  1.
     999901    1    3    3    0    0  0.54617638624E-01 -0.35762589068E-01  0.10375142432E+00  0.88849671202E+00  0.88000000000E+00 0.  1.
        -11    1    4    4    0    0 -0.54234805696E-01  0.38541644830E-01 -0.63979605355E-01  0.92306682085E-01  0.51100000000E-03 0.  1.
         11    1    4    4    0    0 -0.92379025704E-02 -0.24312955255E-02 -0.49238578433E-01  0.50159234135E-01  0.51100000000E-03 0. -1.
</event>
<event>
 8    1  0.2077555E+004  0.1043930E+01  0.7957747E-01            NaN
         13   -1    0    0    0    0  0.00000000000E+00  0.00000000000E+00  0.74505805969E-08  0.10566000000E+00  0.10566000000E+00 0. -1.
     999900   -1    0    0    0    0 -0.00000000000E+00 -0.00000000000E+00 -0.74505805969E-08  0.93827000000E+00  0.93827000000E+00 0. -1.
     999902    2    1    2    0    0  0.75053029469E-02  0.10103287827E-01 -0.51969136344E-02  0.10303133224E+01  0.10302233391E+01 0.  0.
     999903    2    3    3    0    0 -0.45605812951E-01  0.11962716005E+00  0.38292917051E-01  0.14087100579E+00  0.44584135981E-01 0.  0.
         14    1    1    2    0    0 -0.75053029469E-02 -0.10103287827E-01  0.51969136344E-02  0.13616677589E-01  0.00000000000E+00 0. -1.
     999901    1    3    3    0    0  0.53111115898E-01 -0.10952387222E+00 -0.43489830685E-01  0.88944231662E+00  0.88000000000E+00 0. -1.
        -11    1    4    4    0    0 -0.19706276065E-01  0.15132161995E-01  0.19492287782E-01  0.31583699070E-01  0.51100000000E-03 0.  1.
         11    1    4    4    0    0 -0.25899536885E-01  0.10449499805E+00  0.18800629269E-01  0.10928730672E+00  0.51100000000E-03 0. -1.
</event>
<event>
 7    1  0.2077555E+004  0.1043930E+01  0.7957747E-01            NaN
         13   -1    0    0    0    0  0.00000000000E+00  0.00000000000E+00  0.74505805969E-08  0.10566000000E+00  0.10566000000E+00 0.  1.
     999900   -1    0    0    0    0 -0.00000000000E+00 -0.00000000000E+00 -0.74505805969E-08  0.93827000000E+00  0.93827000000E+00 0. -1.
     999902    2    1    2    0    0  0.97020357024E-02 -0.90738075997E-02 -0.10419945171E-02  0.10306052398E+01  0.10305190979E+01 0.  0.
         14    1    1    2    0    0 -0.97020357024E-02  0.90738075997E-02  0.10419945171E-02  0.13324760174E-01  0.00000000000E+00 0. -1.
     999901    1    3    3    0    0 -0.52502021806E-01 -0.33138824223E-01  0.89340082066E-01  0.88669966405E+00  0.88000000000E+00 0.  1.
        -11    1    3    3    0    0  0.47123211460E-01 -0.19666464888E-01 -0.82429807621E-01  0.96965463980E-01  0.51100000000E-03 0. -1.
         11    1    3    3    0    0  0.15080846048E-01  0.43731481511E-01 -0.79522689627E-02  0.46940111795E-01  0.51100000000E-03 0.  1.
</event>
<event>
 8    1  0.2077555E+004  0.1043930E+01  0.7957747E-01            NaN
         13   -1    0    0    0    0  0.00000000000E+00  0.00000000000E+00  0.74505805969E-08  0.10566000000E+00  0.10566000000E+00 0. -1.
     999900   -1    0    0    0    0 -0.00000000000E+00 -0.00000000000E+00 -0.74505805969E-08  0.93827000000E+00  0.93827000000E+00 0. -1.
     999902    2    1    2    0    0 -0.85038169506E-02  0.15905400778E-02  0.11327548452E-01  0.10296766469E+01  0.10295779908E+01 0.  0.
     999903    2    3    3    0    0 -0.11740091746E+00 -0.62493332237E-01  0.92812739507E-02  0.14064936474E+00  0.44807474413E-01 0.  0.
         14    1    1    2    0    0  0.85038169506E-02 -0.15905400778E-02 -0.11327548452E-01  0.14253353093E-01  0.00000000000E+00 0.  1.
     999901    1    3    3    0    0  0.10889710051E+00  0.64083872315E-01  0.20462745013E-02  0.88902728216E+00  0.88000000000E+00 0.  1.
        -11    1    4    4    0    0 -0.91493030184E-01 -0.65070224195E-01 -0.19482755007E-02  0.11229054078E+00  0.51100000000E-03 0. -1.
         11    1    4    4    0    0 -0.25907887272E-01  0.25768919584E-02  0.11229549451E-01  0.28358823970E-01  0.51100000000E-03 0.  1.
</event>
<event>
 8    1  0.2077555E+004  0.1043930E+01  0.7957747E-01            NaN
         13   -1    0    0    0    0  0.00000000000E+00  0.00000000000E+00  0.74505805969E-08  0.10566000000E+00  0.10566000000E+00 0.  1.
     999900   -1    0    0    0    0 -0.00000000000E+00 -0.00000000000E+00 -0.74505805969E-08  0.93827000000E+00  0.93827000000E+00 0. -1.
     999902    2    1    2    0    0 -0.41462632106E-03  0.80714136668E-02  0.11637674078E-01  0.10297611930E+01  0.10296637119E+01 0.  0.
     999903    2    3    3    0    0  0.54597528478E-01 -0.98177969095E-01 -0.66927071650E-01  0.13819645179E+00  0.44712667520E-01 0.  0.
         14    1    1    2    0    0  0.41462632106E-03 -0.80714136668E-02 -0.11637674078E-01  0.14168806989E-01  0.00000000000E+00 0. -1.
     999901    1    3    3    0    0 -0.55012154799E-01  0.10624938276E+00  0.78564745727E-01  0.89156474122E+00  0.88000000000E+00 0. -1.
        -11    1    4    4    0    0  0.46964957179E-01 -0.44484505305E-01 -0.48726556744E-01  0.80988374895E-01  0.51100000000E-03 0.  1.
         11    1    4    4    0    0  0.76325712992E-02 -0.53693463790E-01 -0.18200514906E-01  0.57208076897E-01  0.51100000000E-03 0. -1.
</event>
<event>
 8    1  0.2077555E+004  0.1043930E+01  0.7957747E-01            NaN
         13   -1    0    0    0    0  0.00000000000E+00  0.00000000000E+00  0.74505805969E-08  0.10566000000E+00  0.10566000000E+00 0. -1.
     999900   -1    0    0    0    0 -0.00000000000E+00 -0.00000000000E+00 -0.74505805969E-08  0.93827000000E+00  0.93827000000E+00 0.  1.
     999902    2    1    2    0    0 -0.12548254554E-01  0.15793486521E-03  0.10088614150E-01  0.10278283302E+01  0.10277022003E+01 0.  0.
     999903    2    3    3    0    0  0.73008038279E-01  0.25948366472E-02 -0.10572583611E+00  0.13612277080E+00  0.44883732892E-01 0.  0.
         14    1    1    2    0    0  0.12548254554E-01 -0.15793486521E-03 -0.10088614150E-01  0.16101669828E-01  0.00000000000E+00 0. -1.
     999901    1    3    3    0    0 -0.85556292833E-01 -0.24369017820E-02  0.11581445026E+00  0.89170555938E+00  0.88000000000E+00 0. -1.
        -11    1    4    4    0    0  0.26840603951E-01  0.21915251196E-01 -0.33108476882E-01  0.47928369656E-01  0.51100000000E-03 0. -1.
         11    1    4    4    0    0  0.46167434327E-01 -0.19320414549E-01 -0.72617359224E-01  0.88194401140E-01  0.51100000000E-03 0.  1.
</event>
<event>
 8    1  0.2077555E+004  0.1043930E+01  0.7957747E-01            NaN
         13   -1    0    0    0    0  0.00000000000E+00  0.00000000000E+00  0.74505805969E-08  0.10566000000E+00  0.10566000000E+00 0. -1.
     999900   -1    0    0    0    0 -0.00000000000E+00 -0.00000000000E+00 -0.74505805969E-08  0.93827000000E+00  0.93827000000E+00 0. -1.
     999902    2    1    2    0    0  0.96106211615E-02 -0.59958300696E-02 -0.21150404278E-02  0.10324066579E+01  0.10323423462E+01 0.  0.
     999903    2    3    3    0    0  0.36647923158E-01 -0.59116372644E-01  0.11633161177E+00  0.14247271812E+00  0.43904620773E-01 0.  0.
         14    1    1    2    0    0 -0.96106211615E-02  0.59958300696E-02  0.21150404278E-02  0.11523342108E-01  0.00000000000E+00 0.  1.
     999901    1    3    3    0    0 -0.27037301996E-01  0.53120542574E-01 -0.11844665220E+00  0.88993393977E+00  0.88000000000E+00 0. -1.
        -11    1    4    4    0    0  0.16969563008E-01 -0.40247172514E-01  0.32863010970E-01  0.54662963468E-01  0.51100000000E-03 0. -1.
         11    1    4    4    0    0  0.19678360149E-01 -0.18869200131E-01  0.83468600798E-01  0.87809754652E-01  0.51100000000E-03 0.  1.
</event>
<event>
 8    1  0.2077555E+004  0.1043930E+01  0.7957747E-01            NaN
         13   -1    0    0    0    0  0.00000000000E+00  0.00000000000E+00  0.74505805969E-08  0.10566000000E+00  0.10566000000E+00 0. -1.
     999900   -1    0    0    0    0 -0.00000000000E+00 -0.00000000000E+00 -0.74505805969E-08  0.93827000000E+00  0.93827000000E+00 0. -1.
     999902    2    1    2    0    0 -0.13683207309E-01  0.30156999908E-02 -0.13599215685E-03  0.10299177517E+01  0.10298224275E+01 0.  0.
     999903    2    3    3    0    0 -0.58864871395E-01  0.14240157949E-01 -0.11880471662E+00  0.14073293548E+00  0.44981587937E-01 0.  0.
         14    1    1    2    0    0  0.13683207309E-01 -0.30156999908E-02  0.13599215685E-03  0.14012248305E-01  0.00000000000E+00 0. -1.
     999901    1    3    3    0    0  0.45181664086E-01 -0.11224457959E-01  0.11866872447E+00  0.88918481622E+00  0.88000000000E+00 0.  1.
        -11    1    4    4    0    0 -0.17879346966E-01  0.44653926367E-03 -0.82046129395E-01  0.83974394400E-01  0.51100000000E-03 0. -1.
         11    1    4    4    0    0 -0.40985524429E-01  0.13793618686E-01 -0.36758587228E-01  0.56758541077E-01  0.51100000000E-03 0.  1.
</event>
<event>
 8    1  0.2077555E+004  0.1043930E+01  0.7957747E-01            NaN
         13   -1    0    0    0    0  0.00000000000E+00  0.00000000000E+00  0.74505805969E-08  0.10566000000E+00  0.10566000000E+00 0.  1.
     999900   -1    0    0    0    0 -0.00000000000E+00 -0.00000000000E+00 -0.74505805969E-08  0.93827000000E+00  0.93827000000E+00 0. -1.
     999902    2    1    2    0    0 -0.82196018231E-02  0.87512496213E-02  0.69892563131E-02  0.10300377026E+01  0.10299440144E+01 0.  0.
     999903    2    3    3    0    0  0.10025247563E-01  0.10623473286E+00 -0.79269281793E-01  0.14027568977E+00  0.44803192386E-01 0.  0.
         14    1    1    2    0    0  0.82196018231E-02 -0.87512496213E-02 -0.69892563131E-02  0.13892297430E-01  0.00000000000E+00 0. -1.
     999901    1    3    3    0    0 -0.18244849387E-01 -0.97483483242E-01  0.86258538106E-01  0.88976201280E+00  0.88000000000E+00 0.  1.
        -11    1    4    4    0    0  0.51683816372E-02  0.58815178916E-01 -0.16216200022E-01  0.61230414859E-01  0.51100000000E-03 0. -1.
         11    1    4    4    0    0  0.48568659262E-02  0.47419553947E-01 -0.63053081771E-01  0.79045274907E-01  0.51100000000E-03 0.  1.
</event>
<event>
 8    1  0.2077555E+004  0.1043930E+01  0.7957747E-01            NaN
         13   -1    0    0    0    0  0.00000000000E+00  0.00000000000E+00  0.74505805969E-08  0.10566000000E+00  0.10566000000E+00 0. -1.
     999900   -1    0    0    0    0 -0.00000000000E+00 -0.00000000000E+00 -0.74505805969E-08  0.93827000000E+00  0.93827000000E+00 0. -1.
     999902    2    1    2    0    0  0.36607690642E-02  0.20658979124E-02 -0.36486186174E-02  0.10383638899E+01  0.10383489713E+01 0.  0.
     999903    2    3    3    0    0  0.57499457909E-01  0.72777011873E-01  0.10747451691E+00  0.14693412969E+00  0.37897039011E-01 0.  0.
         14    1    1    2    0    0 -0.36607690642E-02 -0.20658979124E-02  0.36486186174E-02  0.55661101445E-02  0.00000000000E+00 0. -1.
     999901    1    3    3    0    0 -0.53838688845E-01 -0.70711113961E-01 -0.11112313553E+00  0.89142976016E+00  0.88000000000E+00 0. -1.
        -11    1    4    4    0    0  0.55470212973E-01  0.43278792995E-01  0.80419848236E-01  0.10685322439E+00  0.51100000000E-03 0. -1.
         11    1    4    4    0    0  0.20292449366E-02  0.29498218878E-01  0.27054668677E-01  0.40080905307E-01  0.51100000000E-03 0.  1.
</event>
<event>
 8    1  0.2077555E+004  0.1043930E+01  0.7957747E-01            NaN
         13   -1    0    0    0    0  0.00000000000E+00  0.00000000000E+00  0.74505805969E-08  0.10566000000E+00  0.10566000000E+00 0.  1.
     999900   -1    0    0    0    0 -0.00000000000E+00 -0.00000000000E+00 -0.74505805969E-08  0.93827000000E+00  0.93827000000E+00 0.  1.
     999902    2    1    2    0    0 -0.72574627220E-04  0.77279180844E-02 -0.11373600111E-01  0.10301791904E+01  0.10300874136E+01 0.  0.
     999903    2    3    3    0    0 -0.52448395872E-01  0.10176871545E+00 -0.69275931752E-01  0.14173134262E+00  0.46700247202E-01 0.  0.
         14    1    1    2    0    0  0.72574627220E-04 -0.77279180844E-02  0.11373600111E-01  0.13750809593E-01  0.00000000000E+00 0.  1.
     999901    1    3    3    0    0  0.52375821245E-01 -0.94040797362E-01  0.57902331642E-01  0.88844784778E+00  0.88000000000E+00 0. -1.
        -11    1    4    4    0    0 -0.45576647028E-01  0.42074830116E-01 -0.24075602612E-01  0.66538844638E-01  0.51100000000E-03 0. -1.
         11    1    4    4    0    0 -0.68717488439E-02  0.59693885331E-01 -0.45200329140E-01  0.75192497987E-01  0.51100000000E-03 0.  1.
</event>
<event>
 8    1  0.2077555E+004  0.1043930E+01  0.7957747E-01            NaN
         13   -1    0    0    0    0  0.00000000000E+00  0.00000000000E+00  0.74505805969E-08  0.10566000000E+00  0.10566000000E+00 0.  1.
     999900   -1    0    0    0    0 -0.00000000000E+00 -0.00000000000E+00 -0.74505805969E-08  0.93827000000E+00  0.93827000000E+00 0.  1.
     999902    2    1    2    0    0 -0.12411315346E-01 -0.22725348406E-02 -0.23176025804E-02  0.10311012649E+01  0.10310214556E+01 0.  0.
     999903    2    3    3    0    0  0.70045372010E-01  0.61538820896E-02 -0.11346556143E+00  0.14024550856E+00  0.43013307663E-01 0.  0.
         14    1    1    2    0    0  0.12411315346E-01  0.22725348406E-02  0.23176025804E-02  0.12828735126E-01  0.00000000000E+00 0. -1.
     999901    1    3    3    0    0 -0.82456687355E-01 -0.84264169302E-02  0.11114795885E+00  0.89085575631E+00  0.88000000000E+00 0. -1.
        -11    1    4    4    0    0  0.64674071867E-01  0.18832294635E-01 -0.83657088357E-01  0.10740651957E+00  0.51100000000E-03 0. -1.
         11    1    4    4    0    0  0.53713001425E-02 -0.12678412545E-01 -0.29808473078E-01  0.32838988993E-01  0.51100000000E-03 0.  1.
</event>
<event>
 8    1  0.2077555E+004  0.1043930E+01  0.7957747E-01            NaN
         13   -1    0    0    0    0  0.00000000000E+00  0.00000000000E+00  0.74505805969E-08  0.10566000000E+00  0.10566000000E+00 0. -1.
     999900   -1    0    0    0    0 -0.00000000000E+00 -0.00000000000E+00 -0.74505805969E-08  0.93827000000E+00  0.93827000000E+00 0.  1.
     999902    2    1    2    0    0  0.58374924852E-02  0.11875331406E-01 -0.49045998553E-02  0.10298177743E+01  0.10297210755E+01 0.  0.
     999903    2    3    3    0    0 -0.61173286266E-01 -0.59610637496E-01  0.99320385733E-01  0.13826657788E+00  0.44243739450E-01 0.  0.
         14    1    1    2    0    0 -0.58374924852E-02 -0.11875331406E-01  0.49045998553E-02  0.14112225702E-01  0.00000000000E+00 0. -1.
     999901    1    3    3    0    0  0.67010778752E-01  0.71485968902E-01 -0.10422498559E+00  0.89155119642E+00  0.88000000000E+00 0.  1.
        -11    1    4    4    0    0 -0.59526825667E-01 -0.50573790485E-01  0.10219486337E+00  0.12862815585E+00  0.51100000000E-03 0. -1.
         11    1    4    4    0    0 -0.16464605994E-02 -0.90368470100E-02 -0.28744776388E-02  0.96384220225E-02  0.51100000000E-03 0.  1.
</event>
<event>
 8    1  0.2077555E+004  0.1043930E+01  0.7957747E-01            NaN
         13   -1    0    0    0    0  0.00000000000E+00  0.00000000000E+00  0.74505805969E-08  0.10566000000E+00  0.10566000000E+00 0.  1.
     999900   -1    0    0    0    0 -0.00000000000E+00 -0.00000000000E+00 -0.74505805969E-08  0.93827000000E+00  0.93827000000E+00 0.  1.
     999902    2    1    2    0    0  0.10709416660E-01  0.22699471378E-02  0.93579456361E-02  0.10295280761E+01  0.10294273379E+01 0.  0.
     999903    2    3    3    0    0 -0.90905889997E-02  0.46495589622E-01 -0.12187648485E+00  0.13847789603E+00  0.45582578539E-01 0.  0.
         14    1    1    2    0    0 -0.10709416660E-01 -0.22699471378E-02 -0.93579456361E-02  0.14401923890E-01  0.00000000000E+00 0.  1.
     999901    1    3    3    0    0  0.19800005659E-01 -0.44225642485E-01  0.13123443049E+00  0.89105018008E+00  0.88000000000E+00 0. -1.
        -11    1    4    4    0    0 -0.17204763688E-01  0.16020196117E-01 -0.92267342692E-01  0.95216459846E-01  0.51100000000E-03 0. -1.
         11    1    4    4    0    0  0.81141746884E-02  0.30475393506E-01 -0.29609142159E-01  0.43261436183E-01  0.51100000000E-03 0.  1.
</event>
<event>
 8    1  0.2077555E+004  0.1043930E+01  0.7957747E-01            NaN
         13   -1    0    0    0    0  0.00000000000E+00  0.00000000000E+00  0.74505805969E-08  0.10566000000E+00  0.10566000000E+00 0. -1.
     999900   -1    0    0    0    0 -0.00000000000E+00 -0.00000000000E+00 -0.74505805969E-08  0.93827000000E+00  0.93827000000E+00 0. -1.
     999902    2    1    2    0    0 -0.13170901185E-01  0.11986584538E-01  0.10382350377E-01  0.10233158290E+01  0.10231081770E+01 0.  0.
     999903    2    3    3    0    0  0.77155882130E-01  0.50584977312E-01  0.79805769918E-01  0.13513320425E+00  0.58139073803E-01 0.  0.
         14    1    1    2    0    0  0.13170901185E-01 -0.11986584538E-01 -0.10382350377E-01  0.20614171006E-01  0.00000000000E+00 0. -1.
     999901    1    3    3    0    0 -0.90326783316E-01 -0.38598392774E-01 -0.69423419542E-01  0.88818262474E+00  0.88000000000E+00 0. -1.
        -11    1    4    4    0    0  0.43135037210E-01 -0.44784783835E-02  0.23415539841E-01  0.49287288734E-01  0.51100000000E-03 0.  1.
         11    1    4    4    0    0  0.34020844920E-01  0.55063455696E-01  0.56390230077E-01  0.85845915520E-01  0.51100000000E-03 0. -1.
</event>
<event>
 8    1  0.2077555E+004  0.1043930E+01  0.7957747E-01            NaN
         13   -1    0    0    0    0  0.00000000000E+00  0.00000000000E+00  0.74505805969E-08  0.10566000000E+00  0.10566000000E+00 0.  1.
     999900   -1    0    0    0    0 -0.00000000000E+00 -0.00000000000E+00 -0.74505805969E-08  0.93827000000E+00  0.93827000000E+00 0.  1.
     999902    2    1    2    0    0 -0.31745567027E-02 -0.12114035759E-01  0.51967064839E-02  0.10303714812E+01  0.10302822700E+01 0.  0.
     999903    2    3    3    0    0 -0.10112058353E+00 -0.43168478934E-01 -0.75391931705E-01  0.14073541452E+00  0.45095715395E-01 0.  0.
         14    1    1    2    0    0  0.31745567027E-02  0.12114035759E-01 -0.51967064839E-02  0.13558518758E-01  0.00000000000E+00 0. -1.
     999901    1    3    3    0    0  0.97946026824E-01  0.31054443175E-01  0.80588638189E-01  0.88963606672E+00  0.88000000000E+00 0. -1.
        -11    1    4    4    0    0 -0.21054570875E-01 -0.28474325988E-01 -0.35258639587E-01  0.49975143639E-01  0.51100000000E-03 0. -1.
         11    1    4    4    0    0 -0.80066012652E-01 -0.14694152946E-01 -0.40133292118E-01  0.90760270879E-01  0.51100000000E-03 0.  1.
</event>
<event>
 8    1  0.2077555E+004  0.1043930E+01  0.7957747E-01            NaN
         13   -1    0    0    0    0  0.00000000000E+00  0.00000000000E+00  0.74505805969E-08  0.10566000000E+00  0.10566000000E+00 0. -1.
     999900   -1    0    0    0    0 -0.00000000000E+00 -0.00000000000E+00 -0.74505805969E-08  0.93827000000E+00  0.93827000000E+00 0.  1.
     999902    2    1    2    0    0 -0.72118691727E-02  0.49986728321E-02  0.10525831626E-01  0.10302263173E+01  0.10301351727E+01 0.  0.
     999903    2    3    3    0    0 -0.15137722740E-01 -0.10997873052E+00  0.74152305495E-01  0.14043367261E+00  0.43572699892E-01 0.  0.
         14    1    1    2    0    0  0.72118691727E-02 -0.49986728321E-02 -0.10525831626E-01  0.13703682660E-01  0.00000000000E+00 0.  1.
     999901    1    3    3    0    0  0.79258535673E-02  0.11497740335E+00 -0.63626473869E-01  0.88979264473E+00  0.88000000000E+00 0.  1.
        -11    1    4    4    0    0 -0.24733125932E-01 -0.95758275246E-01  0.73563845810E-01  0.12326100490E+00  0.51100000000E-03 0.  1.
         11    1    4    4    0    0  0.95954031924E-02 -0.14220455275E-01  0.58845968541E-03  0.17172667715E-01  0.51100000000E-03 0. -1.
</event>
<event>
 8    1  0.2077555E+004  0.1043930E+01  0.7957747E-01            NaN
         13   -1    0    0    0    0  0.00000000000E+00  0.00000000000E+00  0.74505805969E-08  0.10566000000E+00  0.10566000000E+00 0.  1.
     999900   -1    0    0    0    0 -0.00000000000E+00 -0.00000000000E+00 -0.74505805969E-08  0.93827000000E+00  0.93827000000E+00 0. -1.
     999902    2    1    2    0    0 -0.48014284089E-02  0.57298852572E-02 -0.90399796959E-02  0.10321994189E+01  0.10321327598E+01 0.  0.
     999903    2    3    3    0    0 -0.13363359730E+00 -0.63088001888E-03  0.19973304973E-01  0.14232304673E+00  0.44705484932E-01 0.  0.
         14    1    1    2    0    0  0.48014284089E-02 -0.57298852572E-02  0.90399796959E-02  0.11730581091E-01  0.00000000000E+00 0.  1.
     999901    1    3    3    0    0  0.12883216889E+00  0.63607652761E-02 -0.29013284669E-01  0.88987637218E+00  0.88000000000E+00 0. -1.
        -11    1    4    4    0    0 -0.10654484296E+00  0.81736108959E-02  0.31780583849E-01  0.11148487838E+00  0.51100000000E-03 0.  1.
         11    1    4    4    0    0 -0.27088754333E-01 -0.88044909148E-02 -0.11807278876E-01  0.30838168348E-01  0.51100000000E-03 0. -1.
</event>
<event>
 7    1  0.2077555E+004  0.1043930E+01  0.7957747E-01            NaN
         13   -1    0    0    0    0  0.00000000000E+00  0.00000000000E+00  0.74505805969E-08  0.10566000000E+00  0.10566000000E+00 0. -1.
     999900   -1    0    0    0    0 -0.00000000000E+00 -0.00000000000E+00 -0.74505805969E-08  0.93827000000E+00  0.93827000000E+00 0.  1.
     999903    2    1    2    0    0 -0.86856359444E-01  0.44252285208E-01 -0.65232926172E-01  0.12592156695E+00  0.45810636807E-01 0.  0.
         14    1    1    2    0    0  0.14276908949E-01  0.80142156024E-02  0.28311435638E-01  0.32704665856E-01  0.00000000000E+00 0.  1.
     999901    1    1    2    0    0  0.72579450495E-01 -0.52266500810E-01  0.36921490534E-01  0.88530376719E+00  0.88000000000E+00 0. -1.
        -11    1    3    3    0    0 -0.14687496177E-01  0.26110483945E-01 -0.54226887789E-02  0.30449081930E-01  0.51100000000E-03 0. -1.
         11    1    3    3    0    0 -0.72168863266E-01  0.18141801263E-01 -0.59810237393E-01  0.95472485022E-01  0.51100000000E-03 0.  1.
</event>
<event>
 8    1  0.2077555E+004  0.1043930E+01  0.7957747E-01            NaN
         13   -1    0    0    0    0  0.00000000000E+00  0.00000000000E+00  0.74505805969E-08  0.10566000000E+00  0.10566000000E+00 0.  1.
     999900   -1    0    0    0    0 -0.00000000000E+00 -0.00000000000E+00 -0.74505805969E-08  0.93827000000E+00  0.93827000000E+00 0.  1.
     999902    2    1    2    0    0 -0.45718156177E-02 -0.12189866748E-01  0.10427786648E-02  0.10308693057E+01  0.10307865655E+01 0.  0.
     999903    2    3    3    0    0  0.45547737373E-01 -0.10400719305E+00 -0.71788399252E-01  0.14168610098E+00  0.45047578827E-01 0.  0.
         14    1    1    2    0    0  0.45718156177E-02  0.12189866748E-01 -0.10427786648E-02  0.13060694343E-01  0.00000000000E+00 0. -1.
     999901    1    3    3    0    0 -0.50119552990E-01  0.91817326301E-01  0.72831177917E-01  0.88918320468E+00  0.88000000000E+00 0. -1.
        -11    1    4    4    0    0 -0.50141647024E-02 -0.11787973829E-01 -0.21680523598E-01  0.25187385715E-01  0.51100000000E-03 0.  1.
         11    1    4    4    0    0  0.50561902075E-01 -0.92219219220E-01 -0.50107875654E-01  0.11649871527E+00  0.51100000000E-03 0. -1.
</event>
<event>
 8    1  0.2077555E+004  0.1043930E+01  0.7957747E-01            NaN
         13   -1    0    0    0    0  0.00000000000E+00  0.00000000000E+00  0.74505805969E-08  0.10566000000E+00  0.10566000000E+00 0.  1.
     999900   -1    0    0    0    0 -0.00000000000E+00 -0.00000000000E+00 -0.74505805969E-08  0.93827000000E+00  0.93827000000E+00 0.  1.
     999902    2    1    2    0    0 -0.44273986294E-02 -0.12668999728E-01  0.98368872303E-03  0.10304736611E+01  0.10303857982E+01 0.  0.
     999903    2    3    3    0    0 -0.24306514411E-01  0.12799904796E+00  0.22050988009E-01  0.13883107017E+00  0.42582356082E-01 0.  0.
         14    1    1    2    0    0  0.44273986294E-02  0.12668999728E-01 -0.98368872303E-03  0.13456338887E-01  0.00000000000E+00 0. -1.
     999901    1    3    3    0    0  0.19879115782E-01 -0.14066804769E+00 -0.21067299286E-01  0.89164259094E+00  0.88000000000E+00 0.  1.
        -11    1    4    4    0    0  0.43765082095E-02  0.80018460385E-01  0.46155708409E-02  0.80272488698E-01  0.51100000000E-03 0.  1.
         11    1    4    4    0    0 -0.28683022621E-01  0.47980587579E-01  0.17435417169E-01  0.58558581471E-01  0.51100000000E-03 0. -1.
</event>
<event>
 8    1  0.2077555E+004  0.1043930E+01  0.7957747E-01            NaN
         13   -1    0    0    0    0  0.00000000000E+00  0.00000000000E+00  0.74505805969E-08  0.10566000000E+00  0.10566000000E+00 0. -1.
     999900   -1    0    0    0    0 -0.00000000000E+00 -0.00000000000E+00 -0.74505805969E-08  0.93827000000E+00  0.93827000000E+00 0. -1.
     999902    2    1    2    0    0  0.55722717009E-02 -0.88011700253E-02  0.75707536761E-02  0.10310526122E+01  0.10309721926E+01 0.  0.
     999903    2    3    3    0    0 -0.49718884048E-02  0.62851473477E-01 -0.11613721982E+00  0.13945351879E+00  0.44546634916E-01 0.  0.
         14    1    1    2    0    0 -0.55722717009E-02  0.88011700253E-02 -0.75707536761E-02  0.12877387815E-01  0.00000000000E+00 0. -1.
     999901    1    3    3    0    0  0.10544160106E-01 -0.71652643503E-01  0.12370797350E+00  0.89159909339E+00  0.88000000000E+00 0.  1.
        -11    1    4    4    0    0  0.94623821401E-02  0.43109735169E-01 -0.40300267537E-01  0.59769211361E-01  0.51100000000E-03 0. -1.
         11    1    4    4    0    0 -0.14434270545E-01  0.19741738308E-01 -0.75836952286E-01  0.79684307430E-01  0.51100000000E-03 0.  1.
</event>
<event>
 8    1  0.2077555E+004  0.1043930E+01  0.7957747E-01            NaN
         13   -1    0    0    0    0  0.00000000000E+00  0.00000000000E+00  0.74505805969E-08  0.10566000000E+00  0.10566000000E+00 0. -1.
     999900   -1    0    0    0    0 -0.00000000000E+00 -0.00000000000E+00 -0.74505805969E-08  0.93827000000E+00  0.93827000000E+00 0.  1.
     999902    2    1    2    0    0 -0.29065941167E-03 -0.12809228104E-01 -0.45542490159E-02  0.10303321328E+01  0.10302423996E+01 0.  0.
     999903    2    3    3    0    0  0.75792632254E-01  0.79573345358E-02  0.10806036179E+00  0.13965712590E+00  0.44935829226E-01 0.  0.
         14    1    1    2    0    0  0.29065941167E-03  0.12809228104E-01  0.45542490159E-02  0.13597867171E-01  0.00000000000E+00 0.  1.
     999901    1    3    3    0    0 -0.76083291666E-01 -0.20766562640E-01 -0.11261461081E+00  0.89067500693E+00  0.88000000000E+00 0.  1.
        -11    1    4    4    0    0 -0.38503147845E-02 -0.15981314214E-02  0.20425869598E-01  0.20853206416E-01  0.51100000000E-03 0.  1.
         11    1    4    4    0    0  0.79642947038E-01  0.95554659572E-02  0.87634492193E-01  0.11880391949E+00  0.51100000000E-03 0. -1.
</event>
<event>
 8    1  0.2077555E+004  0.1043930E+01  0.7957747E-01            NaN
         13   -1    0    0    0    0  0.00000000000E+00  0.00000000000E+00  0.74505805969E-08  0.10566000000E+00  0.10566000000E+00 0.  1.
     999900   -1    0    0    0    0 -0.00000000000E+00 -0.00000000000E+00 -0.74505805969E-08  0.93827000000E+00  0.93827000000E+00 0. -1.
     999902    2    1    2    0    0 -0.12637529174E-01 -0.20809038655E-02  0.27433982691E-02  0.10308317735E+01  0.10307485540E+01 0.  0.
     999903    2    3    3    0    0 -0.16925541323E-01 -0.98370179950E-01  0.89443208640E-01  0.14133367405E+00  0.44854805707E-01 0.  0.
         14    1    1    2    0    0  0.12637529174E-01  0.20809038655E-02 -0.27433982691E-02  0.13098226543E-01  0.00000000000E+00 0. -1.
     999901    1    3    3    0    0  0.42880121494E-02  0.96289276085E-01 -0.86699810370E-01  0.88949809941E+00  0.88000000000E+00 0.  1.
        -11    1    4    4    0    0  0.13344089881E-01 -0.23596578558E-01  0.33818726436E-01  0.43345479962E-01  0.51100000000E-03 0.  1.
         11    1    4    4    0    0 -0.30269631204E-01 -0.74773601392E-01  0.55624482204E-01  0.97988194084E-01  0.51100000000E-03 0. -1.
</event>
<event>
 8    1  0.2077555E+004  0.1043930E+01  0.7957747E-01            NaN
         13   -1    0    0    0    0  0.00000000000E+00  0.00000000000E+00  0.74505805969E-08  0.10566000000E+00  0.10566000000E+00 0.  1.
     999900   -1    0    0    0    0 -0.00000000000E+00 -0.00000000000E+00 -0.74505805969E-08  0.93827000000E+00  0.93827000000E+00 0.  1.
     999902    2    1    2    0    0  0.55595924904E-02  0.69462844503E-02  0.10682532406E-01  0.10300276105E+01  0.10299337852E+01 0.  0.
     999903    2    3    3    0    0  0.69414548900E-01  0.19469106256E-02 -0.11181837807E+00  0.13923643276E+00  0.45401150580E-01 0.  0.
         14    1    1    2    0    0 -0.55595924904E-02 -0.69462844503E-02 -0.10682532406E-01  0.13902389540E-01  0.00000000000E+00 0. -1.
     999901    1    3    3    0    0 -0.63854956409E-01  0.49993738246E-02  0.12250091048E+00  0.89079117770E+00  0.88000000000E+00 0. -1.
        -11    1    4    4    0    0 -0.18430945307E-02 -0.32945113977E-02 -0.31524814956E-01  0.31754147474E-01  0.51100000000E-03 0.  1.
         11    1    4    4    0    0  0.71257643431E-01  0.52414220233E-02 -0.80293563115E-01  0.10748228529E+00  0.51100000000E-03 0. -1.
</event>
<event>
 8    1  0.2077555E+004  0.1043930E+01  0.7957747E-01            NaN
         13   -1    0    0    0    0  0.00000000000E+00  0.00000000000E+00  0.74505805969E-08  0.10566000000E+00  0.10566000000E+00 0. -1.
     999900   -1    0    0    0    0 -0.00000000000E+00 -0.00000000000E+00 -0.74505805969E-08  0.93827000000E+00  0.93827000000E+00 0. -1.
     999902    2    1    2    0    0  0.14234284003E-01  0.12381694520E-01  0.13053652540E-01  0.10209883557E+01  0.10207305733E+01 0.  0.
     999903    2    3    3    0    0 -0.62608199212E-01 -0.33395254431E-01  0.10166207109E+00  0.13202730583E+00  0.45398272652E-01 0.  0.
         14    1    1    2    0    0 -0.14234284003E-01 -0.12381694520E-01 -0.13053652540E-01  0.22941644338E-01  0.00000000000E+00 0.  1.
     999901    1    3    3    0    0  0.76842483216E-01  0.45776948951E-01 -0.88608418547E-01  0.88896104983E+00  0.88000000000E+00 0. -1.
        -11    1    4    4    0    0 -0.23192870862E-01  0.96741756861E-02  0.23035162889E-01  0.34093676604E-01  0.51100000000E-03 0.  1.
         11    1    4    4    0    0 -0.39415328350E-01 -0.43069430117E-01  0.78626908199E-01  0.97933629226E-01  0.51100000000E-03 0. -1.
</event>
<event>
 8    1  0.2077555E+004  0.1043930E+01  0.7957747E-01            NaN
         13   -1    0    0    0    0  0.00000000000E+00  0.00000000000E+00  0.74505805969E-08  0.10566000000E+00  0.10566000000E+00 0. -1.
     999900   -1    0    0    0    0 -0.00000000000E+00 -0.00000000000E+00 -0.74505805969E-08  0.93827000000E+00  0.93827000000E+00 0.  1.
     999902    2    1    2    0    0  0.11830098507E-01 -0.39208295950E-02 -0.61707577944E-02  0.10300230813E+01  0.10299291945E+01 0.  0.
     999903    2    3    3    0    0  0.50765261902E-01  0.46270316092E-01 -0.11494985034E+00  0.14105289676E+00  0.44321525517E-01 0.  0.
         14    1    1    2    0    0 -0.11830098507E-01  0.39208295950E-02  0.61707577944E-02  0.13906918679E-01  0.00000000000E+00 0. -1.
     999901    1    3    3    0    0 -0.38935163395E-01 -0.50191145688E-01  0.10877909255E+00  0.88897018456E+00  0.88000000000E+00 0. -1.
        -11    1    4    4    0    0  0.13598934328E-01  0.22642385463E-02 -0.59569116761E-01  0.61145715988E-01  0.51100000000E-03 0. -1.
         11    1    4    4    0    0  0.37166327574E-01  0.44006077546E-01 -0.55380733583E-01  0.79907180776E-01  0.51100000000E-03 0.  1.
</event>
<event>
 8    1  0.2077555E+004  0.1043930E+01  0.7957747E-01            NaN
         13   -1    0    0    0    0  0.00000000000E+00  0.00000000000E+00  0.74505805969E-08  0.10566000000E+00  0.10566000000E+00 0. -1.
     999900   -1    0    0    0    0 -0.00000000000E+00 -0.00000000000E+00 -0.74505805969E-08  0.93827000000E+00  0.93827000000E+00 0.  1.
     999902    2    1    2    0    0 -0.10738645946E-01  0.61053425731E-02 -0.50813905477E-02  0.10305728201E+01  0.10304862558E+01 0.  0.
     999903    2    3    3    0    0 -0.12619026864E+00  0.36983359121E-01 -0.30022561939E-01  0.14214466257E+00  0.44855302017E-01 0.  0.
         14    1    1    2    0    0  0.10738645946E-01 -0.61053425731E-02  0.50813905477E-02  0.13357179889E-01  0.00000000000E+00 0. -1.
     999901    1    3    3    0    0  0.11545162270E+00 -0.30878016548E-01  0.24941171391E-01  0.88842815755E+00  0.88000000000E+00 0. -1.
        -11    1    4    4    0    0 -0.41943317255E-01  0.22939750226E-01 -0.30541746936E-01  0.56732119912E-01  0.51100000000E-03 0.  1.
         11    1    4    4    0    0 -0.84246951386E-01  0.14043608895E-01  0.51918499635E-03  0.85412542654E-01  0.51100000000E-03 0. -1.
</event>
<event>
 8    1  0.2077555E+004  0.1043930E+01  0.7957747E-01            NaN
         13   -1    0    0    0    0  0.00000000000E+00  0.00000000000E+00  0.74505805969E-08  0.10566000000E+00  0.10566000000E+00 0. -1.
     999900   -1    0    0    0    0 -0.00000000000E+00 -0.00000000000E+00 -0.74505805969E-08  0.93827000000E+00  0.93827000000E+00 0. -1.
     999902    2    1    2    0    0  0.74163455050E-02 -0.56629497815E-02 -0.12693816475E-01  0.10281755036E+01  0.10280547952E+01 0.  0.
     999903    2    3    3    0    0 -0.43385321321E-01  0.10064742236E+00 -0.71453810370E-01  0.13838033532E+00  0.45069728779E-01 0.  0.
         14    1    1    2    0    0 -0.74163455050E-02  0.56629497815E-02  0.12693816475E-01  0.15754496424E-01  0.00000000000E+00 0. -1.
     999901    1    3    3    0    0  0.50801666826E-01 -0.10631037214E+00  0.58759993895E-01  0.88979516826E+00  0.88000000000E+00 0.  1.
        -11    1    4    4    0    0 -0.66387994877E-02  0.50777498739E-01 -0.53096537998E-01  0.73769448318E-01  0.51100000000E-03 0. -1.
         11    1    4    4    0    0 -0.36746521833E-01  0.49869923620E-01 -0.18357272372E-01  0.64610886997E-01  0.51100000000E-03 0.  1.
</event>
<event>
 8    1  0.2077555E+004  0.1043930E+01  0.7957747E-01            NaN
         13   -1    0    0    0    0  0.00000000000E+00  0.00000000000E+00  0.74505805969E-08  0.10566000000E+00  0.10566000000E+00 0.  1.
     999900   -1    0    0    0    0 -0.00000000000E+00 -0.00000000000E+00 -0.74505805969E-08  0.93827000000E+00  0.93827000000E+00 0. -1.
     999902    2    1    2    0    0 -0.11509804430E-01  0.69729929524E-02 -0.20382987889E-02  0.10303192362E+01  0.10302293316E+01 0.  0.
     999903    2    3    3    0    0  0.81784285882E-01 -0.55437812002E-01  0.86434255650E-01  0.13878892897E+00  0.45049593084E-01 0.  0.
         14    1    1    2    0    0  0.11509804430E-01 -0.69729929524E-02  0.20382987889E-02  0.13610763781E-01  0.00000000000E+00 0.  1.
     999901    1    3    3    0    0 -0.93294090313E-01  0.62410804954E-01 -0.88472554438E-01  0.89153030725E+00  0.88000000000E+00 0.  1.
        -11    1    4    4    0    0  0.34086846255E-01 -0.16579214830E-01  0.61832097564E-01  0.72527600692E-01  0.51100000000E-03 0.  1.
         11    1    4    4    0    0  0.47697439628E-01 -0.38858597172E-01  0.24602158086E-01  0.66261328274E-01  0.51100000000E-03 0. -1.
</event>
<event>
 8    1  0.2077555E+004  0.1043930E+01  0.7957747E-01            NaN
         13   -1    0    0    0    0  0.00000000000E+00  0.00000000000E+00  0.74505805969E-08  0.10566000000E+00  0.10566000000E+00 0.  1.
     999900   -1    0    0    0    0 -0.00000000000E+00 -0.00000000000E+00 -0.74505805969E-08  0.93827000000E+00  0.93827000000E+00 0.  1.
     999902    2    1    2    0    0  0.13353768272E-01 -0.79160744991E-03  0.40884698924E-02  0.10299419567E+01  0.10298469638E+01 0.  0.
     999903    2    3    3    0    0  0.75564837025E-01  0.99253215722E-01 -0.46875892910E-01  0.14062955377E+00  0.44923007827E-01 0.  0.
         14    1    1    2    0    0 -0.13353768272E-01  0.79160744991E-03 -0.40884698924E-02  0.13988043304E-01  0.00000000000E+00 0.  1.
     999901    1    3    3    0    0 -0.62211068752E-01 -0.10004482317E+00  0.50964362802E-01  0.88931240292E+00  0.88000000000E+00 0. -1.
        -11    1    4    4    0    0  0.55994361513E-01  0.62139395839E-01 -0.51789179074E-01  0.98382179416E-01  0.51100000000E-03 0. -1.
         11    1    4    4    0    0  0.19570475512E-01  0.37113819882E-01  0.49132861637E-02  0.42247374355E-01  0.51100000000E-03 0.  1.
</event>
<event>
 8    1  0.2077555E+004  0.1043930E+01  0.7957747E-01            NaN
         13   -1    0    0    0    0  0.00000000000E+00  0.00000000000E+00  0.74505805969E-08  0.10566000000E+00  0.10566000000E+00 0.  1.
     999900   -1    0    0    0    0 -0.00000000000E+00 -0.00000000000E+00 -0.74505805969E-08  0.93827000000E+00  0.93827000000E+00 0. -1.
     999902    2    1    2    0    0  0.12072036227E-01  0.50776058312E-02 -0.43213558699E-02  0.10301390517E+01  0.10300467346E+01 0.  0.
     999903    2    3    3    0    0 -0.70622344662E-01 -0.18387381387E-01 -0.11036009045E+00  0.13961494784E+00  0.44579958887E-01 0.  0.
         14    1    1    2    0    0 -0.12072036227E-01 -0.50776058312E-02  0.43213558699E-02  0.13790948343E-01  0.00000000000E+00 0. -1.
     999901    1    3    3    0    0  0.82694380889E-01  0.23464987218E-01  0.10603873458E+00  0.89052410382E+00  0.88000000000E+00 0.  1.
        -11    1    4    4    0    0 -0.68583302057E-01 -0.62042985572E-02 -0.73426811225E-01  0.10066737490E+00  0.51100000000E-03 0. -1.
         11    1    4    4    0    0 -0.20390426048E-02 -0.12183082830E-01 -0.36933279228E-01  0.38947572934E-01  0.51100000000E-03 0.  1.
</event>
<event>
 8    1  0.2077555E+004  0.1043930E+01  0.7957747E-01            NaN
         13   -1    0    0    0    0  0.00000000000E+00  0.00000000000E+00  0.74505805969E-08  0.10566000000E+00  0.10566000000E+00 0. -1.
     999900   -1    0    0    0    0 -0.00000000000E+00 -0.00000000000E+00 -0.74505805969E-08  0.93827000000E+00  0.93827000000E+00 0.  1.
     999902    2    1    2    0    0 -0.43752916626E-02 -0.34271765101E-02  0.12869306210E-01  0.10299118775E+01  0.10298164728E+01 0.  0.
     999903    2    3    3    0    0 -0.18870647877E-01  0.78614561570E-01  0.10674366111E+00  0.14100617011E+00  0.44183483083E-01 0.  0.
         14    1    1    2    0    0  0.43752916626E-02  0.34271765101E-02 -0.12869306210E-01  0.14018122495E-01  0.00000000000E+00 0.  1.
     999901    1    3    3    0    0  0.14495356214E-01 -0.82041738080E-01 -0.93874354905E-01  0.88890570740E+00  0.88000000000E+00 0.  1.
        -11    1    4    4    0    0 -0.26498880215E-01  0.21598175636E-01  0.46394903722E-01  0.57631762561E-01  0.51100000000E-03 0.  1.
         11    1    4    4    0    0  0.76282323380E-02  0.57016385934E-01  0.60348757393E-01  0.83374407544E-01  0.51100000000E-03 0. -1.
</event>
<event>
 8    1  0.2077555E+004  0.1043930E+01  0.7957747E-01            NaN
         13   -1    0    0    0    0  0.00000000000E+00  0.00000000000E+00  0.74505805969E-08  0.10566000000E+00  0.10566000000E+00 0.  1.
     999900   -1    0    0    0    0 -0.00000000000E+00 -0.00000000000E+00 -0.74505805969E-08  0.93827000000E+00  0.93827000000E+00 0. -1.
     999902    2    1    2    0    0  0.33461021645E-02  0.66355143583E-02 -0.10764175497E-01  0.10308497124E+01  0.10307667222E+01 0.  0.
     999903    2    3    3    0    0  0.84023160534E-01  0.62131221663E-01  0.82428828781E-01  0.14052758115E+00  0.45092228149E-01 0.  0.
         14    1    1    2    0    0 -0.33461021645E-02 -0.66355143583E-02  0.10764175497E-01  0.13080287635E-01  0.00000000000E+00 0.  1.
     999901    1    3    3    0    0 -0.80677058370E-01 -0.55495707304E-01 -0.93193004278E-01  0.89032213121E+00  0.88000000000E+00 0. -1.
        -11    1    4    4    0    0  0.65581897788E-01  0.49193671461E-01  0.84702659997E-01  0.11788046641E+00  0.51100000000E-03 0. -1.
         11    1    4    4    0    0  0.18441262746E-01  0.12937550202E-01 -0.22738312158E-02  0.22647114746E-01  0.51100000000E-03 0.  1.
</event>
<event>
 8    1  0.2077555E+004  0.1043930E+01  0.7957747E-01            NaN
         13   -1    0    0    0    0  0.00000000000E+00  0.00000000000E+00  0.74505805969E-08  0.10566000000E+00  0.10566000000E+00 0. -1.
     999900   -1    0    0    0    0 -0.00000000000E+00 -0.00000000000E+00 -0.74505805969E-08  0.93827000000E+00  0.93827000000E+00 0. -1.
     999902    2    1    2    0    0 -0.11325398451E-01 -0.85195330912E-02  0.54537797461E-02  0.10287447833E+01  0.10286327033E+01 0.  0.
     999903    2    3    3    0    0 -0.12136170137E+00 -0.41786083451E-01 -0.34860252586E-01  0.14035304954E+00  0.44821891670E-01 0.  0.
         14    1    1    2    0    0  0.11325398451E-01  0.85195330912E-02 -0.54537797461E-02  0.15185216748E-01  0.00000000000E+00 0.  1.
     999901    1    3    3    0    0  0.11003630292E+00  0.33266550360E-01  0.40314032332E-01  0.88839173372E+00  0.88000000000E+00 0. -1.
        -11    1    4    4    0    0 -0.10339625156E-01  0.27570056061E-02 -0.15991955687E-01  0.19248706345E-01  0.51100000000E-03 0. -1.
         11    1    4    4    0    0 -0.11102207622E+00 -0.44543089057E-01 -0.18868296899E-01  0.12110434319E+00  0.51100000000E-03 0.  1.
</event>
<event>
 8    1  0.2077555E+004  0.1043930E+01  0.7957747E-01            NaN
         13   -1    0    0    0    0  0.00000000000E+00  0.00000000000E+00  0.74505805969E-08  0.10566000000E+00  0.10566000000E+00 0. -1.
     999900   -1    0    0    0    0 -0.00000000000E+00 -0.00000000000E+00 -0.74505805969E-08  0.93827000000E+00  0.93827000000E+00 0. -1.
     999902    2    1    2    0    0 -0.54163018645E-02  0.68866799216E-02  0.11134682929E-01  0.10297615897E+01  0.10296641141E+01 0.  0.
     999903    2    3    3    0    0 -0.33902642252E-01 -0.76944033765E-01 -0.10005284073E+00  0.13835723390E+00  0.45413431384E-01 0.  0.
         14    1    1    2    0    0  0.54163018645E-02 -0.68866799216E-02 -0.11134682929E-01  0.14168410291E-01  0.00000000000E+00 0. -1.
     999901    1    3    3    0    0  0.28486340388E-01  0.83830713686E-01  0.11118752366E+00  0.89140435581E+00  0.88000000000E+00 0. -1.
        -11    1    4    4    0    0 -0.23909619340E-01 -0.33691641045E-01 -0.79156224247E-01  0.89290343998E-01  0.51100000000E-03 0.  1.
         11    1    4    4    0    0 -0.99930229119E-02 -0.43252392720E-01 -0.20896616481E-01  0.49066889898E-01  0.51100000000E-03 0. -1.
</event>
<event>
 8    1  0.2077555E+004  0.1043930E+01  0.7957747E-01            NaN
         13   -1    0    0    0    0  0.00000000000E+00  0.00000000000E+00  0.74505805969E-08  0.10566000000E+00  0.10566000000E+00 0. -1.
     999900   -1    0    0    0    0 -0.00000000000E+00 -0.00000000000E+00 -0.74505805969E-08  0.93827000000E+00  0.93827000000E+00 0. -1.
     999902    2    1    2    0    0 -0.13544421924E-01 -0.31137464358E-02 -0.26059067618E-02  0.10297900731E+01  0.10296929917E+01 0.  0.
     999903    2    3    3    0    0  0.83596128574E-01 -0.99100399844E-01  0.15698680440E-01  0.13906857787E+00  0.47795594170E-01 0.  0.
         14    1    1    2    0    0  0.13544421924E-01  0.31137464358E-02  0.26059067618E-02  0.14139926880E-01  0.00000000000E+00 0. -1.
     999901    1    3    3    0    0 -0.97140550498E-01  0.95986653408E-01 -0.18304587202E-01  0.89072149525E+00  0.88000000000E+00 0.  1.
        -11    1    4    4    0    0  0.27140326234E-01 -0.61127698288E-01 -0.72195669631E-02  0.67272402025E-01  0.51100000000E-03 0.  1.
         11    1    4    4    0    0  0.56455802339E-01 -0.37972701556E-01  0.22918247403E-01  0.71796175847E-01  0.51100000000E-03 0. -1.
</event>
<event>
 8    1  0.2077555E+004  0.1043930E+01  0.7957747E-01            NaN
         13   -1    0    0    0    0  0.00000000000E+00  0.00000000000E+00  0.74505805969E-08  0.10566000000E+00  0.10566000000E+00 0.  1.
     999900   -1    0    0    0    0 -0.00000000000E+00 -0.00000000000E+00 -0.74505805969E-08  0.93827000000E+00  0.93827000000E+00 0.  1.
     999902    2    1    2    0    0  0.42227200986E-02 -0.76569299537E-03  0.13094534513E-01  0.10301501421E+01  0.10300579744E+01 0.  0.
     999903    2    3    3    0    0 -0.45754941867E-01  0.12408904138E+00  0.11901999336E-01  0.13993225102E+00  0.44133574421E-01 0.  0.
         14    1    1    2    0    0 -0.42227200986E-02  0.76569299537E-03 -0.13094534513E-01  0.13779857942E-01  0.00000000000E+00 0. -1.
     999901    1    3    3    0    0  0.49977661965E-01 -0.12485473437E+00  0.11925351774E-02  0.89021789104E+00  0.88000000000E+00 0. -1.
        -11    1    4    4    0    0 -0.80077969779E-03  0.50755291424E-01 -0.86448075076E-02  0.51494996587E-01  0.51100000000E-03 0. -1.
         11    1    4    4    0    0 -0.44954162169E-01  0.73333749953E-01  0.20546806843E-01  0.88437254429E-01  0.51100000000E-03 0.  1.
</event>
<event>
 8    1  0.2077555E+004  0.1043930E+01  0.7957747E-01            NaN
         13   -1    0    0    0    0  0.00000000000E+00  0.00000000000E+00  0.74505805969E-08  0.10566000000E+00  0.10566000000E+00 0.  1.
     999900   -1    0    0    0    0 -0.00000000000E+00 -0.00000000000E+00 -0.74505805969E-08  0.93827000000E+00  0.93827000000E+00 0. -1.
     999902    2    1    2    0    0  0.52273188987E-04  0.12252349284E-01 -0.48655978561E-02  0.10307467971E+01  0.10306624874E+01 0.  0.
     999903    2    3    3    0    0 -0.34938318902E-01  0.90146223463E-01  0.92816290364E-01  0.14123370085E+00  0.44554088091E-01 0.  0.
         14    1    1    2    0    0 -0.52273188987E-04 -0.12252349284E-01  0.48655978561E-02  0.13183202872E-01  0.00000000000E+00 0.  1.
     999901    1    3    3    0    0  0.34990592091E-01 -0.77893874179E-01 -0.97681888220E-01  0.88951309628E+00  0.88000000000E+00 0. -1.
        -11    1    4    4    0    0 -0.32371473878E-01  0.24204840304E-01  0.37038600709E-01  0.54826140469E-01  0.51100000000E-03 0.  1.
         11    1    4    4    0    0 -0.25668450235E-02  0.65941383159E-01  0.55777689654E-01  0.86407560378E-01  0.51100000000E-03 0. -1.
</event>
<event>
 8    1  0.2077555E+004  0.1043930E+01  0.7957747E-01            NaN
         13   -1    0    0    0    0  0.00000000000E+00  0.00000000000E+00  0.74505805969E-08  0.10566000000E+00  0.10566000000E+00 0. -1.
     999900   -1    0    0    0    0 -0.00000000000E+00 -0.00000000000E+00 -0.74505805969E-08  0.93827000000E+00  0.93827000000E+00 0.  1.
     999902    2    1    2    0    0  0.49462604507E-02  0.12123948489E-01 -0.91916928257E-03  0.10308036718E+01  0.10307200926E+01 0.  0.
     999903    2    3    3    0    0  0.32365289493E-01 -0.99707021182E-01  0.80360589344E-01  0.13958856417E+00  0.45145773789E-01 0.  0.
         14    1    1    2    0    0 -0.49462604507E-02 -0.12123948489E-01  0.91916928257E-03  0.13126328183E-01  0.00000000000E+00 0.  1.
     999901    1    3    3    0    0 -0.27419029043E-01  0.11183096967E+00 -0.81279758626E-01  0.89121510764E+00  0.88000000000E+00 0. -1.
        -11    1    4    4    0    0  0.40269671511E-01 -0.68876278040E-01  0.69920401836E-01  0.10608822665E+00  0.51100000000E-03 0.  1.
         11    1    4    4    0    0 -0.79043820175E-02 -0.30830743143E-01  0.10440187508E-01  0.33500337521E-01  0.51100000000E-03 0. -1.
</event>
<event>
 8    1  0.2077555E+004  0.1043930E+01  0.7957747E-01            NaN
         13   -1    0    0    0    0  0.00000000000E+00  0.00000000000E+00  0.74505805969E-08  0.10566000000E+00  0.10566000000E+00 0.  1.
     999900   -1    0    0    0    0 -0.00000000000E+00 -0.00000000000E+00 -0.74505805969E-08  0.93827000000E+00  0.93827000000E+00 0.  1.
     999902    2    1    2    0    0 -0.10136515540E-01 -0.86971611146E-02 -0.56563836633E-02  0.10294253719E+01  0.10293231816E+01 0.  0.
     999903    2    3    3    0    0  0.76420379167E-01 -0.15599362459E-01 -0.10629468562E+00  0.13944345965E+00  0.45414796983E-01 0.  0.
         14    1    1    2    0    0  0.10136515540E-01  0.86971611146E-02  0.56563836633E-02  0.14504628050E-01  0.00000000000E+00 0.  1.
     999901    1    3    3    0    0 -0.86556894707E-01  0.69022013449E-02  0.10063830196E+00  0.88998191230E+00  0.88000000000E+00 0.  1.
        -11    1    4    4    0    0  0.47167686217E-01 -0.31599865970E-02 -0.28013015537E-01  0.54952400300E-01  0.51100000000E-03 0. -1.
         11    1    4    4    0    0  0.29252692951E-01 -0.12439375862E-01 -0.78281670088E-01  0.84491059346E-01  0.51100000000E-03 0.  1.
</event>
<event>
 8    1  0.2077555E+004  0.1043930E+01  0.7957747E-01            NaN
         13   -1    0    0    0    0  0.00000000000E+00  0.00000000000E+00  0.74505805969E-08  0.10566000000E+00  0.10566000000E+00 0. -1.
     999900   -1    0    0    0    0 -0.00000000000E+00 -0.00000000000E+00 -0.74505805969E-08  0.93827000000E+00  0.93827000000E+00 0. -1.
     999902    2    1    2    0    0  0.19670680526E-02 -0.13376224509E-01  0.58484050917E-02  0.10291991962E+01  0.10290937707E+01 0.  0.
     999903    2    3    3    0    0  0.41901381839E-01 -0.19079369422E-01  0.12458144406E+00  0.14030954622E+00  0.45238085942E-01 0.  0.
         14    1    1    2    0    0 -0.19670680526E-02  0.13376224509E-01 -0.58484050917E-02  0.14730803812E-01  0.00000000000E+00 0.  1.
     999901    1    3    3    0    0 -0.39934313786E-01  0.57031449130E-02 -0.11873303896E+00  0.88888964997E+00  0.88000000000E+00 0. -1.
        -11    1    4    4    0    0 -0.22117366692E-02 -0.42619409242E-03  0.59281680302E-01  0.59326656411E-01  0.51100000000E-03 0.  1.
         11    1    4    4    0    0  0.44113118508E-01 -0.18653175330E-01  0.65299763754E-01  0.80982889808E-01  0.51100000000E-03 0. -1.
</event>
<event>
 8    1  0.2077555E+004  0.1043930E+01  0.7957747E-01            NaN
         13   -1    0    0    0    0  0.00000000000E+00  0.00000000000E+00  0.74505805969E-08  0.10566000000E+00  0.10566000000E+00 0. -1.
     999900   -1    0    0    0    0 -0.00000000000E+00 -0.00000000000E+00 -0.74505805969E-08  0.93827000000E+00  0.93827000000E+00 0. -1.
     999902    2    1    2    0    0 -0.16556280570E-02  0.10824589952E-01 -0.82512916130E-02  0.10302188124E+01  0.10301275672E+01 0.  0.
     999903    2    3    3    0    0 -0.10245303964E+00  0.14683248365E-01  0.82286132152E-01  0.13984134609E+00  0.45523306308E-01 0.  0.
         14    1    1    2    0    0  0.16556280570E-02 -0.10824589952E-01  0.82512916130E-02  0.13711187592E-01  0.00000000000E+00 0. -1.
     999901    1    3    3    0    0  0.10079741158E+00 -0.38586584127E-02 -0.90537423765E-01  0.89037746632E+00  0.88000000000E+00 0. -1.
        -11    1    4    4    0    0 -0.28754549848E-02  0.12915026953E-01  0.12683805071E-01  0.18335926338E-01  0.51100000000E-03 0. -1.
         11    1    4    4    0    0 -0.99577584657E-01  0.17682214117E-02  0.69602327080E-01  0.12150541975E+00  0.51100000000E-03 0.  1.
</event>
<event>
 8    1  0.2077555E+004  0.1043930E+01  0.7957747E-01            NaN
         13   -1    0    0    0    0  0.00000000000E+00  0.00000000000E+00  0.74505805969E-08  0.10566000000E+00  0.10566000000E+00 0.  1.
     999900   -1    0    0    0    0 -0.00000000000E+00 -0.00000000000E+00 -0.74505805969E-08  0.93827000000E+00  0.93827000000E+00 0. -1.
     999902    2    1    2    0    0 -0.11381173248E-01 -0.26177163664E-02 -0.46688246413E-02  0.10313529786E+01  0.10312762894E+01 0.  0.
     999903    2    3    3    0    0  0.72949205202E-01  0.48521152470E-02  0.11000629865E+00  0.13988352035E+00  0.46053055923E-01 0.  0.
         14    1    1    2    0    0  0.11381173248E-01  0.26177163664E-02  0.46688246413E-02  0.12577021388E-01  0.00000000000E+00 0. -1.
     999901    1    3    3    0    0 -0.84330378449E-01 -0.74698316134E-02 -0.11467512329E+00  0.89146945826E+00  0.88000000000E+00 0. -1.
        -11    1    4    4    0    0  0.21282715475E-01  0.23022900857E-01  0.45542415540E-01  0.55293586211E-01  0.51100000000E-03 0.  1.
         11    1    4    4    0    0  0.51666489726E-01 -0.18170785610E-01  0.64463883113E-01  0.84589934137E-01  0.51100000000E-03 0. -1.
</event>
<event>
 8    1  0.2077555E+004  0.1043930E+01  0.7957747E-01            NaN
         13   -1    0    0    0    0  0.00000000000E+00  0.00000000000E+00  0.74505805969E-08  0.10566000000E+00  0.10566000000E+00 0.  1.
     999900   -1    0    0    0    0 -0.00000000000E+00 -0.00000000000E+00 -0.74505805969E-08  0.93827000000E+00  0.93827000000E+00 0. -1.
     999902    2    1    2    0    0  0.77972456984E-03 -0.73058391398E-02  0.12012695086E-01  0.10298485193E+01  0.10297522443E+01 0.  0.
     999903    2    3    3    0    0  0.79634049373E-01  0.54369426206E-01 -0.88698653405E-01  0.13846497747E+00  0.44804938851E-01 0.  0.
         14    1    1    2    0    0 -0.77972456984E-03  0.73058391398E-02 -0.12012695086E-01  0.14081480716E-01  0.00000000000E+00 0. -1.
     999901    1    3    3    0    0 -0.78854324803E-01 -0.61675265346E-01  0.10071134849E+00  0.89138354181E+00  0.88000000000E+00 0.  1.
        -11    1    4    4    0    0  0.49073602966E-01  0.27513071201E-01 -0.78392355296E-01  0.96492539012E-01  0.51100000000E-03 0. -1.
         11    1    4    4    0    0  0.30560446406E-01  0.26856355005E-01 -0.10306298108E-01  0.41972438461E-01  0.51100000000E-03 0.  1.
</event>
<event>
 8    1  0.2077555E+004  0.1043930E+01  0.7957747E-01            NaN
         13   -1    0    0    0    0  0.00000000000E+00  0.00000000000E+00  0.74505805969E-08  0.10566000000E+00  0.10566000000E+00 0.  1.
     999900   -1    0    0    0    0 -0.00000000000E+00 -0.00000000000E+00 -0.74505805969E-08  0.93827000000E+00  0.93827000000E+00 0.  1.
     999902    2    1    2    0    0  0.12965970308E-01 -0.12904878664E-02  0.46719521920E-02  0.10300877140E+01  0.10299947037E+01 0.  0.
     999903    2    3    3    0    0  0.64222762693E-01 -0.55829718251E-01 -0.10348527211E+00  0.14031258981E+00  0.41676139801E-01 0.  0.
         14    1    1    2    0    0 -0.12965970308E-01  0.12904878664E-02 -0.46719521920E-02  0.13842286019E-01  0.00000000000E+00 0.  1.
     999901    1    3    3    0    0 -0.51256792386E-01  0.54539230385E-01  0.10815722430E+00  0.88977512417E+00  0.88000000000E+00 0. -1.
        -11    1    4    4    0    0  0.47771158396E-01 -0.32022070762E-01 -0.38602737822E-01  0.69267085104E-01  0.51100000000E-03 0. -1.
         11    1    4    4    0    0  0.16451604297E-01 -0.23807647489E-01 -0.64882534288E-01  0.71045504710E-01  0.51100000000E-03 0.  1.
</event>
<event>
 8    1  0.2077555E+004  0.1043930E+01  0.7957747E-01            NaN
         13   -1    0    0    0    0  0.00000000000E+00  0.00000000000E+00  0.74505805969E-08  0.10566000000E+00  0.10566000000E+00 0.  1.
     999900   -1    0    0    0    0 -0.00000000000E+00 -0.00000000000E+00 -0.74505805969E-08  0.93827000000E+00  0.93827000000E+00 0.  1.
     999902    2    1    2    0    0  0.54570936018E-02 -0.10894995102E-01  0.52032278735E-02  0.10306803068E+01  0.10305951390E+01 0.  0.
     999903    2    3    3    0    0 -0.92704609610E-01 -0.26761403581E-01 -0.91531792040E-01  0.13981268087E+00  0.43118434741E-01 0.  0.
         14    1    1    2    0    0 -0.54570936018E-02  0.10894995102E-01 -0.52032278735E-02  0.13249693172E-01  0.00000000000E+00 0.  1.
     999901    1    3    3    0    0  0.98161703212E-01  0.15866408480E-01  0.96735019913E-01  0.89086762595E+00  0.88000000000E+00 0. -1.
        -11    1    4    4    0    0 -0.52913289625E-01 -0.23028850101E-01 -0.79178852354E-01  0.97978038034E-01  0.51100000000E-03 0. -1.
         11    1    4    4    0    0 -0.39791319985E-01 -0.37325534801E-02 -0.12352939686E-01  0.41834642840E-01  0.51100000000E-03 0.  1.
</event>
<event>
 8    1  0.2077555E+004  0.1043930E+01  0.7957747E-01            NaN
         13   -1    0    0    0    0  0.00000000000E+00  0.00000000000E+00  0.74505805969E-08  0.10566000000E+00  0.10566000000E+00 0.  1.
     999900   -1    0    0    0    0 -0.00000000000E+00 -0.00000000000E+00 -0.74505805969E-08  0.93827000000E+00  0.93827000000E+00 0.  1.
     999902    2    1    2    0    0  0.59204696866E-02 -0.22419168757E-02  0.11209822219E-01  0.10310560625E+01  0.10309756863E+01 0.  0.
     999903    2    3    3    0    0  0.69062812644E-01  0.11247918048E+00 -0.19030192940E-01  0.14085252163E+00  0.45343648674E-01 0.  0.
         14    1    1    2    0    0 -0.59204696866E-02  0.22419168757E-02 -0.11209822219E-01  0.12873937501E-01  0.00000000000E+00 0. -1.
     999901    1    3    3    0    0 -0.63142342957E-01 -0.11472109736E+00  0.30240015159E-01  0.89020354087E+00  0.88000000000E+00 0. -1.
        -11    1    4    4    0    0  0.38787297843E-01  0.95015510579E-01 -0.37322756949E-02  0.10269660524E+00  0.51100000000E-03 0. -1.
         11    1    4    4    0    0  0.30275514801E-01  0.17463669903E-01 -0.15297917245E-01  0.38155916395E-01  0.51100000000E-03 0.  1.
</event>
<event>
 8    1  0.2077555E+004  0.1043930E+01  0.7957747E-01            NaN
         13   -1    0    0    0    0  0.00000000000E+00  0.00000000000E+00  0.74505805969E-08  0.10566000000E+00  0.10566000000E+00 0.  1.
     999900   -1    0    0    0    0 -0.00000000000E+00 -0.00000000000E+00 -0.74505805969E-08  0.93827000000E+00  0.93827000000E+00 0. -1.
     999902    2    1    2    0    0 -0.13415612425E-02  0.13138549964E-01 -0.37007238113E-02  0.10302144381E+01  0.10301231343E+01 0.  0.
     999903    2    3    3    0    0 -0.73150577264E-01  0.11274637316E+00 -0.18931306988E-01  0.14155802311E+00  0.40218502068E-01 0.  0.
         14    1    1    2    0    0  0.13415612425E-02 -0.13138549964E-01  0.37007238113E-02  0.13715561908E-01  0.00000000000E+00 0.  1.
     999901    1    3    3    0    0  0.71809016022E-01 -0.99607823193E-01  0.15230583177E-01  0.88865641498E+00  0.88000000000E+00 0.  1.
        -11    1    4    4    0    0 -0.26621764860E-01  0.76955898517E-01 -0.14230710796E-01  0.82666213966E-01  0.51100000000E-03 0. -1.
         11    1    4    4    0    0 -0.46528812404E-01  0.35790474640E-01 -0.47005961926E-02  0.58891809144E-01  0.51100000000E-03 0.  1.
</event>
<event>
 8    1  0.2077555E+004  0.1043930E+01  0.7957747E-01            NaN
         13   -1    0    0    0    0  0.00000000000E+00  0.00000000000E+00  0.74505805969E-08  0.10566000000E+00  0.10566000000E+00 0.  1.
     999900   -1    0    0    0    0 -0.00000000000E+00 -0.00000000000E+00 -0.74505805969E-08  0.93827000000E+00  0.93827000000E+00 0. -1.
     999902    2    1    2    0    0 -0.51067545375E-02  0.44164933645E-02  0.11447486489E-01  0.10306398043E+01  0.10305541116E+01 0.  0.
     999903    2    3    3    0    0 -0.13248867797E+00  0.86685400327E-03 -0.10498228041E-01  0.14119032918E+00  0.47649711818E-01 0.  0.
         14    1    1    2    0    0  0.51067545375E-02 -0.44164933645E-02 -0.11447486489E-01  0.13290195727E-01  0.00000000000E+00 0. -1.
     999901    1    3    3    0    0  0.12738192343E+00  0.35496393612E-02  0.21945714530E-01  0.88944947509E+00  0.88000000000E+00 0.  1.
        -11    1    4    4    0    0 -0.11930138638E+00 -0.94292468957E-02  0.29620263493E-02  0.11971117831E+00  0.51100000000E-03 0.  1.
         11    1    4    4    0    0 -0.13187291584E-01  0.10296100899E-01 -0.13460254390E-01  0.21479150875E-01  0.51100000000E-03 0. -1.
</event>
<event>
 8    1  0.2077555E+004  0.1043930E+01  0.7957747E-01            NaN
         13   -1    0    0    0    0  0.00000000000E+00  0.00000000000E+00  0.74505805969E-08  0.10566000000E+00  0.10566000000E+00 0. -1.
     999900   -1    0    0    0    0 -0.00000000000E+00 -0.00000000000E+00 -0.74505805969E-08  0.93827000000E+00  0.93827000000E+00 0.  1.
     999902    2    1    2    0    0  0.27385399294E-02 -0.10558211872E-01  0.73489489150E-02  0.10307777192E+01  0.10306938071E+01 0.  0.
     999903    2    3    3    0    0 -0.46817875022E-01 -0.17196627749E-01  0.12455595776E+00  0.14159979006E+00  0.45262307766E-01 0.  0.
         14    1    1    2    0    0 -0.27385399294E-02  0.10558211872E-01 -0.73489489150E-02  0.13152280754E-01  0.00000000000E+00 0.  1.
     999901    1    3    3    0    0  0.49556414952E-01  0.66384158763E-02 -0.11720700884E+00  0.88917792919E+00  0.88000000000E+00 0.  1.
        -11    1    4    4    0    0 -0.20966374943E-01 -0.30068722632E-01  0.53088608601E-01  0.64516497449E-01  0.51100000000E-03 0. -1.
         11    1    4    4    0    0 -0.25851500080E-01  0.12872094883E-01  0.71467349158E-01  0.77083292611E-01  0.51100000000E-03 0.  1.
</event>
<event>
 8    1  0.2224700E+004  0.1043930E+01  0.7957747E-01            NaN
         13   -1    0    0    0    0  0.00000000000E+00  0.00000000000E+00  0.74505805969E-08  0.10566000000E+00  0.10566000000E+00 0. -1.
     999900   -1    0    0    0    0 -0.00000000000E+00 -0.00000000000E+00 -0.74505805969E-08  0.93827000000E+00  0.93827000000E+00 0.  1.
     999902    2    1    2    0    0 -0.83608553927E-02 -0.15298530226E-01  0.28429061252E-02  0.10262655995E+01  0.10261135657E+01 0.  0.
     999903    2    3    3    0    0 -0.11492331376E+00 -0.32414171016E-01  0.54126128396E-01  0.13818988674E+00  0.43689363631E-01 0.  0.
         14    1    1    2    0    0  0.83608553927E-02  0.15298530226E-01 -0.28429061252E-02  0.17664400505E-01  0.00000000000E+00 0. -1.
     999901    1    3    3    0    0  0.10656245837E+00  0.17115640790E-01 -0.51283222270E-01  0.88807571275E+00  0.88000000000E+00 0.  1.
        -11    1    4    4    0    0 -0.49589747753E-01 -0.23134956799E-01  0.46402310381E-01  0.71748204423E-01  0.51100000000E-03 0. -1.
         11    1    4    4    0    0 -0.65333566007E-01 -0.92792142176E-02  0.77238180150E-02  0.66441682320E-01  0.51100000000E-03 0.  1.
</event>
<event>
 8    1  0.2077555E+004  0.1043930E+01  0.7957747E-01            NaN
         13   -1    0    0    0    0  0.00000000000E+00  0.00000000000E+00  0.74505805969E-08  0.10566000000E+00  0.10566000000E+00 0. -1.
     999900   -1    0    0    0    0 -0.00000000000E+00 -0.00000000000E+00 -0.74505805969E-08  0.93827000000E+00  0.93827000000E+00 0. -1.
     999902    2    1    2    0    0  0.34479743094E-02  0.13688035901E-01 -0.15289499420E-02  0.10297318120E+01  0.10296339234E+01 0.  0.
     999903    2    3    3    0    0  0.10140946938E+00 -0.14010962725E-01 -0.84700212283E-01  0.13996715330E+00  0.44005573365E-01 0.  0.
         14    1    1    2    0    0 -0.34479743094E-02 -0.13688035901E-01  0.15289499420E-02  0.14198187968E-01  0.00000000000E+00 0.  1.
     999901    1    3    3    0    0 -0.97961495069E-01  0.27698998626E-01  0.83171262341E-01  0.88976465873E+00  0.88000000000E+00 0.  1.
        -11    1    4    4    0    0  0.34079525077E-01  0.66363736173E-02 -0.76040038463E-02  0.35546272375E-01  0.51100000000E-03 0. -1.
         11    1    4    4    0    0  0.67329944301E-01 -0.20647336342E-01 -0.77096208437E-01  0.10442088093E+00  0.51100000000E-03 0.  1.
</event>
<event>
 8    1  0.2077555E+004  0.1043930E+01  0.7957747E-01            NaN
         13   -1    0    0    0    0  0.00000000000E+00  0.00000000000E+00  0.74505805969E-08  0.10566000000E+00  0.10566000000E+00 0.  1.
     999900   -1    0    0    0    0 -0.00000000000E+00 -0.00000000000E+00 -0.74505805969E-08  0.93827000000E+00  0.93827000000E+00 0. -1.
     999902    2    1    2    0    0  0.98824913337E-02  0.69297585921E-02 -0.73571015794E-02  0.10297945080E+01  0.10296974879E+01 0.  0.
     999903    2    3    3    0    0  0.44622714991E-02  0.81873707431E-01  0.10362844817E+00  0.13964633695E+00  0.45155601195E-01 0.  0.
         14    1    1    2    0    0 -0.98824913337E-02 -0.69297585921E-02  0.73571015794E-02  0.14135491953E-01  0.00000000000E+00 0.  1.
     999901    1    3    3    0    0  0.54202198346E-02 -0.74943948839E-01 -0.11098554975E+00  0.89014817109E+00  0.88000000000E+00 0.  1.
        -11    1    4    4    0    0 -0.15505158961E-01  0.31679518298E-01  0.62434030540E-01  0.71709630626E-01  0.51100000000E-03 0.  1.
         11    1    4    4    0    0  0.19967430460E-01  0.50194189133E-01  0.41194417627E-01  0.67936706327E-01  0.51100000000E-03 0. -1.
</event>
<event>
 8    1  0.2077555E+004  0.1043930E+01  0.7957747E-01            NaN
         13   -1    0    0    0    0  0.00000000000E+00  0.00000000000E+00  0.74505805969E-08  0.10566000000E+00  0.10566000000E+00 0. -1.
     999900   -1    0    0    0    0 -0.00000000000E+00 -0.00000000000E+00 -0.74505805969E-08  0.93827000000E+00  0.93827000000E+00 0.  1.
     999902    2    1    2    0    0 -0.86841067785E-02  0.47168012182E-02  0.96029235646E-02  0.10301503750E+01  0.10300582105E+01 0.  0.
     999903    2    3    3    0    0  0.10098768374E+00 -0.49930734147E-01 -0.66360483301E-01  0.13841908479E+00  0.45437196319E-01 0.  0.
         14    1    1    2    0    0  0.86841067785E-02 -0.47168012182E-02 -0.96029235646E-02  0.13779625004E-01  0.00000000000E+00 0.  1.
     999901    1    3    3    0    0 -0.10967179052E+00  0.54647535365E-01  0.75963406866E-01  0.89173129021E+00  0.88000000000E+00 0. -1.
        -11    1    4    4    0    0  0.54408432115E-01 -0.33969091874E-01 -0.61626982279E-01  0.88951238067E-01  0.51100000000E-03 0.  1.
         11    1    4    4    0    0  0.46579251625E-01 -0.15961642273E-01 -0.47335010220E-02  0.49467846718E-01  0.51100000000E-03 0. -1.
</event>
<event>
 8    1  0.2077555E+004  0.1043930E+01  0.7957747E-01            NaN
         13   -1    0    0    0    0  0.00000000000E+00  0.00000000000E+00  0.74505805969E-08  0.10566000000E+00  0.10566000000E+00 0. -1.
     999900   -1    0    0    0    0 -0.00000000000E+00 -0.00000000000E+00 -0.74505805969E-08  0.93827000000E+00  0.93827000000E+00 0.  1.
     999902    2    1    2    0    0 -0.14658625917E-01 -0.36786173541E-02 -0.14574918933E-02  0.10287467256E+01  0.10286346745E+01 0.  0.
     999903    2    3    3    0    0  0.86965182531E-01 -0.20033535225E-01 -0.94716974339E-01  0.13785267304E+00  0.45472725138E-01 0.  0.
         14    1    1    2    0    0  0.14658625917E-01  0.36786173541E-02  0.14574918933E-02  0.15183274417E-01  0.00000000000E+00 0. -1.
     999901    1    3    3    0    0 -0.10162380845E+00  0.16354917871E-01  0.93259482446E-01  0.89089405254E+00  0.88000000000E+00 0. -1.
        -11    1    4    4    0    0  0.32656110131E-01 -0.26224360703E-01 -0.23342828741E-01  0.47950885266E-01  0.51100000000E-03 0. -1.
         11    1    4    4    0    0  0.54309072400E-01  0.61908254775E-02 -0.71374145598E-01  0.89901787779E-01  0.51100000000E-03 0.  1.
</event>
<event>
 8    1  0.2077555E+004  0.1043930E+01  0.7957747E-01            NaN
         13   -1    0    0    0    0  0.00000000000E+00  0.00000000000E+00  0.74505805969E-08  0.10566000000E+00  0.10566000000E+00 0. -1.
     999900   -1    0    0    0    0 -0.00000000000E+00 -0.00000000000E+00 -0.74505805969E-08  0.93827000000E+00  0.93827000000E+00 0.  1.
     999902    2    1    2    0    0 -0.11360946746E-01  0.93691779379E-02  0.29733232333E-02  0.10289069092E+01  0.10287972271E+01 0.  0.
     999903    2    3    3    0    0 -0.11968957702E+00 -0.51887980643E-01 -0.22814038090E-01  0.13977670522E+00  0.44711179887E-01 0.  0.
         14    1    1    2    0    0  0.11360946746E-01 -0.93691779379E-02 -0.29733232333E-02  0.15023090802E-01  0.00000000000E+00 0. -1.
     999901    1    3    3    0    0  0.10832863027E+00  0.61257158580E-01  0.25787361323E-01  0.88913020397E+00  0.88000000000E+00 0.  1.
        -11    1    4    4    0    0 -0.10570264918E+00 -0.31830065369E-01 -0.29793161468E-01  0.11434201632E+00  0.51100000000E-03 0.  1.
         11    1    4    4    0    0 -0.13986927843E-01 -0.20057915274E-01  0.69791233777E-02  0.25434688906E-01  0.51100000000E-03 0. -1.
</event>
<event>
 7    1  0.2207418E+004  0.1043930E+01  0.7957747E-01            NaN
         13   -1    0    0    0    0  0.00000000000E+00  0.00000000000E+00  0.74505805969E-08  0.10566000000E+00  0.10566000000E+00 0. -1.
     999900   -1    0    0    0    0 -0.00000000000E+00 -0.00000000000E+00 -0.74505805969E-08  0.93827000000E+00  0.93827000000E+00 0.  1.
     999903    2    1    2    0    0 -0.71329815936E-01 -0.66479580413E-01 -0.53044061218E-01  0.11972954800E+00  0.44877778259E-01 0.  0.
         14    1    1    2    0    0 -0.32705876354E-01  0.17957702228E-02 -0.76742158211E-02  0.33642127270E-01  0.00000000000E+00 0.  1.
     999901    1    1    2    0    0  0.10403569229E+00  0.64683810191E-01  0.60718277039E-01  0.89055832473E+00  0.88000000000E+00 0.  1.
        -11    1    3    3    0    0 -0.66187913354E-03 -0.22056486820E-01 -0.20543202011E-01  0.30153125289E-01  0.51100000000E-03 0. -1.
         11    1    3    3    0    0 -0.70667936802E-01 -0.44423093594E-01 -0.32500859207E-01  0.89576422716E-01  0.51100000000E-03 0.  1.
</event>
<event>
 8    1  0.2077555E+004  0.1043930E+01  0.7957747E-01            NaN
         13   -1    0    0    0    0  0.00000000000E+00  0.00000000000E+00  0.74505805969E-08  0.10566000000E+00  0.10566000000E+00 0.  1.
     999900   -1    0    0    0    0 -0.00000000000E+00 -0.00000000000E+00 -0.74505805969E-08  0.93827000000E+00  0.93827000000E+00 0.  1.
     999902    2    1    2    0    0 -0.97516581152E-02 -0.18432823517E-02  0.68114780282E-02  0.10318930253E+01  0.10318228176E+01 0.  0.
     999903    2    3    3    0    0 -0.11695832557E+00  0.45462330799E-01  0.51759994954E-01  0.14298838493E+00  0.44950057895E-01 0.  0.
         14    1    1    2    0    0  0.97516581152E-02  0.18432823517E-02 -0.68114780282E-02  0.12036974651E-01  0.00000000000E+00 0. -1.
     999901    1    3    3    0    0  0.10720666746E+00 -0.47305613151E-01 -0.44948516926E-01  0.88890464042E+00  0.88000000000E+00 0. -1.
        -11    1    4    4    0    0 -0.75074829311E-01  0.24455319180E-01  0.54670940037E-01  0.96038874617E-01  0.51100000000E-03 0. -1.
         11    1    4    4    0    0 -0.41883496263E-01  0.21007011619E-01 -0.29109450831E-02  0.46949510313E-01  0.51100000000E-03 0.  1.
</event>
<event>
 8    1  0.2077555E+004  0.1043930E+01  0.7957747E-01            NaN
         13   -1    0    0    0    0  0.00000000000E+00  0.00000000000E+00  0.74505805969E-08  0.10566000000E+00  0.10566000000E+00 0. -1.
     999900   -1    0    0    0    0 -0.00000000000E+00 -0.00000000000E+00 -0.74505805969E-08  0.93827000000E+00  0.93827000000E+00 0. -1.
     999902    2    1    2    0    0  0.53678684889E-02  0.11161139286E-01 -0.48820937850E-02  0.10306176042E+01  0.10305316231E+01 0.  0.
     999903    2    3    3    0    0 -0.12432306401E+00  0.27651860179E-01 -0.37869848848E-01  0.14034805298E+00  0.45195142511E-01 0.  0.
         14    1    1    2    0    0 -0.53678684889E-02 -0.11161139286E-01  0.48820937850E-02  0.13312395803E-01  0.00000000000E+00 0.  1.
     999901    1    3    3    0    0  0.12969093250E+00 -0.16490720893E-01  0.32987755063E-01  0.89026955122E+00  0.88000000000E+00 0.  1.
        -11    1    4    4    0    0 -0.75667640315E-01  0.25411724227E-01 -0.44177169821E-01  0.91231743234E-01  0.51100000000E-03 0.  1.
         11    1    4    4    0    0 -0.48655423693E-01  0.22401359515E-02  0.63073209728E-02  0.49116309742E-01  0.51100000000E-03 0. -1.
</event>
<event>
 8    1  0.2077555E+004  0.1043930E+01  0.7957747E-01            NaN
         13   -1    0    0    0    0  0.00000000000E+00  0.00000000000E+00  0.74505805969E-08  0.10566000000E+00  0.10566000000E+00 0. -1.
     999900   -1    0    0    0    0 -0.00000000000E+00 -0.00000000000E+00 -0.74505805969E-08  0.93827000000E+00  0.93827000000E+00 0. -1.
     999902    2    1    2    0    0 -0.34168315570E-02  0.12728812525E-01  0.69864943353E-02  0.10290132809E+01  0.10289051578E+01 0.  0.
     999903    2    3    3    0    0  0.36742922368E-01  0.51881754957E-01  0.11710324130E+00  0.14037867842E+00  0.44172903327E-01 0.  0.
         14    1    1    2    0    0  0.34168315570E-02 -0.12728812525E-01 -0.69864943353E-02  0.14916719119E-01  0.00000000000E+00 0.  1.
     999901    1    3    3    0    0 -0.40159753925E-01 -0.39152942433E-01 -0.11011674697E+00  0.88863460247E+00  0.88000000000E+00 0. -1.
        -11    1    4    4    0    0  0.93168421591E-02  0.19787037501E-01  0.83789445634E-01  0.86598283595E-01  0.51100000000E-03 0.  1.
         11    1    4    4    0    0  0.27426080209E-01  0.32094717456E-01  0.33313795670E-01  0.53780394821E-01  0.51100000000E-03 0. -1.
</event>
<event>
 8    1  0.2077555E+004  0.1043930E+01  0.7957747E-01            NaN
         13   -1    0    0    0    0  0.00000000000E+00  0.00000000000E+00  0.74505805969E-08  0.10566000000E+00  0.10566000000E+00 0.  1.
     999900   -1    0    0    0    0 -0.00000000000E+00 -0.00000000000E+00 -0.74505805969E-08  0.93827000000E+00  0.93827000000E+00 0.  1.
     999902    2    1    2    0    0 -0.13752609685E-01 -0.67948150214E-02  0.10601147082E-01  0.10252836035E+01  0.10251140324E+01 0.  0.
     999903    2    3    3    0    0  0.13872079546E-01  0.27567298806E-01 -0.12261948274E+00  0.13416542133E+00  0.44860140183E-01 0.  0.
         14    1    1    2    0    0  0.13752609685E-01  0.67948150214E-02 -0.10601147082E-01  0.18646396536E-01  0.00000000000E+00 0.  1.
     999901    1    3    3    0    0 -0.27624689231E-01 -0.34362113827E-01  0.13322062983E+00  0.89111818214E+00  0.88000000000E+00 0. -1.
        -11    1    4    4    0    0  0.17823505397E-01  0.33288345807E-01 -0.58252289096E-01  0.69421766163E-01  0.51100000000E-03 0. -1.
         11    1    4    4    0    0 -0.39514258513E-02 -0.57210470007E-02 -0.64367193648E-01  0.64743655165E-01  0.51100000000E-03 0.  1.
</event>
<event>
 8    1  0.2077555E+004  0.1043930E+01  0.7957747E-01            NaN
         13   -1    0    0    0    0  0.00000000000E+00  0.00000000000E+00  0.74505805969E-08  0.10566000000E+00  0.10566000000E+00 0. -1.
     999900   -1    0    0    0    0 -0.00000000000E+00 -0.00000000000E+00 -0.74505805969E-08  0.93827000000E+00  0.93827000000E+00 0. -1.
     999902    2    1    2    0    0  0.92219552386E-02  0.74871192913E-02  0.80778299465E-02  0.10295650165E+01  0.10294647981E+01 0.  0.
     999903    2    3    3    0    0 -0.21638339518E-01 -0.33939888729E-01 -0.12409351641E+00  0.13819650710E+00  0.45595394243E-01 0.  0.
         14    1    1    2    0    0 -0.92219552386E-02 -0.74871192913E-02 -0.80778299465E-02  0.14364983479E-01  0.00000000000E+00 0.  1.
     999901    1    3    3    0    0  0.30860294756E-01  0.41427008020E-01  0.13217134636E+00  0.89136850942E+00  0.88000000000E+00 0.  1.
        -11    1    4    4    0    0 -0.33435316290E-01 -0.13261487546E-01 -0.61805676384E-01  0.71512168067E-01  0.51100000000E-03 0.  1.
         11    1    4    4    0    0  0.11796976772E-01 -0.20678401183E-01 -0.62287840026E-01  0.66684339035E-01  0.51100000000E-03 0. -1.
</event>
<event>
 8    1  0.2077555E+004  0.1043930E+01  0.7957747E-01            NaN
         13   -1    0    0    0    0  0.00000000000E+00  0.00000000000E+00  0.74505805969E-08  0.10566000000E+00  0.10566000000E+00 0.  1.
     999900   -1    0    0    0    0 -0.00000000000E+00 -0.00000000000E+00 -0.74505805969E-08  0.93827000000E+00  0.93827000000E+00 0.  1.
     999902    2    1    2    0    0 -0.91811007198E-03 -0.46203012264E-02 -0.12675624808E-01  0.10304073681E+01  0.10303186316E+01 0.  0.
     999903    2    3    3    0    0  0.90025637057E-01  0.90235821729E-01  0.34036193219E-01  0.13942451576E+00  0.45095612813E-01 0.  0.
         14    1    1    2    0    0  0.91811007198E-03  0.46203012264E-02  0.12675624808E-01  0.13522631911E-01  0.00000000000E+00 0.  1.
     999901    1    3    3    0    0 -0.90943747129E-01 -0.94856122955E-01 -0.46711818028E-01  0.89098285233E+00  0.88000000000E+00 0.  1.
        -11    1    4    4    0    0  0.90196083358E-01  0.70176425532E-01  0.34425006213E-01  0.11935412154E+00  0.51100000000E-03 0. -1.
         11    1    4    4    0    0 -0.17044630168E-03  0.20059396197E-01 -0.38881299414E-03  0.20070394223E-01  0.51100000000E-03 0.  1.
</event>
<event>
 8    1  0.2077555E+004  0.1043930E+01  0.7957747E-01            NaN
         13   -1    0    0    0    0  0.00000000000E+00  0.00000000000E+00  0.74505805969E-08  0.10566000000E+00  0.10566000000E+00 0.  1.
     999900   -1    0    0    0    0 -0.00000000000E+00 -0.00000000000E+00 -0.74505805969E-08  0.93827000000E+00  0.93827000000E+00 0. -1.
     999902    2    1    2    0    0  0.11180817926E-01 -0.65618057640E-02 -0.27053013512E-02  0.10306866379E+01  0.10306015520E+01 0.  0.
     999903    2    3    3    0    0 -0.32758485584E-01 -0.12600655826E+00 -0.31436123407E-01  0.14106695993E+00  0.44281895036E-01 0.  0.
         14    1    1    2    0    0 -0.11180817926E-01  0.65618057640E-02  0.27053013512E-02  0.13243362102E-01  0.00000000000E+00 0.  1.
     999901    1    3    3    0    0  0.43939303510E-01  0.11944475249E+00  0.28730822056E-01  0.88961967797E+00  0.88000000000E+00 0.  1.
        -11    1    4    4    0    0 -0.24973922187E-01 -0.26399404931E-01 -0.60306789420E-04  0.36344052168E-01  0.51100000000E-03 0.  1.
         11    1    4    4    0    0 -0.77845633972E-02 -0.99607153324E-01 -0.31375816618E-01  0.10472290776E+00  0.51100000000E-03 0. -1.
</event>
<event>
 8    1  0.2077555E+004  0.1043930E+01  0.7957747E-01            NaN
         13   -1    0    0    0    0  0.00000000000E+00  0.00000000000E+00  0.74505805969E-08  0.10566000000E+00  0.10566000000E+00 0. -1.
     999900   -1    0    0    0    0 -0.00000000000E+00 -0.00000000000E+00 -0.74505805969E-08  0.93827000000E+00  0.93827000000E+00 0.  1.
     999902    2    1    2    0    0  0.97857506404E-02  0.53535878530E-02  0.86004363801E-02  0.10298449255E+01  0.10297486010E+01 0.  0.
     999903    2    3    3    0    0  0.78520500000E-01 -0.10584127125E+00  0.15351091833E-01  0.14016277223E+00  0.45189634634E-01 0.  0.
         14    1    1    2    0    0 -0.97857506404E-02 -0.53535878530E-02 -0.86004363801E-02  0.14085074527E-01  0.00000000000E+00 0.  1.
     999901    1    3    3    0    0 -0.68734749359E-01  0.11119485910E+00 -0.67506554530E-02  0.88968215325E+00  0.88000000000E+00 0.  1.
        -11    1    4    4    0    0  0.46163163707E-01 -0.28560811461E-01 -0.30912133473E-02  0.54374390624E-01  0.51100000000E-03 0.  1.
         11    1    4    4    0    0  0.32357336293E-01 -0.77280459784E-01  0.18442305180E-01  0.85788381601E-01  0.51100000000E-03 0. -1.
</event>
<event>
 8    1  0.2077555E+004  0.1043930E+01  0.7957747E-01            NaN
         13   -1    0    0    0    0  0.00000000000E+00  0.00000000000E+00  0.74505805969E-08  0.10566000000E+00  0.10566000000E+00 0. -1.
     999900   -1    0    0    0    0 -0.00000000000E+00 -0.00000000000E+00 -0.74505805969E-08  0.93827000000E+00  0.93827000000E+00 0. -1.
     999902    2    1    2    0    0 -0.52339119257E-02  0.66006247723E-02  0.10864723908E-01  0.10301821163E+01  0.10300903787E+01 0.  0.
     999903    2    3    3    0    0 -0.58317897443E-01 -0.11876692260E+00 -0.28706585938E-02  0.13960725014E+00  0.44445298343E-01 0.  0.
         14    1    1    2    0    0  0.52339119257E-02 -0.66006247723E-02 -0.10864723908E-01  0.13747883729E-01  0.00000000000E+00 0.  1.
     999901    1    3    3    0    0  0.53083985517E-01  0.12536754737E+00  0.13735382501E-01  0.89057486613E+00  0.88000000000E+00 0.  1.
        -11    1    4    4    0    0 -0.53707628280E-01 -0.10378730279E+00  0.12649733652E-01  0.11754399363E+00  0.51100000000E-03 0. -1.
         11    1    4    4    0    0 -0.46102691629E-02 -0.14979619812E-01 -0.15520392245E-01  0.22063256512E-01  0.51100000000E-03 0.  1.
</event>
<event>
 8    1  0.2077555E+004  0.1043930E+01  0.7957747E-01            NaN
         13   -1    0    0    0    0  0.00000000000E+00  0.00000000000E+00  0.74505805969E-08  0.10566000000E+00  0.10566000000E+00 0. -1.
     999900   -1    0    0    0    0 -0.00000000000E+00 -0.00000000000E+00 -0.74505805969E-08  0.93827000000E+00  0.93827000000E+00 0.  1.
     999902    2    1    2    0    0 -0.30884630276E-02 -0.86610275463E-02  0.18000322138E-01  0.10237170438E+01  0.10235174752E+01 0.  0.
     999903    2    3    3    0    0 -0.11016700287E+00 -0.45708172289E-01 -0.42297626000E-01  0.13440599180E+00  0.45275555550E-01 0.  0.
         14    1    1    2    0    0  0.30884630276E-02  0.86610275463E-02 -0.18000322138E-01  0.20212956219E-01  0.00000000000E+00 0. -1.
     999901    1    3    3    0    0  0.10707853984E+00  0.37047144743E-01  0.60297948139E-01  0.88931105198E+00  0.88000000000E+00 0. -1.
        -11    1    4    4    0    0 -0.22875545141E-01 -0.56782559356E-02  0.93539316345E-02  0.25363168453E-01  0.51100000000E-03 0.  1.
         11    1    4    4    0    0 -0.87291457730E-01 -0.40029916353E-01 -0.51651557635E-01  0.10904282335E+00  0.51100000000E-03 0. -1.
</event>
<event>
 8    1  0.2077555E+004  0.1043930E+01  0.7957747E-01            NaN
         13   -1    0    0    0    0  0.00000000000E+00  0.00000000000E+00  0.74505805969E-08  0.10566000000E+00  0.10566000000E+00 0. -1.
     999900   -1    0    0    0    0 -0.00000000000E+00 -0.00000000000E+00 -0.74505805969E-08  0.93827000000E+00  0.93827000000E+00 0.  1.
     999902    2    1    2    0    0  0.57450671836E-02 -0.82267495160E-02 -0.94071489889E-02  0.10301757404E+01  0.10300839172E+01 0.  0.
     999903    2    3    3    0    0  0.25197800280E-01 -0.10546103197E+00  0.76801055883E-01  0.14042028576E+00  0.45414711990E-01 0.  0.
         14    1    1    2    0    0 -0.57450671836E-02  0.82267495160E-02  0.94071489889E-02  0.13754259582E-01  0.00000000000E+00 0. -1.
     999901    1    3    3    0    0 -0.19452733097E-01  0.97234282452E-01 -0.86208204872E-01  0.88975545466E+00  0.88000000000E+00 0.  1.
        -11    1    4    4    0    0 -0.72811431043E-03 -0.18109720704E-01 -0.40774110063E-02  0.18584362673E-01  0.51100000000E-03 0.  1.
         11    1    4    4    0    0  0.25925914591E-01 -0.87351311264E-01  0.80878466890E-01  0.12183592309E+00  0.51100000000E-03 0. -1.
</event>
<event>
 8    1  0.2077555E+004  0.1043930E+01  0.7957747E-01            NaN
         13   -1    0    0    0    0  0.00000000000E+00  0.00000000000E+00  0.74505805969E-08  0.10566000000E+00  0.10566000000E+00 0.  1.
     999900   -1    0    0    0    0 -0.00000000000E+00 -0.00000000000E+00 -0.74505805969E-08  0.93827000000E+00  0.93827000000E+00 0.  1.
     999902    2    1    2    0    0  0.30758498206E-02  0.12685423086E-01  0.34382795611E-02  0.10304317565E+01  0.10303433419E+01 0.  0.
     999903    2    3    3    0    0 -0.76104835251E-01 -0.90870197095E-01 -0.56549321903E-01  0.13880859637E+00  0.44951773613E-01 0.  0.
         14    1    1    2    0    0 -0.30758498206E-02 -0.12685423086E-01 -0.34382795611E-02  0.13498243491E-01  0.00000000000E+00 0.  1.
     999901    1    3    3    0    0  0.79180685072E-01  0.10355562018E+00  0.59987601464E-01  0.89162316013E+00  0.88000000000E+00 0.  1.
        -11    1    4    4    0    0 -0.19839567851E-01 -0.58002972356E-01 -0.22649117815E-01  0.65354394753E-01  0.51100000000E-03 0.  1.
         11    1    4    4    0    0 -0.56265267400E-01 -0.32867224739E-01 -0.33900204089E-01  0.73454201622E-01  0.51100000000E-03 0. -1.
</event>
<event>
 8    1  0.2077555E+004  0.1043930E+01  0.7957747E-01            NaN
         13   -1    0    0    0    0  0.00000000000E+00  0.00000000000E+00  0.74505805969E-08  0.10566000000E+00  0.10566000000E+00 0. -1.
     999900   -1    0    0    0    0 -0.00000000000E+00 -0.00000000000E+00 -0.74505805969E-08  0.93827000000E+00  0.93827000000E+00 0. -1.
     999902    2    1    2    0    0 -0.10670247109E-01  0.17953401140E-02 -0.86688466220E-02  0.10300654293E+01  0.10299721172E+01 0.  0.
     999903    2    3    3    0    0 -0.84656652502E-01 -0.88265271540E-01  0.51738871479E-01  0.14032726872E+00  0.45357739704E-01 0.  0.
         14    1    1    2    0    0  0.10670247109E-01 -0.17953401140E-02  0.86688466220E-02  0.13864570720E-01  0.00000000000E+00 0.  1.
     999901    1    3    3    0    0  0.73986405393E-01  0.90060611654E-01 -0.60407718102E-01  0.88973816056E+00  0.88000000000E+00 0.  1.
        -11    1    4    4    0    0 -0.48338553530E-01 -0.19133513763E-01  0.25797719755E-01  0.58038698916E-01  0.51100000000E-03 0. -1.
         11    1    4    4    0    0 -0.36318098972E-01 -0.69131757777E-01  0.25941151724E-01  0.82288569802E-01  0.51100000000E-03 0.  1.
</event>
<event>
 8    1  0.2077555E+004  0.1043930E+01  0.7957747E-01            NaN
         13   -1    0    0    0    0  0.00000000000E+00  0.00000000000E+00  0.74505805969E-08  0.10566000000E+00  0.10566000000E+00 0.  1.
     999900   -1    0    0    0    0 -0.00000000000E+00 -0.00000000000E+00 -0.74505805969E-08  0.93827000000E+00  0.93827000000E+00 0. -1.
     999902    2    1    2    0    0 -0.69648711997E-02  0.10686563136E-01  0.50005910351E-02  0.10302289791E+01  0.10301378701E+01 0.  0.
     999903    2    3    3    0    0  0.33553852457E-01 -0.57725137754E-01  0.11401763410E+00  0.13994439346E+00  0.46112469357E-01 0.  0.
         14    1    1    2    0    0  0.69648711997E-02 -0.10686563136E-01 -0.50005910351E-02  0.13701020881E-01  0.00000000000E+00 0. -1.
     999901    1    3    3    0    0 -0.40518723656E-01  0.68411700889E-01 -0.10901704307E+00  0.89028458566E+00  0.88000000000E+00 0. -1.
        -11    1    4    4    0    0  0.40598085879E-01 -0.38474992552E-01  0.10157935729E+00  0.11596187554E+00  0.51100000000E-03 0. -1.
         11    1    4    4    0    0 -0.70442334228E-02 -0.19250145202E-01  0.12438276811E-01  0.23982517921E-01  0.51100000000E-03 0.  1.
</event>
<event>
 8    1  0.2077555E+004  0.1043930E+01  0.7957747E-01            NaN
         13   -1    0    0    0    0  0.00000000000E+00  0.00000000000E+00  0.74505805969E-08  0.10566000000E+00  0.10566000000E+00 0. -1.
     999900   -1    0    0    0    0 -0.00000000000E+00 -0.00000000000E+00 -0.74505805969E-08  0.93827000000E+00  0.93827000000E+00 0. -1.
     999902    2    1    2    0    0 -0.59736280988E-02 -0.10228850433E-01 -0.83311550754E-02  0.10294482267E+01  0.10293463604E+01 0.  0.
     999903    2    3    3    0    0 -0.83246770240E-02  0.12683138004E+00 -0.32579946512E-01  0.13850544619E+00  0.44348692200E-01 0.  0.
         14    1    1    2    0    0  0.59736280988E-02  0.10228850433E-01  0.83311550754E-02  0.14481773328E-01  0.00000000000E+00 0. -1.
     999901    1    3    3    0    0  0.23510489252E-02 -0.13706023047E+00  0.24248791436E-01  0.89094278048E+00  0.88000000000E+00 0.  1.
        -11    1    4    4    0    0 -0.92941328007E-02  0.65568014578E-01  0.53520367977E-02  0.66441333966E-01  0.51100000000E-03 0. -1.
         11    1    4    4    0    0  0.96945577668E-03  0.61263365459E-01 -0.37931983309E-01  0.72064112224E-01  0.51100000000E-03 0.  1.
</event>
<event>
 8    1  0.2077555E+004  0.1043930E+01  0.7957747E-01            NaN
         13   -1    0    0    0    0  0.00000000000E+00  0.00000000000E+00  0.74505805969E-08  0.10566000000E+00  0.10566000000E+00 0.  1.
     999900   -1    0    0    0    0 -0.00000000000E+00 -0.00000000000E+00 -0.74505805969E-08  0.93827000000E+00  0.93827000000E+00 0. -1.
     999902    2    1    2    0    0  0.41879491372E-02 -0.14006059343E-01 -0.22546194919E-02  0.10291383833E+01  0.10290320792E+01 0.  0.
     999903    2    3    3    0    0 -0.47389438033E-01 -0.75061068882E-01  0.98074739924E-01  0.13983870295E+00  0.45346282472E-01 0.  0.
         14    1    1    2    0    0 -0.41879491372E-02  0.14006059343E-01  0.22546194919E-02  0.14791616725E-01  0.00000000000E+00 0. -1.
     999901    1    3    3    0    0  0.51577387170E-01  0.61055009539E-01 -0.10032935942E+00  0.88929968032E+00  0.88000000000E+00 0. -1.
        -11    1    4    4    0    0 -0.21329693499E-01 -0.68782661998E-01  0.79227404965E-01  0.10706658318E+00  0.51100000000E-03 0. -1.
         11    1    4    4    0    0 -0.26059744534E-01 -0.62784068839E-02  0.18847334959E-01  0.32772119770E-01  0.51100000000E-03 0.  1.
</event>
<event>
 8    1  0.2077555E+004  0.1043930E+01  0.7957747E-01            NaN
         13   -1    0    0    0    0  0.00000000000E+00  0.00000000000E+00  0.74505805969E-08  0.10566000000E+00  0.10566000000E+00 0.  1.
     999900   -1    0    0    0    0 -0.00000000000E+00 -0.00000000000E+00 -0.74505805969E-08  0.93827000000E+00  0.93827000000E+00 0. -1.
     999902    2    1    2    0    0  0.15456377860E-02 -0.26179112388E-02  0.13531761616E-01  0.10300609327E+01  0.10299675597E+01 0.  0.
     999903    2    3    3    0    0 -0.87333236924E-01 -0.11487007487E-01 -0.99126345225E-01  0.13839397454E+00  0.39595634325E-01 0.  0.
         14    1    1    2    0    0 -0.15456377860E-02  0.26179112388E-02 -0.13531761616E-01  0.13869067303E-01  0.00000000000E+00 0. -1.
     999901    1    3    3    0    0  0.88878874710E-01  0.88690962481E-02  0.11265810684E+00  0.89166695816E+00  0.88000000000E+00 0.  1.
        -11    1    4    4    0    0 -0.52851238077E-01  0.62628106406E-02 -0.35832142225E-01  0.64161356756E-01  0.51100000000E-03 0.  1.
         11    1    4    4    0    0 -0.34481998847E-01 -0.17749818128E-01 -0.63294203000E-01  0.74232617780E-01  0.51100000000E-03 0. -1.
</event>
<event>
 8    1  0.2077555E+004  0.1043930E+01  0.7957747E-01            NaN
         13   -1    0    0    0    0  0.00000000000E+00  0.00000000000E+00  0.74505805969E-08  0.10566000000E+00  0.10566000000E+00 0.  1.
     999900   -1    0    0    0    0 -0.00000000000E+00 -0.00000000000E+00 -0.74505805969E-08  0.93827000000E+00  0.93827000000E+00 0. -1.
     999902    2    1    2    0    0 -0.13662660297E-01 -0.87674971791E-02  0.92336083981E-03  0.10276699296E+01  0.10275412860E+01 0.  0.
     999903    2    3    3    0    0 -0.82953431464E-01 -0.94305154402E-01 -0.41940557691E-01  0.13977623257E+00  0.44762158940E-01 0.  0.
         14    1    1    2    0    0  0.13662660297E-01  0.87674971791E-02 -0.92336083981E-03  0.16260070370E-01  0.00000000000E+00 0. -1.
     999901    1    3    3    0    0  0.69290771166E-01  0.85537657222E-01  0.42863918531E-01  0.88789369706E+00  0.88000000000E+00 0.  1.
        -11    1    4    4    0    0 -0.34660806670E-02 -0.21803627402E-01 -0.20379645910E-01  0.30050007846E-01  0.51100000000E-03 0.  1.
         11    1    4    4    0    0 -0.79487350797E-01 -0.72501526999E-01 -0.21560911781E-01  0.10972622472E+00  0.51100000000E-03 0. -1.
</event>
<event>
 8    1  0.2077555E+004  0.1043930E+01  0.7957747E-01            NaN
         13   -1    0    0    0    0  0.00000000000E+00  0.00000000000E+00  0.74505805969E-08  0.10566000000E+00  0.10566000000E+00 0.  1.
     999900   -1    0    0    0    0 -0.00000000000E+00 -0.00000000000E+00 -0.74505805969E-08  0.93827000000E+00  0.93827000000E+00 0. -1.
     999902    2    1    2    0    0 -0.67971781425E-02  0.60161015076E-02  0.10271196469E-01  0.10302226084E+01  0.10301314141E+01 0.  0.
     999903    2    3    3    0    0  0.60458114678E-01 -0.15914866829E-01  0.11782495280E+00  0.14085651262E+00  0.45269979356E-01 0.  0.
         14    1    1    2    0    0  0.67971781425E-02 -0.60161015076E-02 -0.10271196469E-01  0.13707391618E-01  0.00000000000E+00 0. -1.
     999901    1    3    3    0    0 -0.67255292821E-01  0.21930968337E-01 -0.10755375633E+00  0.88936609576E+00  0.88000000000E+00 0. -1.
        -11    1    4    4    0    0 -0.66819509037E-02  0.27882482737E-02  0.14594092867E-01  0.16299431399E-01  0.51100000000E-03 0. -1.
         11    1    4    4    0    0  0.67140065582E-01 -0.18703115103E-01  0.10323085993E+00  0.12455708122E+00  0.51100000000E-03 0.  1.
</event>
<event>
 8    1  0.2077555E+004  0.1043930E+01  0.7957747E-01            NaN
         13   -1    0    0    0    0  0.00000000000E+00  0.00000000000E+00  0.74505805969E-08  0.10566000000E+00  0.10566000000E+00 0.  1.
     999900   -1    0    0    0    0 -0.00000000000E+00 -0.00000000000E+00 -0.74505805969E-08  0.93827000000E+00  0.93827000000E+00 0.  1.
     999902    2    1    2    0    0 -0.56277421595E-02 -0.12825213136E-01  0.10365953769E-02  0.10298860652E+01  0.10297903064E+01 0.  0.
     999903    2    3    3    0    0 -0.68227628580E-01  0.22156521051E-01  0.11193070325E+00  0.14003216112E+00  0.43984123151E-01 0.  0.
         14    1    1    2    0    0  0.56277421595E-02  0.12825213136E-01 -0.10365953769E-02  0.14043934768E-01  0.00000000000E+00 0. -1.
     999901    1    3    3    0    0  0.62599886421E-01 -0.34981734187E-01 -0.11089410788E+00  0.88985390411E+00  0.88000000000E+00 0.  1.
        -11    1    4    4    0    0 -0.68696323126E-02 -0.10369205955E-01  0.30898018957E-01  0.33311574216E-01  0.51100000000E-03 0.  1.
         11    1    4    4    0    0 -0.61357996267E-01  0.32525727005E-01  0.81032684297E-01  0.10672058690E+00  0.51100000000E-03 0. -1.
</event>
<event>
 8    1  0.2077555E+004  0.1043930E+01  0.7957747E-01            NaN
         13   -1    0    0    0    0  0.00000000000E+00  0.00000000000E+00  0.74505805969E-08  0.10566000000E+00  0.10566000000E+00 0. -1.
     999900   -1    0    0    0    0 -0.00000000000E+00 -0.00000000000E+00 -0.74505805969E-08  0.93827000000E+00  0.93827000000E+00 0. -1.
     999902    2    1    2    0    0  0.44060238053E-02  0.10189452042E-01 -0.69852166115E-02  0.10308139324E+01  0.10307304846E+01 0.  0.
     999903    2    3    3    0    0  0.72689553688E-01 -0.10911794448E+00 -0.23605952972E-01  0.13998670772E+00  0.42994654322E-01 0.  0.
         14    1    1    2    0    0 -0.44060238053E-02 -0.10189452042E-01  0.69852166115E-02  0.13116067619E-01  0.00000000000E+00 0. -1.
     999901    1    3    3    0    0 -0.68283529883E-01  0.11930739652E+00  0.16620736360E-01  0.89082722466E+00  0.88000000000E+00 0. -1.
        -11    1    4    4    0    0  0.76131390977E-01 -0.87071000926E-01 -0.19935264195E-01  0.11736704722E+00  0.51100000000E-03 0.  1.
         11    1    4    4    0    0 -0.34418372896E-02 -0.22046943552E-01 -0.36706887765E-02  0.22619660497E-01  0.51100000000E-03 0. -1.
</event>
<event>
 8    1  0.2077555E+004  0.1043930E+01  0.7957747E-01            NaN
         13   -1    0    0    0    0  0.00000000000E+00  0.00000000000E+00  0.74505805969E-08  0.10566000000E+00  0.10566000000E+00 0.  1.
     999900   -1    0    0    0    0 -0.00000000000E+00 -0.00000000000E+00 -0.74505805969E-08  0.93827000000E+00  0.93827000000E+00 0.  1.
     999902    2    1    2    0    0  0.11797087998E-01  0.21134502394E-02 -0.67830356343E-02  0.10301587426E+01  0.10300666908E+01 0.  0.
     999903    2    3    3    0    0  0.12088952657E+00  0.20199037646E-01  0.53672167819E-01  0.14118007008E+00  0.45042555796E-01 0.  0.
         14    1    1    2    0    0 -0.11797087998E-01 -0.21134502394E-02  0.67830356343E-02  0.13771257370E-01  0.00000000000E+00 0.  1.
     999901    1    3    3    0    0 -0.10909243857E+00 -0.18085587406E-01 -0.60455203454E-01  0.88897867255E+00  0.88000000000E+00 0. -1.
        -11    1    4    4    0    0  0.64545909465E-01 -0.10269173664E-01  0.17697165682E-01  0.67713227294E-01  0.51100000000E-03 0.  1.
         11    1    4    4    0    0  0.56343617106E-01  0.30468211309E-01  0.35975002137E-01  0.73466842785E-01  0.51100000000E-03 0. -1.
</event>
<event>
 8    1  0.2077555E+004  0.1043930E+01  0.7957747E-01            NaN
         13   -1    0    0    0    0  0.00000000000E+00  0.00000000000E+00  0.74505805969E-08  0.10566000000E+00  0.10566000000E+00 0. -1.
     999900   -1    0    0    0    0 -0.00000000000E+00 -0.00000000000E+00 -0.74505805969E-08  0.93827000000E+00  0.93827000000E+00 0. -1.
     999902    2    1    2    0    0 -0.14812725878E-01 -0.43945211833E-02  0.81877139143E-02  0.10264437962E+01  0.10262948404E+01 0.  0.
     999903    2    3    3    0    0 -0.73782451594E-01  0.53850777917E-01  0.93813963730E-01  0.13841125283E+00  0.44864893556E-01 0.  0.
         14    1    1    2    0    0  0.14812725878E-01  0.43945211833E-02 -0.81877139143E-02  0.17486203805E-01  0.00000000000E+00 0.  1.
     999901    1    3    3    0    0  0.58969725716E-01 -0.58245299100E-01 -0.85626249815E-01  0.88803254337E+00  0.88000000000E+00 0. -1.
        -11    1    4    4    0    0 -0.41676284537E-01  0.54903696915E-01  0.71351443679E-01  0.99209970587E-01  0.51100000000E-03 0. -1.
         11    1    4    4    0    0 -0.32106167057E-01 -0.10529189976E-02  0.22462520051E-01  0.39201282243E-01  0.51100000000E-03 0.  1.
</event>
<event>
 8    1  0.2077555E+004  0.1043930E+01  0.7957747E-01            NaN
         13   -1    0    0    0    0  0.00000000000E+00  0.00000000000E+00  0.74505805969E-08  0.10566000000E+00  0.10566000000E+00 0. -1.
     999900   -1    0    0    0    0 -0.00000000000E+00 -0.00000000000E+00 -0.74505805969E-08  0.93827000000E+00  0.93827000000E+00 0. -1.
     999902    2    1    2    0    0  0.17391494004E-02 -0.96662720036E-02 -0.78591297220E-02  0.10313511537E+01  0.10312744420E+01 0.  0.
     999903    2    3    3    0    0  0.99382365406E-02  0.13206489895E+00 -0.99355379674E-03  0.13994659569E+00  0.45212348050E-01 0.  0.
         14    1    1    2    0    0 -0.17391494004E-02  0.96662720036E-02  0.78591297220E-02  0.12578846333E-01  0.00000000000E+00 0. -1.
     999901    1    3    3    0    0 -0.81990871401E-02 -0.14173117095E+00 -0.68655759253E-02  0.89140455798E+00  0.88000000000E+00 0. -1.
        -11    1    4    4    0    0 -0.17455320179E-01  0.62990324194E-01 -0.47767705171E-02  0.65540428761E-01  0.51100000000E-03 0.  1.
         11    1    4    4    0    0  0.27393556720E-01  0.69074574754E-01  0.37832167203E-02  0.74406166928E-01  0.51100000000E-03 0. -1.
</event>
<event>
 8    1  0.2077555E+004  0.1043930E+01  0.7957747E-01            NaN
         13   -1    0    0    0    0  0.00000000000E+00  0.00000000000E+00  0.74505805969E-08  0.10566000000E+00  0.10566000000E+00 0. -1.
     999900   -1    0    0    0    0 -0.00000000000E+00 -0.00000000000E+00 -0.74505805969E-08  0.93827000000E+00  0.93827000000E+00 0.  1.
     999902    2    1    2    0    0 -0.12947024445E-01 -0.24805823332E-03  0.61559779826E-02  0.10295918328E+01  0.10294919908E+01 0.  0.
     999903    2    3    3    0    0 -0.97924558582E-01  0.77853578844E-01  0.48423966225E-01  0.14104941405E+00  0.43585063795E-01 0.  0.
         14    1    1    2    0    0  0.12947024445E-01  0.24805823332E-03 -0.61559779826E-02  0.14338167239E-01  0.00000000000E+00 0.  1.
     999901    1    3    3    0    0  0.84977534138E-01 -0.78101637077E-01 -0.42267988242E-01  0.88854241871E+00  0.88000000000E+00 0.  1.
        -11    1    4    4    0    0 -0.58372631440E-01  0.39411500569E-01  0.49148937512E-01  0.85886609305E-01  0.51100000000E-03 0.  1.
         11    1    4    4    0    0 -0.39551927142E-01  0.38442078274E-01 -0.72497128760E-03  0.55162804743E-01  0.51100000000E-03 0. -1.
</event>
<event>
 8    1  0.2077555E+004  0.1043930E+01  0.7957747E-01            NaN
         13   -1    0    0    0    0  0.00000000000E+00  0.00000000000E+00  0.74505805969E-08  0.10566000000E+00  0.10566000000E+00 0.  1.
     999900   -1    0    0    0    0 -0.00000000000E+00 -0.00000000000E+00 -0.74505805969E-08  0.93827000000E+00  0.93827000000E+00 0.  1.
     999902    2    1    2    0    0 -0.93241861928E-02  0.26247967534E-02 -0.10350210938E-01  0.10297540742E+01  0.10296564944E+01 0.  0.
     999903    2    3    3    0    0 -0.61285216997E-01  0.64263981527E-01  0.97749904873E-01  0.13948165922E+00  0.44881535301E-01 0.  0.
         14    1    1    2    0    0  0.93241861928E-02 -0.26247967534E-02  0.10350210938E-01  0.14175925811E-01  0.00000000000E+00 0.  1.
     999901    1    3    3    0    0  0.51961030804E-01 -0.61639184774E-01 -0.10810011581E+00  0.89027241497E+00  0.88000000000E+00 0.  1.
        -11    1    4    4    0    0 -0.43042225683E-01  0.14139048390E-01  0.35908632181E-01  0.57812082364E-01  0.51100000000E-03 0. -1.
         11    1    4    4    0    0 -0.18242991314E-01  0.50124933137E-01  0.61841272692E-01  0.81669576852E-01  0.51100000000E-03 0.  1.
</event>
<event>
 8    1  0.2077555E+004  0.1043930E+01  0.7957747E-01            NaN
         13   -1    0    0    0    0  0.00000000000E+00  0.00000000000E+00  0.74505805969E-08  0.10566000000E+00  0.10566000000E+00 0.  1.
     999900   -1    0    0    0    0 -0.00000000000E+00 -0.00000000000E+00 -0.74505805969E-08  0.93827000000E+00  0.93827000000E+00 0. -1.
     999902    2    1    2    0    0  0.12330385295E-01  0.41939452612E-02  0.70511394949E-02  0.10291196608E+01  0.10290130855E+01 0.  0.
     999903    2    3    3    0    0 -0.10641582339E-03 -0.11260246630E+00  0.70398449587E-01  0.13905845086E+00  0.41255112534E-01 0.  0.
         14    1    1    2    0    0 -0.12330385295E-01 -0.41939452612E-02 -0.70511394949E-02  0.14810339178E-01  0.00000000000E+00 0. -1.
     999901    1    3    3    0    0  0.12436801119E-01  0.11679641157E+00 -0.63347310092E-01  0.89006120996E+00  0.88000000000E+00 0. -1.
        -11    1    4    4    0    0  0.37104414646E-02 -0.13479128482E-01 -0.45707750587E-02  0.14717587646E-01  0.51100000000E-03 0.  1.
         11    1    4    4    0    0 -0.38168572880E-02 -0.99123337823E-01  0.74969224646E-01  0.12434086322E+00  0.51100000000E-03 0. -1.
</event>
<event>
 8    1  0.2077555E+004  0.1043930E+01  0.7957747E-01            NaN
         13   -1    0    0    0    0  0.00000000000E+00  0.00000000000E+00  0.74505805969E-08  0.10566000000E+00  0.10566000000E+00 0.  1.
     999900   -1    0    0    0    0 -0.00000000000E+00 -0.00000000000E+00 -0.74505805969E-08  0.93827000000E+00  0.93827000000E+00 0. -1.
     999902    2    1    2    0    0 -0.59520449020E-02  0.86256923678E-02  0.85650655990E-02  0.10303952390E+01  0.10303063422E+01 0.  0.
     999903    2    3    3    0    0 -0.80973192378E-01 -0.54181140380E-01 -0.89886730001E-01  0.13951610752E+00  0.43507081831E-01 0.  0.
         14    1    1    2    0    0  0.59520449020E-02 -0.86256923678E-02 -0.85650655990E-02  0.13534761027E-01  0.00000000000E+00 0.  1.
     999901    1    3    3    0    0  0.75021147476E-01  0.62806832748E-01  0.98451795600E-01  0.89087913146E+00  0.88000000000E+00 0. -1.
        -11    1    4    4    0    0 -0.33286121889E-01 -0.28898332969E-01 -0.68494197985E-01  0.81454256104E-01  0.51100000000E-03 0. -1.
         11    1    4    4    0    0 -0.47687070489E-01 -0.25282807411E-01 -0.21392532016E-01  0.58061851412E-01  0.51100000000E-03 0.  1.
</event>
<event>
 8    1  0.2077555E+004  0.1043930E+01  0.7957747E-01            NaN
         13   -1    0    0    0    0  0.00000000000E+00  0.00000000000E+00  0.74505805969E-08  0.10566000000E+00  0.10566000000E+00 0. -1.
     999900   -1    0    0    0    0 -0.00000000000E+00 -0.00000000000E+00 -0.74505805969E-08  0.93827000000E+00  0.93827000000E+00 0.  1.
     999902    2    1    2    0    0 -0.11518977829E-01  0.93517933040E-02  0.17249108351E-02  0.10289928582E+01  0.10288844367E+01 0.  0.
     999903    2    3    3    0    0  0.44693804520E-01 -0.11473929543E+00 -0.41862142973E-01  0.13744459451E+00  0.44451495684E-01 0.  0.
         14    1    1    2    0    0  0.11518977829E-01 -0.93517933040E-02 -0.17249108351E-02  0.14937141816E-01  0.00000000000E+00 0. -1.
     999901    1    3    3    0    0 -0.56212782349E-01  0.12409108873E+00  0.43587053809E-01  0.89154826367E+00  0.88000000000E+00 0. -1.
        -11    1    4    4    0    0  0.75174168327E-02 -0.78886322080E-01 -0.24213565912E-01  0.82862061659E-01  0.51100000000E-03 0.  1.
         11    1    4    4    0    0  0.37176387687E-01 -0.35852973345E-01 -0.17648577061E-01  0.54582532851E-01  0.51100000000E-03 0. -1.
</event>
<event>
 8    1  0.2365316E+004  0.1043930E+01  0.7957747E-01            NaN
         13   -1    0    0    0    0  0.00000000000E+00  0.00000000000E+00  0.74505805969E-08  0.10566000000E+00  0.10566000000E+00 0.  1.
     999900   -1    0    0    0    0 -0.00000000000E+00 -0.00000000000E+00 -0.74505805969E-08  0.93827000000E+00  0.93827000000E+00 0. -1.
     999902    2    1    2    0    0  0.50593493351E-02  0.53586164749E-02  0.11596259936E-01  0.10301900935E+01  0.10300984631E+01 0.  0.
     999903    2    3    3    0    0  0.15603193562E-01 -0.43029454385E-01 -0.12286433871E+00  0.13860037247E+00  0.44938000945E-01 0.  0.
         14    1    1    2    0    0 -0.50593493351E-02 -0.53586164749E-02 -0.11596259936E-01  0.13739906503E-01  0.00000000000E+00 0. -1.
     999901    1    3    3    0    0 -0.10543844227E-01  0.48388070860E-01  0.13446059864E+00  0.89158972103E+00  0.88000000000E+00 0. -1.
        -11    1    4    4    0    0 -0.66022352471E-02 -0.20583149845E-02 -0.59712823079E-01  0.60114129220E-01  0.51100000000E-03 0. -1.
         11    1    4    4    0    0  0.22205428809E-01 -0.40971139400E-01 -0.63151515629E-01  0.78486243251E-01  0.51100000000E-03 0.  1.
</event>
<event>
 8    1  0.2077555E+004  0.1043930E+01  0.7957747E-01            NaN
         13   -1    0    0    0    0  0.00000000000E+00  0.00000000000E+00  0.74505805969E-08  0.10566000000E+00  0.10566000000E+00 0. -1.
     999900   -1    0    0    0    0 -0.00000000000E+00 -0.00000000000E+00 -0.74505805969E-08  0.93827000000E+00  0.93827000000E+00 0. -1.
     999902    2    1    2    0    0 -0.13210546683E-01  0.48565790289E-02 -0.35503844151E-02  0.10294141420E+01  0.10293117922E+01 0.  0.
     999903    2    3    3    0    0 -0.85924567772E-01 -0.82150805639E-01  0.58735338081E-01  0.13995524748E+00  0.44786662553E-01 0.  0.
         14    1    1    2    0    0  0.13210546683E-01 -0.48565790289E-02  0.35503844151E-02  0.14515857984E-01  0.00000000000E+00 0. -1.
     999901    1    3    3    0    0  0.72714021090E-01  0.87007384668E-01 -0.62285722496E-01  0.88945889454E+00  0.88000000000E+00 0.  1.
        -11    1    4    4    0    0 -0.63824120276E-01 -0.80762243358E-01  0.57173620638E-01  0.11775033885E+00  0.51100000000E-03 0. -1.
         11    1    4    4    0    0 -0.22100447497E-01 -0.13885622809E-02  0.15617174428E-02  0.22204908627E-01  0.51100000000E-03 0.  1.
</event>
<event>
 7    1  0.2077555E+004  0.1043930E+01  0.7957747E-01            NaN
         13   -1    0    0    0    0  0.00000000000E+00  0.00000000000E+00  0.74505805969E-08  0.10566000000E+00  0.10566000000E+00 0.  1.
     999900   -1    0    0    0    0 -0.00000000000E+00 -0.00000000000E+00 -0.74505805969E-08  0.93827000000E+00  0.93827000000E+00 0. -1.
     999903    2    1    2    0    0  0.56370698277E-01 -0.27986702734E-01 -0.98156464036E-01  0.12434897422E+00  0.43209545283E-01 0.  0.
         14    1    1    2    0    0 -0.11655525513E-01 -0.27998548321E-01 -0.47302288821E-02  0.30694381380E-01  0.00000000000E+00 0.  1.
     999901    1    1    2    0    0 -0.44715172765E-01  0.55985251055E-01  0.10288669292E+00  0.88888664440E+00  0.88000000000E+00 0.  1.
        -11    1    3    3    0    0  0.45493637337E-01 -0.16227133684E-01 -0.96900990204E-01  0.10827305265E+00  0.51100000000E-03 0.  1.
         11    1    3    3    0    0  0.10877060940E-01 -0.11759569050E-01 -0.12554738318E-02  0.16075921575E-01  0.51100000000E-03 0. -1.
</event>
<event>
 8    1  0.2077555E+004  0.1043930E+01  0.7957747E-01            NaN
         13   -1    0    0    0    0  0.00000000000E+00  0.00000000000E+00  0.74505805969E-08  0.10566000000E+00  0.10566000000E+00 0. -1.
     999900   -1    0    0    0    0 -0.00000000000E+00 -0.00000000000E+00 -0.74505805969E-08  0.93827000000E+00  0.93827000000E+00 0.  1.
     999902    2    1    2    0    0  0.11044647564E-01  0.89480532840E-02 -0.15110200187E-02  0.10296354178E+01  0.10295361862E+01 0.  0.
     999903    2    3    3    0    0 -0.12377883312E+00 -0.39445362903E-01  0.14116697760E-01  0.13791600052E+00  0.44095417678E-01 0.  0.
         14    1    1    2    0    0 -0.11044647564E-01 -0.89480532840E-02  0.15110200187E-02  0.14294582151E-01  0.00000000000E+00 0. -1.
     999901    1    3    3    0    0  0.13482348069E+00  0.48393416187E-01 -0.15627717778E-01  0.89171941733E+00  0.88000000000E+00 0. -1.
        -11    1    4    4    0    0 -0.10632791322E+00 -0.48477385200E-01  0.72075510065E-02  0.11708070686E+00  0.51100000000E-03 0. -1.
         11    1    4    4    0    0 -0.17450919905E-01  0.90320222967E-02  0.69091467530E-02  0.20835293666E-01  0.51100000000E-03 0.  1.
</event>
<event>
 8    1  0.2077555E+004  0.1043930E+01  0.7957747E-01            NaN
         13   -1    0    0    0    0  0.00000000000E+00  0.00000000000E+00  0.74505805969E-08  0.10566000000E+00  0.10566000000E+00 0.  1.
     999900   -1    0    0    0    0 -0.00000000000E+00 -0.00000000000E+00 -0.74505805969E-08  0.93827000000E+00  0.93827000000E+00 0. -1.
     999902    2    1    2    0    0 -0.87656452653E-03 -0.34038150969E-02  0.12732261554E-01  0.10307214873E+01  0.10306368515E+01 0.  0.
     999903    2    3    3    0    0 -0.86360081706E-01 -0.62023588297E-01 -0.79015838803E-01  0.13990084128E+00  0.44986146658E-01 0.  0.
         14    1    1    2    0    0  0.87656452653E-03  0.34038150969E-02 -0.12732261554E-01  0.13208512667E-01  0.00000000000E+00 0. -1.
     999901    1    3    3    0    0  0.85483517179E-01  0.58619773200E-01  0.91748100357E-01  0.89082064606E+00  0.88000000000E+00 0.  1.
        -11    1    4    4    0    0 -0.57786035180E-01 -0.53633210679E-01 -0.33856464569E-01  0.85803662297E-01  0.51100000000E-03 0. -1.
         11    1    4    4    0    0 -0.28574046526E-01 -0.83903776180E-02 -0.45159374234E-01  0.54097178981E-01  0.51100000000E-03 0.  1.
</event>
<event>
 8    1  0.2077555E+004  0.1043930E+01  0.7957747E-01            NaN
         13   -1    0    0    0    0  0.00000000000E+00  0.00000000000E+00  0.74505805969E-08  0.10566000000E+00  0.10566000000E+00 0. -1.
     999900   -1    0    0    0    0 -0.00000000000E+00 -0.00000000000E+00 -0.74505805969E-08  0.93827000000E+00  0.93827000000E+00 0.  1.
     999902    2    1    2    0    0  0.15239781761E-01  0.66693255981E-02 -0.73249149370E-02  0.10257534978E+01  0.10255924401E+01 0.  0.
     999903    2    3    3    0    0 -0.11219674657E+00  0.59997735742E-01  0.83455673805E-02  0.13483848949E+00  0.43862643769E-01 0.  0.
         14    1    1    2    0    0 -0.15239781761E-01 -0.66693255981E-02  0.73249149370E-02  0.18176502163E-01  0.00000000000E+00 0. -1.
     999901    1    3    3    0    0  0.12743652833E+00 -0.53328410144E-01 -0.15670482318E-01  0.89091500835E+00  0.88000000000E+00 0.  1.
        -11    1    4    4    0    0 -0.64206794764E-01  0.54832954522E-01 -0.55216171428E-02  0.84616279594E-01  0.51100000000E-03 0.  1.
         11    1    4    4    0    0 -0.47989951805E-01  0.51647812196E-02  0.13867184523E-01  0.50222209896E-01  0.51100000000E-03 0. -1.
</event>
<event>
 8    1  0.2576630E+004  0.1043930E+01  0.7957747E-01            NaN
         13   -1    0    0    0    0  0.00000000000E+00  0.00000000000E+00  0.74505805969E-08  0.10566000000E+00  0.10566000000E+00 0.  1.
     999900   -1    0    0    0    0 -0.00000000000E+00 -0.00000000000E+00 -0.74505805969E-08  0.93827000000E+00  0.93827000000E+00 0.  1.
     999902    2    1    2    0    0  0.76596778651E-02  0.11334865079E-01 -0.63219217964E-02  0.10288596143E+01  0.10287492354E+01 0.  0.
     999903    2    3    3    0    0  0.21978917020E-01  0.44865607492E-01  0.12105193193E+00  0.13894194957E+00  0.46425204337E-01 0.  0.
         14    1    1    2    0    0 -0.76596778651E-02 -0.11334865079E-01  0.63219217964E-02  0.15070385747E-01  0.00000000000E+00 0.  1.
     999901    1    3    3    0    0 -0.14319239155E-01 -0.33530742413E-01 -0.12737385373E+00  0.88991766468E+00  0.88000000000E+00 0.  1.
        -11    1    4    4    0    0  0.21314617781E-01  0.44307236221E-01  0.58661114069E-01  0.76543004497E-01  0.51100000000E-03 0. -1.
         11    1    4    4    0    0  0.66429923870E-03  0.55837127119E-03  0.62390817863E-01  0.62398945075E-01  0.51100000000E-03 0.  1.
</event>
<event>
 8    1  0.2077555E+004  0.1043930E+01  0.7957747E-01            NaN
         13   -1    0    0    0    0  0.00000000000E+00  0.00000000000E+00  0.74505805969E-08  0.10566000000E+00  0.10566000000E+00 0.  1.
     999900   -1    0    0    0    0 -0.00000000000E+00 -0.00000000000E+00 -0.74505805969E-08  0.93827000000E+00  0.93827000000E+00 0. -1.
     999902    2    1    2    0    0 -0.95665878146E-02  0.92194793380E-02  0.34939922488E-02  0.10301922279E+01  0.10301006261E+01 0.  0.
     999903    2    3    3    0    0  0.50324547880E-01 -0.22845812939E-01  0.12046688263E+00  0.13985645513E+00  0.44643778336E-01 0.  0.
         14    1    1    2    0    0  0.95665878146E-02 -0.92194793380E-02 -0.34939922488E-02  0.13737772145E-01  0.00000000000E+00 0. -1.
     999901    1    3    3    0    0 -0.59891135695E-01  0.32065292277E-01 -0.11697289038E+00  0.89033577272E+00  0.88000000000E+00 0. -1.
        -11    1    4    4    0    0  0.26945704899E-01  0.80075782825E-02  0.75249520824E-01  0.80330217401E-01  0.51100000000E-03 0. -1.
         11    1    4    4    0    0  0.23378842981E-01 -0.30853391222E-01  0.45217361805E-01  0.59526237733E-01  0.51100000000E-03 0.  1.
</event>
<event>
 8    1  0.2077555E+004  0.1043930E+01  0.7957747E-01            NaN
         13   -1    0    0    0    0  0.00000000000E+00  0.00000000000E+00  0.74505805969E-08  0.10566000000E+00  0.10566000000E+00 0. -1.
     999900   -1    0    0    0    0 -0.00000000000E+00 -0.00000000000E+00 -0.74505805969E-08  0.93827000000E+00  0.93827000000E+00 0. -1.
     999902    2    1    2    0    0  0.58601103619E-02 -0.11798452005E-01 -0.59578906716E-02  0.10294717558E+01  0.10293702226E+01 0.  0.
     999903    2    3    3    0    0 -0.53919420568E-01  0.78072369545E-01  0.89115877137E-01  0.13779391142E+00  0.45198713110E-01 0.  0.
         14    1    1    2    0    0 -0.58601103619E-02  0.11798452005E-01  0.59578906716E-02  0.14458244168E-01  0.00000000000E+00 0.  1.
     999901    1    3    3    0    0  0.59779530930E-01 -0.89870821550E-01 -0.95073767808E-01  0.89167784441E+00  0.88000000000E+00 0. -1.
        -11    1    4    4    0    0 -0.21551669562E-01  0.66320476672E-01  0.50811897202E-01  0.86284356086E-01  0.51100000000E-03 0. -1.
         11    1    4    4    0    0 -0.32367751006E-01  0.11751892874E-01  0.38303979934E-01  0.51509555337E-01  0.51100000000E-03 0.  1.
</event>
<event>
 8    1  0.2077555E+004  0.1043930E+01  0.7957747E-01            NaN
         13   -1    0    0    0    0  0.00000000000E+00  0.00000000000E+00  0.74505805969E-08  0.10566000000E+00  0.10566000000E+00 0. -1.
     999900   -1    0    0    0    0 -0.00000000000E+00 -0.00000000000E+00 -0.74505805969E-08  0.93827000000E+00  0.93827000000E+00 0. -1.
     999902    2    1    2    0    0 -0.67601739757E-02  0.84204191797E-02  0.87057944138E-02  0.10300593739E+01  0.10299659798E+01 0.  0.
     999903    2    3    3    0    0  0.65145431650E-01  0.10044749295E+00  0.58835539134E-01  0.14092924299E+00  0.45451124963E-01 0.  0.
         14    1    1    2    0    0  0.67601739757E-02 -0.84204191797E-02 -0.87057944138E-02  0.13870626075E-01  0.00000000000E+00 0.  1.
     999901    1    3    3    0    0 -0.71905605626E-01 -0.92027073769E-01 -0.50129744720E-01  0.88913013093E+00  0.88000000000E+00 0. -1.
        -11    1    4    4    0    0  0.22307497193E-01  0.83849560639E-02  0.23341985733E-01  0.33362274176E-01  0.51100000000E-03 0.  1.
         11    1    4    4    0    0  0.42837934457E-01  0.92062536885E-01  0.35493553401E-01  0.10756696882E+00  0.51100000000E-03 0. -1.
</event>
<event>
 8    1  0.2077555E+004  0.1043930E+01  0.7957747E-01            NaN
         13   -1    0    0    0    0  0.00000000000E+00  0.00000000000E+00  0.74505805969E-08  0.10566000000E+00  0.10566000000E+00 0.  1.
     999900   -1    0    0    0    0 -0.00000000000E+00 -0.00000000000E+00 -0.74505805969E-08  0.93827000000E+00  0.93827000000E+00 0.  1.
     999902    2    1    2    0    0 -0.90895471443E-02  0.43347662774E-02 -0.84980518540E-02  0.10307532420E+01  0.10306690152E+01 0.  0.
     999903    2    3    3    0    0  0.11692716497E+00 -0.45129670740E-01  0.38841692991E-01  0.13914346542E+00  0.46298787957E-01 0.  0.
         14    1    1    2    0    0  0.90895471443E-02 -0.43347662774E-02  0.84980518540E-02  0.13176757996E-01  0.00000000000E+00 0.  1.
     999901    1    3    3    0    0 -0.12601671211E+00  0.49464437017E-01 -0.47339744845E-01  0.89160977659E+00  0.88000000000E+00 0.  1.
        -11    1    4    4    0    0  0.28285675155E-02 -0.15354543185E-01  0.31088112383E-02  0.15927605561E-01  0.51100000000E-03 0. -1.
         11    1    4    4    0    0  0.11409859745E+00 -0.29775127555E-01  0.35732881752E-01  0.12321585986E+00  0.51100000000E-03 0.  1.
</event>
<event>
 8    1  0.2077555E+004  0.1043930E+01  0.7957747E-01            NaN
         13   -1    0    0    0    0  0.00000000000E+00  0.00000000000E+00  0.74505805969E-08  0.10566000000E+00  0.10566000000E+00 0.  1.
     999900   -1    0    0    0    0 -0.00000000000E+00 -0.00000000000E+00 -0.74505805969E-08  0.93827000000E+00  0.93827000000E+00 0. -1.
     999902    2    1    2    0    0  0.88000376283E-02 -0.11112912168E-01  0.24328344154E-02  0.10295475050E+01  0.10294470404E+01 0.  0.
     999903    2    3    3    0    0  0.10414783927E+00  0.77702687660E-02  0.82912640382E-01  0.14054538072E+00  0.44399871702E-01 0.  0.
         14    1    1    2    0    0 -0.88000376283E-02  0.11112912168E-01 -0.24328344154E-02  0.14382494999E-01  0.00000000000E+00 0. -1.
     999901    1    3    3    0    0 -0.95347801639E-01 -0.18883180934E-01 -0.80479805967E-01  0.88900212428E+00  0.88000000000E+00 0.  1.
        -11    1    4    4    0    0  0.20999710345E-01  0.14784357061E-01  0.45760552610E-02  0.26091501510E-01  0.51100000000E-03 0. -1.
         11    1    4    4    0    0  0.83148128922E-01 -0.70140882948E-02  0.78336585121E-01  0.11445387921E+00  0.51100000000E-03 0.  1.
</event>
<event>
 7    1  0.2077555E+004  0.1043930E+01  0.7957747E-01            NaN
         13   -1    0    0    0    0  0.00000000000E+00  0.00000000000E+00  0.74505805969E-08  0.10566000000E+00  0.10566000000E+00 0.  1.
     999900   -1    0    0    0    0 -0.00000000000E+00 -0.00000000000E+00 -0.74505805969E-08  0.93827000000E+00  0.93827000000E+00 0. -1.
     999903    2    1    2    0    0 -0.20751961657E-01 -0.11318938240E+00  0.34933876929E-01  0.12803443433E+00  0.43931314759E-01 0.  0.
         14    1    1    2    0    0 -0.17828075267E-02  0.29766807531E-01 -0.95018689313E-02  0.31297392007E-01  0.00000000000E+00 0.  1.
     999901    1    1    2    0    0  0.22534769184E-01  0.83422574867E-01 -0.25432007997E-01  0.88459817366E+00  0.88000000000E+00 0. -1.
        -11    1    3    3    0    0 -0.12932734992E-01 -0.61398404988E-01 -0.38390168788E-02  0.62865085231E-01  0.51100000000E-03 0.  1.
         11    1    3    3    0    0 -0.78192266646E-02 -0.51790977409E-01  0.38772893808E-01  0.65169349098E-01  0.51100000000E-03 0. -1.
</event>
<event>
 8    1  0.2077555E+004  0.1043930E+01  0.7957747E-01            NaN
         13   -1    0    0    0    0  0.00000000000E+00  0.00000000000E+00  0.74505805969E-08  0.10566000000E+00  0.10566000000E+00 0. -1.
     999900   -1    0    0    0    0 -0.00000000000E+00 -0.00000000000E+00 -0.74505805969E-08  0.93827000000E+00  0.93827000000E+00 0.  1.
     999902    2    1    2    0    0 -0.38494356585E-02 -0.99005439489E-02 -0.85889224568E-02  0.10302695273E+01  0.10301789604E+01 0.  0.
     999903    2    3    3    0    0  0.11247208824E+00 -0.15157968001E-01 -0.70706556976E-01  0.14042856514E+00  0.42907226428E-01 0.  0.
         14    1    1    2    0    0  0.38494356585E-02  0.99005439489E-02  0.85889224568E-02  0.13660472698E-01  0.00000000000E+00 0. -1.
     999901    1    3    3    0    0 -0.11632152390E+00  0.52574240520E-02  0.62117634520E-01  0.88984096217E+00  0.88000000000E+00 0. -1.
        -11    1    4    4    0    0  0.63592436630E-01 -0.23289882042E-01 -0.58258391416E-01  0.89334863819E-01  0.51100000000E-03 0. -1.
         11    1    4    4    0    0  0.48879651610E-01  0.81319140413E-02 -0.12448165560E-01  0.51093701317E-01  0.51100000000E-03 0.  1.
</event>
<event>
 8    1  0.2077555E+004  0.1043930E+01  0.7957747E-01            NaN
         13   -1    0    0    0    0  0.00000000000E+00  0.00000000000E+00  0.74505805969E-08  0.10566000000E+00  0.10566000000E+00 0.  1.
     999900   -1    0    0    0    0 -0.00000000000E+00 -0.00000000000E+00 -0.74505805969E-08  0.93827000000E+00  0.93827000000E+00 0.  1.
     999902    2    1    2    0    0 -0.13543386202E-01 -0.41265167889E-03 -0.42056535953E-02  0.10297426425E+01  0.10296449041E+01 0.  0.
     999903    2    3    3    0    0  0.10077225134E+00 -0.33621873523E-02  0.83995467398E-01  0.13797125782E+00  0.42596695861E-01 0.  0.
         14    1    1    2    0    0  0.13543386202E-01  0.41265167889E-03  0.42056535953E-02  0.14187357519E-01  0.00000000000E+00 0. -1.
     999901    1    3    3    0    0 -0.11431563754E+00  0.29495356734E-02 -0.88201120994E-01  0.89177138466E+00  0.88000000000E+00 0.  1.
        -11    1    4    4    0    0  0.13088397309E-01 -0.10308172875E-01  0.47388270631E-03  0.16674839068E-01  0.51100000000E-03 0.  1.
         11    1    4    4    0    0  0.87683854031E-01  0.69459855226E-02  0.83521584692E-01  0.12129641876E+00  0.51100000000E-03 0. -1.
</event>
<event>
 8    1  0.2077555E+004  0.1043930E+01  0.7957747E-01            NaN
         13   -1    0    0    0    0  0.00000000000E+00  0.00000000000E+00  0.74505805969E-08  0.10566000000E+00  0.10566000000E+00 0. -1.
     999900   -1    0    0    0    0 -0.00000000000E+00 -0.00000000000E+00 -0.74505805969E-08  0.93827000000E+00  0.93827000000E+00 0.  1.
     999902    2    1    2    0    0  0.10045722779E-01 -0.81937900479E-02  0.18469754936E-02  0.10308354950E+01  0.10307523232E+01 0.  0.
     999903    2    3    3    0    0  0.85972401463E-01  0.85962135997E-01 -0.55065252916E-01  0.14074044356E+00  0.44664837794E-01 0.  0.
         14    1    1    2    0    0 -0.10045722779E-01  0.81937900479E-02 -0.18469754936E-02  0.13094504954E-01  0.00000000000E+00 0.  1.
     999901    1    3    3    0    0 -0.75926678684E-01 -0.94155926045E-01  0.56912228409E-01  0.89009505149E+00  0.88000000000E+00 0. -1.
        -11    1    4    4    0    0  0.20968920524E-01  0.48815221511E-01 -0.12370220923E-01  0.54551855750E-01  0.51100000000E-03 0. -1.
         11    1    4    4    0    0  0.65003480939E-01  0.37146914486E-01 -0.42695031993E-01  0.86188587806E-01  0.51100000000E-03 0.  1.
</event>
<event>
 8    1  0.2077555E+004  0.1043930E+01  0.7957747E-01            NaN
         13   -1    0    0    0    0  0.00000000000E+00  0.00000000000E+00  0.74505805969E-08  0.10566000000E+00  0.10566000000E+00 0. -1.
     999900   -1    0    0    0    0 -0.00000000000E+00 -0.00000000000E+00 -0.74505805969E-08  0.93827000000E+00  0.93827000000E+00 0.  1.
     999902    2    1    2    0    0 -0.68990905437E-03  0.95929219424E-02 -0.84659507985E-02  0.10311170203E+01  0.10310374082E+01 0.  0.
     999903    2    3    3    0    0  0.13216818664E+00  0.53648178251E-02  0.19079552686E-01  0.14070817869E+00  0.44017625894E-01 0.  0.
         14    1    1    2    0    0  0.68990905437E-03 -0.95929219424E-02  0.84659507985E-02  0.12812979701E-01  0.00000000000E+00 0. -1.
     999901    1    3    3    0    0 -0.13285809569E+00  0.42281041173E-02 -0.27545503485E-01  0.89040884161E+00  0.88000000000E+00 0. -1.
        -11    1    4    4    0    0  0.77076259590E-01 -0.16434031027E-01  0.20529154519E-01  0.81440373737E-01  0.51100000000E-03 0.  1.
         11    1    4    4    0    0  0.55091927050E-01  0.21798848852E-01 -0.14496018330E-02  0.59267804952E-01  0.51100000000E-03 0. -1.
</event>
<event>
 8    1  0.2077555E+004  0.1043930E+01  0.7957747E-01            NaN
         13   -1    0    0    0    0  0.00000000000E+00  0.00000000000E+00  0.74505805969E-08  0.10566000000E+00  0.10566000000E+00 0.  1.
     999900   -1    0    0    0    0 -0.00000000000E+00 -0.00000000000E+00 -0.74505805969E-08  0.93827000000E+00  0.93827000000E+00 0.  1.
     999902    2    1    2    0    0  0.11391978687E-01 -0.66383505042E-02 -0.47908069719E-02  0.10299015750E+01  0.10298060291E+01 0.  0.
     999903    2    3    3    0    0 -0.40028590180E-01  0.11262461502E+00  0.53306793401E-01  0.13847403393E+00  0.45242147513E-01 0.  0.
         14    1    1    2    0    0 -0.11391978687E-01  0.66383505042E-02  0.47908069719E-02  0.14028424974E-01  0.00000000000E+00 0.  1.
     999901    1    3    3    0    0  0.51420568866E-01 -0.11926296552E+00 -0.58097600373E-01  0.89142754109E+00  0.88000000000E+00 0.  1.
        -11    1    4    4    0    0 -0.67194475203E-02  0.64376519912E-01  0.45956862510E-01  0.79383761713E-01  0.51100000000E-03 0. -1.
         11    1    4    4    0    0 -0.33309142660E-01  0.48248095106E-01  0.73499308911E-02  0.59090272221E-01  0.51100000000E-03 0.  1.
</event>
<event>
 8    1  0.2077555E+004  0.1043930E+01  0.7957747E-01            NaN
         13   -1    0    0    0    0  0.00000000000E+00  0.00000000000E+00  0.74505805969E-08  0.10566000000E+00  0.10566000000E+00 0. -1.
     999900   -1    0    0    0    0 -0.00000000000E+00 -0.00000000000E+00 -0.74505805969E-08  0.93827000000E+00  0.93827000000E+00 0. -1.
     999902    2    1    2    0    0 -0.26205146994E-03  0.76339016976E-02  0.13057355417E-01  0.10288025529E+01  0.10286913304E+01 0.  0.
     999903    2    3    3    0    0  0.94370158689E-01 -0.58831684385E-01  0.68187357375E-01  0.13952630420E+00  0.49509392241E-01 0.  0.
         14    1    1    2    0    0  0.26205146994E-03 -0.76339016976E-02 -0.13057355417E-01  0.15127447127E-01  0.00000000000E+00 0.  1.
     999901    1    3    3    0    0 -0.94632210159E-01  0.66465586083E-01 -0.55130001958E-01  0.88927624867E+00  0.88000000000E+00 0. -1.
        -11    1    4    4    0    0  0.78953968541E-01 -0.48998144998E-01  0.30785080808E-01  0.97890396276E-01  0.51100000000E-03 0. -1.
         11    1    4    4    0    0  0.15416190148E-01 -0.98335393877E-02  0.37402276566E-01  0.41635907927E-01  0.51100000000E-03 0.  1.
</event>
<event>
 8    1  0.2077555E+004  0.1043930E+01  0.7957747E-01            NaN
         13   -1    0    0    0    0  0.00000000000E+00  0.00000000000E+00  0.74505805969E-08  0.10566000000E+00  0.10566000000E+00 0.  1.
     999900   -1    0    0    0    0 -0.00000000000E+00 -0.00000000000E+00 -0.74505805969E-08  0.93827000000E+00  0.93827000000E+00 0.  1.
     999902    2    1    2    0    0  0.19766281549E-03  0.11737291051E-01 -0.64083373810E-02  0.10305557763E+01  0.10304689894E+01 0.  0.
     999903    2    3    3    0    0 -0.24735776142E-01  0.13262567186E+00  0.23090951640E-02  0.14189854731E+00  0.43913988102E-01 0.  0.
         14    1    1    2    0    0 -0.19766281549E-03 -0.11737291051E-01  0.64083373810E-02  0.13374223708E-01  0.00000000000E+00 0.  1.
     999901    1    3    3    0    0  0.24933438957E-01 -0.12088838081E+00 -0.87174325450E-02  0.88865722898E+00  0.88000000000E+00 0.  1.
        -11    1    4    4    0    0 -0.22018963480E-01  0.75686316166E-01  0.21574061988E-01  0.81724870628E-01  0.51100000000E-03 0.  1.
         11    1    4    4    0    0 -0.27168126615E-02  0.56939355692E-01 -0.19264966824E-01  0.60173676681E-01  0.51100000000E-03 0. -1.
</event>
<event>
 8    1  0.2077555E+004  0.1043930E+01  0.7957747E-01            NaN
         13   -1    0    0    0    0  0.00000000000E+00  0.00000000000E+00  0.74505805969E-08  0.10566000000E+00  0.10566000000E+00 0.  1.
     999900   -1    0    0    0    0 -0.00000000000E+00 -0.00000000000E+00 -0.74505805969E-08  0.93827000000E+00  0.93827000000E+00 0.  1.
     999902    2    1    2    0    0  0.99361519737E-02  0.91612401805E-02  0.90716182708E-03  0.10303845808E+01  0.10302955431E+01 0.  0.
     999903    2    3    3    0    0 -0.54698240053E-02  0.13106511086E+00  0.25085444877E-01  0.14151873767E+00  0.46800548145E-01 0.  0.
         14    1    1    2    0    0 -0.99361519737E-02 -0.91612401805E-02 -0.90716182708E-03  0.13545419162E-01  0.00000000000E+00 0.  1.
     999901    1    3    3    0    0  0.15405975979E-01 -0.12190387068E+00 -0.24178283050E-01  0.88886584317E+00  0.88000000000E+00 0. -1.
        -11    1    4    4    0    0 -0.58401100388E-02  0.26262432126E-01 -0.13159295197E-01  0.29954138237E-01  0.51100000000E-03 0. -1.
         11    1    4    4    0    0  0.37028603352E-03  0.10480267874E+00  0.38244740074E-01  0.11156459943E+00  0.51100000000E-03 0.  1.
</event>
<event>
 8    1  0.2077555E+004  0.1043930E+01  0.7957747E-01            NaN
         13   -1    0    0    0    0  0.00000000000E+00  0.00000000000E+00  0.74505805969E-08  0.10566000000E+00  0.10566000000E+00 0. -1.
     999900   -1    0    0    0    0 -0.00000000000E+00 -0.00000000000E+00 -0.74505805969E-08  0.93827000000E+00  0.93827000000E+00 0.  1.
     999902    2    1    2    0    0 -0.74368918685E-02  0.82009352970E-02 -0.76634581627E-02  0.10304655545E+01  0.10303775851E+01 0.  0.
     999903    2    3    3    0    0  0.58513050887E-01  0.14862072528E-01  0.11707117139E+00  0.13920100711E+00  0.45017806336E-01 0.  0.
         14    1    1    2    0    0  0.74368918685E-02 -0.82009352970E-02  0.76634581627E-02  0.13464445455E-01  0.00000000000E+00 0.  1.
     999901    1    3    3    0    0 -0.65949942756E-01 -0.66611372309E-02 -0.12473462955E+00  0.89126454743E+00  0.88000000000E+00 0. -1.
        -11    1    4    4    0    0  0.42863846773E-01  0.19586755915E-01  0.44530852579E-01  0.64839866748E-01  0.51100000000E-03 0. -1.
         11    1    4    4    0    0  0.15649204114E-01 -0.47246833873E-02  0.72540318809E-01  0.74361140366E-01  0.51100000000E-03 0.  1.
</event>
<event>
 8    1  0.2077555E+004  0.1043930E+01  0.7957747E-01            NaN
         13   -1    0    0    0    0  0.00000000000E+00  0.00000000000E+00  0.74505805969E-08  0.10566000000E+00  0.10566000000E+00 0. -1.
     999900   -1    0    0    0    0 -0.00000000000E+00 -0.00000000000E+00 -0.74505805969E-08  0.93827000000E+00  0.93827000000E+00 0. -1.
     999902    2    1    2    0    0  0.79006523129E-02  0.11530239920E-01  0.22116883635E-02  0.10297787349E+01  0.10296814966E+01 0.  0.
     999903    2    3    3    0    0 -0.18520200147E-01 -0.20702013261E-01  0.12916937172E+00  0.13969152961E+00  0.45358854559E-01 0.  0.
         14    1    1    2    0    0 -0.79006523129E-02 -0.11530239920E-01 -0.22116883635E-02  0.14151265138E-01  0.00000000000E+00 0.  1.
     999901    1    3    3    0    0  0.26420852460E-01  0.32232253181E-01 -0.12695768336E+00  0.89008720525E+00  0.88000000000E+00 0. -1.
        -11    1    4    4    0    0  0.84714611744E-02 -0.24167825298E-02  0.81269032828E-01  0.81746702135E-01  0.51100000000E-03 0. -1.
         11    1    4    4    0    0 -0.26991661321E-01 -0.18285230732E-01  0.47900338896E-01  0.57944827475E-01  0.51100000000E-03 0.  1.
</event>
<event>
 8    1  0.2077555E+004  0.1043930E+01  0.7957747E-01            NaN
         13   -1    0    0    0    0  0.00000000000E+00  0.00000000000E+00  0.74505805969E-08  0.10566000000E+00  0.10566000000E+00 0. -1.
     999900   -1    0    0    0    0 -0.00000000000E+00 -0.00000000000E+00 -0.74505805969E-08  0.93827000000E+00  0.93827000000E+00 0.  1.
     999902    2    1    2    0    0 -0.71711456408E-02  0.73540223933E-02  0.89394167652E-02  0.10303130933E+01  0.10302231070E+01 0.  0.
     999903    2    3    3    0    0  0.60279423305E-01 -0.89166526997E-01 -0.74541222388E-01  0.13855370155E+00  0.45348163896E-01 0.  0.
         14    1    1    2    0    0  0.71711456408E-02 -0.73540223933E-02 -0.89394167652E-02  0.13616906670E-01  0.00000000000E+00 0.  1.
     999901    1    3    3    0    0 -0.67450568946E-01  0.96520549390E-01  0.83480639153E-01  0.89175939178E+00  0.88000000000E+00 0. -1.
        -11    1    4    4    0    0  0.44386402168E-01 -0.25721168547E-01 -0.35364052326E-01  0.62310581178E-01  0.51100000000E-03 0.  1.
         11    1    4    4    0    0  0.15893021138E-01 -0.63445358450E-01 -0.39177170062E-01  0.76243120377E-01  0.51100000000E-03 0. -1.
</event>
<event>
 8    1  0.2077555E+004  0.1043930E+01  0.7957747E-01            NaN
         13   -1    0    0    0    0  0.00000000000E+00  0.00000000000E+00  0.74505805969E-08  0.10566000000E+00  0.10566000000E+00 0. -1.
     999900   -1    0    0    0    0 -0.00000000000E+00 -0.00000000000E+00 -0.74505805969E-08  0.93827000000E+00  0.93827000000E+00 0.  1.
     999902    2    1    2    0    0  0.15225427927E-03 -0.11892012823E-01 -0.54866685489E-02  0.10308324169E+01  0.10307492057E+01 0.  0.
     999903    2    3    3    0    0  0.85895659729E-01 -0.80891738259E-01  0.63605019247E-01  0.14128952589E+00  0.44672071522E-01 0.  0.
         14    1    1    2    0    0 -0.15225427927E-03  0.11892012823E-01  0.54866685489E-02  0.13097583063E-01  0.00000000000E+00 0. -1.
     999901    1    3    3    0    0 -0.85743405450E-01  0.68999725436E-01 -0.69091687796E-01  0.88954289105E+00  0.88000000000E+00 0.  1.
        -11    1    4    4    0    0  0.19315060594E-01 -0.43922882740E-01  0.12538965757E-01  0.49596148814E-01  0.51100000000E-03 0. -1.
         11    1    4    4    0    0  0.66580599135E-01 -0.36968855519E-01  0.51066053490E-01  0.91693377076E-01  0.51100000000E-03 0.  1.
</event>
<event>
 8    1  0.2077555E+004  0.1043930E+01  0.7957747E-01            NaN
         13   -1    0    0    0    0  0.00000000000E+00  0.00000000000E+00  0.74505805969E-08  0.10566000000E+00  0.10566000000E+00 0. -1.
     999900   -1    0    0    0    0 -0.00000000000E+00 -0.00000000000E+00 -0.74505805969E-08  0.93827000000E+00  0.93827000000E+00 0. -1.
     999902    2    1    2    0    0  0.12632542355E-01 -0.11305042308E-02  0.35836071518E-02  0.10307504171E+01  0.10306661539E+01 0.  0.
     999903    2    3    3    0    0 -0.26364204500E-01  0.48389960428E-01  0.12163358971E+00  0.14063310959E+00  0.44116684116E-01 0.  0.
         14    1    1    2    0    0 -0.12632542355E-01  0.11305042308E-02 -0.35836071518E-02  0.13179582937E-01  0.00000000000E+00 0.  1.
     999901    1    3    3    0    0  0.38996746855E-01 -0.49520464659E-01 -0.11804998256E+00  0.89011730748E+00  0.88000000000E+00 0. -1.
        -11    1    4    4    0    0 -0.18738909963E-01  0.13423754565E-02  0.15768553818E-01  0.24532776626E-01  0.51100000000E-03 0. -1.
         11    1    4    4    0    0 -0.76252945369E-02  0.47047584971E-01  0.10586503589E+00  0.11610033296E+00  0.51100000000E-03 0.  1.
</event>
<event>
 8    1  0.2077555E+004  0.1043930E+01  0.7957747E-01            NaN
         13   -1    0    0    0    0  0.00000000000E+00  0.00000000000E+00  0.74505805969E-08  0.10566000000E+00  0.10566000000E+00 0.  1.
     999900   -1    0    0    0    0 -0.00000000000E+00 -0.00000000000E+00 -0.74505805969E-08  0.93827000000E+00  0.93827000000E+00 0.  1.
     999902    2    1    2    0    0 -0.89830243418E-03 -0.24715940187E-02  0.12571721782E-01  0.10310861722E+01  0.10310061739E+01 0.  0.
     999903    2    3    3    0    0 -0.11144248605E+00 -0.16460942577E-02  0.75121673210E-01  0.14196683576E+00  0.45707541479E-01 0.  0.
         14    1    1    2    0    0  0.89830243418E-03  0.24715940187E-02 -0.12571721782E-01  0.12843827811E-01  0.00000000000E+00 0. -1.
     999901    1    3    3    0    0  0.11054418361E+00 -0.82549976099E-03 -0.62549951428E-01  0.88911933642E+00  0.88000000000E+00 0.  1.
        -11    1    4    4    0    0 -0.94599583095E-01 -0.18704456692E-01  0.61821841735E-01  0.11454754060E+00  0.51100000000E-03 0. -1.
         11    1    4    4    0    0 -0.16842902954E-01  0.17058362434E-01  0.13299831475E-01  0.27419295161E-01  0.51100000000E-03 0.  1.
</event>
<event>
 8    1  0.2077555E+004  0.1043930E+01  0.7957747E-01            NaN
         13   -1    0    0    0    0  0.00000000000E+00  0.00000000000E+00  0.74505805969E-08  0.10566000000E+00  0.10566000000E+00 0. -1.
     999900   -1    0    0    0    0 -0.00000000000E+00 -0.00000000000E+00 -0.74505805969E-08  0.93827000000E+00  0.93827000000E+00 0.  1.
     999902    2    1    2    0    0  0.38705277463E-02 -0.13713806550E-01  0.13837766227E-02  0.10296134252E+01  0.10295138858E+01 0.  0.
     999903    2    3    3    0    0 -0.59346115126E-01  0.86071053973E-01  0.82382726898E-01  0.13803382012E+00  0.36554535868E-01 0.  0.
         14    1    1    2    0    0 -0.38705277463E-02  0.13713806550E-01 -0.13837766227E-02  0.14316574760E-01  0.00000000000E+00 0.  1.
     999901    1    3    3    0    0  0.63216642872E-01 -0.99784860522E-01 -0.80998950275E-01  0.89157960512E+00  0.88000000000E+00 0.  1.
        -11    1    4    4    0    0  0.23505428464E-02  0.12175304321E-01  0.19277432153E-01  0.22926918641E-01  0.51100000000E-03 0. -1.
         11    1    4    4    0    0 -0.61696657972E-01  0.73895749652E-01  0.63105294745E-01  0.11510690148E+00  0.51100000000E-03 0.  1.
</event>
<event>
 8    1  0.2077555E+004  0.1043930E+01  0.7957747E-01            NaN
         13   -1    0    0    0    0  0.00000000000E+00  0.00000000000E+00  0.74505805969E-08  0.10566000000E+00  0.10566000000E+00 0.  1.
     999900   -1    0    0    0    0 -0.00000000000E+00 -0.00000000000E+00 -0.74505805969E-08  0.93827000000E+00  0.93827000000E+00 0. -1.
     999902    2    1    2    0    0 -0.75243085045E-02 -0.53661313844E-02 -0.11439946532E-01  0.10292234382E+01  0.10291183618E+01 0.  0.
     999903    2    3    3    0    0 -0.58232051080E-02  0.13087894033E+00  0.37244485439E-02  0.13860816084E+00  0.45112570236E-01 0.  0.
         14    1    1    2    0    0  0.75243085045E-02  0.53661313844E-02  0.11439946532E-01  0.14706561840E-01  0.00000000000E+00 0.  1.
     999901    1    3    3    0    0 -0.17011033965E-02 -0.13624507172E+00 -0.15164395076E-01  0.89061527732E+00  0.88000000000E+00 0. -1.
        -11    1    4    4    0    0 -0.20003353672E-01  0.31225009066E-01 -0.56470466356E-02  0.37513805539E-01  0.51100000000E-03 0. -1.
         11    1    4    4    0    0  0.14180148564E-01  0.99653931268E-01  0.93714951795E-02  0.10109435530E+00  0.51100000000E-03 0.  1.
</event>
<event>
 8    1  0.2077555E+004  0.1043930E+01  0.7957747E-01            NaN
         13   -1    0    0    0    0  0.00000000000E+00  0.00000000000E+00  0.74505805969E-08  0.10566000000E+00  0.10566000000E+00 0.  1.
     999900   -1    0    0    0    0 -0.00000000000E+00 -0.00000000000E+00 -0.74505805969E-08  0.93827000000E+00  0.93827000000E+00 0. -1.
     999902    2    1    2    0    0  0.40857525357E-03 -0.12161155416E-02 -0.14645644212E-01  0.10292282734E+01  0.10291232667E+01 0.  0.
     999903    2    3    3    0    0  0.37331812639E-01 -0.12228607922E+00 -0.34404847026E-01  0.13995233891E+00  0.45336676768E-01 0.  0.
         14    1    1    2    0    0 -0.40857525357E-03  0.12161155416E-02  0.14645644212E-01  0.14701726604E-01  0.00000000000E+00 0.  1.
     999901    1    3    3    0    0 -0.36923237386E-01  0.12106996368E+00  0.19759202814E-01  0.88927593449E+00  0.88000000000E+00 0.  1.
        -11    1    4    4    0    0  0.40912476179E-03 -0.46527818616E-01  0.52184361146E-02  0.46824122894E-01  0.51100000000E-03 0.  1.
         11    1    4    4    0    0  0.36922687878E-01 -0.75758260605E-01 -0.39623283141E-01  0.93128216014E-01  0.51100000000E-03 0. -1.
</event>
<event>
 8    1  0.2077555E+004  0.1043930E+01  0.7957747E-01            NaN
         13   -1    0    0    0    0  0.00000000000E+00  0.00000000000E+00  0.74505805969E-08  0.10566000000E+00  0.10566000000E+00 0.  1.
     999900   -1    0    0    0    0 -0.00000000000E+00 -0.00000000000E+00 -0.74505805969E-08  0.93827000000E+00  0.93827000000E+00 0. -1.
     999902    2    1    2    0    0  0.51917429603E-02 -0.77633006569E-02 -0.94552922898E-02  0.10306399442E+01  0.10305542533E+01 0.  0.
     999903    2    3    3    0    0 -0.10874819380E+00 -0.70116690246E-01  0.33479274169E-01  0.14007067039E+00  0.41909557363E-01 0.  0.
         14    1    1    2    0    0 -0.51917429603E-02  0.77633006569E-02  0.94552922898E-02  0.13290055844E-01  0.00000000000E+00 0.  1.
     999901    1    3    3    0    0  0.11393993676E+00  0.62353389590E-01 -0.42934566459E-01  0.89056927377E+00  0.88000000000E+00 0. -1.
        -11    1    4    4    0    0 -0.21770013477E-01 -0.34311544256E-01  0.19150316323E-01  0.44924506590E-01  0.51100000000E-03 0.  1.
         11    1    4    4    0    0 -0.86978180323E-01 -0.35805145990E-01  0.14328957845E-01  0.95146163798E-01  0.51100000000E-03 0. -1.
</event>
<event>
 8    1  0.2077555E+004  0.1043930E+01  0.7957747E-01            NaN
         13   -1    0    0    0    0  0.00000000000E+00  0.00000000000E+00  0.74505805969E-08  0.10566000000E+00  0.10566000000E+00 0.  1.
     999900   -1    0    0    0    0 -0.00000000000E+00 -0.00000000000E+00 -0.74505805969E-08  0.93827000000E+00  0.93827000000E+00 0.  1.
     999902    2    1    2    0    0 -0.42341337635E-02 -0.12322121830E-01  0.98193753449E-03  0.10308637543E+01  0.10307809433E+01 0.  0.
     999903    2    3    3    0    0  0.62680465989E-01  0.99745971047E-01 -0.58985979358E-01  0.13921753963E+00  0.44989754637E-01 0.  0.
         14    1    1    2    0    0  0.42341337635E-02  0.12322121830E-01 -0.98193753449E-03  0.13066245690E-01  0.00000000000E+00 0.  1.
     999901    1    3    3    0    0 -0.66914599753E-01 -0.11206809288E+00  0.59967916893E-01  0.89164621468E+00  0.88000000000E+00 0. -1.
        -11    1    4    4    0    0  0.12827704442E-01  0.50631516301E-01 -0.84931247610E-02  0.52919700806E-01  0.51100000000E-03 0. -1.
         11    1    4    4    0    0  0.49852761547E-01  0.49114454746E-01 -0.50492854597E-01  0.86297838821E-01  0.51100000000E-03 0.  1.
</event>
<event>
 8    1  0.2077555E+004  0.1043930E+01  0.7957747E-01            NaN
         13   -1    0    0    0    0  0.00000000000E+00  0.00000000000E+00  0.74505805969E-08  0.10566000000E+00  0.10566000000E+00 0. -1.
     999900   -1    0    0    0    0 -0.00000000000E+00 -0.00000000000E+00 -0.74505805969E-08  0.93827000000E+00  0.93827000000E+00 0. -1.
     999902    2    1    2    0    0 -0.14225181887E-01 -0.48125734054E-03  0.93124421774E-02  0.10269209146E+01  0.10267800425E+01 0.  0.
     999903    2    3    3    0    0  0.72865165094E-01 -0.98481385650E-01 -0.20615292087E-01  0.13670497280E+00  0.57055619489E-01 0.  0.
         14    1    1    2    0    0  0.14225181887E-01  0.48125734054E-03 -0.93124421774E-02  0.17009085444E-01  0.00000000000E+00 0.  1.
     999901    1    3    3    0    0 -0.87090346981E-01  0.98000128310E-01  0.29927734264E-01  0.89021594176E+00  0.88000000000E+00 0.  1.
        -11    1    4    4    0    0  0.56425337570E-01 -0.28480353623E-01 -0.82920807066E-02  0.63749266551E-01  0.51100000000E-03 0. -1.
         11    1    4    4    0    0  0.16439827525E-01 -0.70001032027E-01 -0.12323211380E-01  0.72955706244E-01  0.51100000000E-03 0.  1.
</event>
<event>
 8    1  0.2077555E+004  0.1043930E+01  0.7957747E-01            NaN
         13   -1    0    0    0    0  0.00000000000E+00  0.00000000000E+00  0.74505805969E-08  0.10566000000E+00  0.10566000000E+00 0. -1.
     999900   -1    0    0    0    0 -0.00000000000E+00 -0.00000000000E+00 -0.74505805969E-08  0.93827000000E+00  0.93827000000E+00 0.  1.
     999902    2    1    2    0    0  0.50077987840E-02  0.13091037716E-01  0.25463894307E-02  0.10296843896E+01  0.10295858414E+01 0.  0.
     999903    2    3    3    0    0 -0.12920671682E+00  0.12782223878E-02  0.24585528415E-01  0.13915712865E+00  0.45434004062E-01 0.  0.
         14    1    1    2    0    0 -0.50077987840E-02 -0.13091037716E-01 -0.25463894307E-02  0.14245610421E-01  0.00000000000E+00 0.  1.
     999901    1    3    3    0    0  0.13421451560E+00  0.11812815328E-01 -0.22039138984E-01  0.89052726093E+00  0.88000000000E+00 0.  1.
        -11    1    4    4    0    0 -0.12919178929E+00  0.70094873043E-02  0.18358743371E-01  0.13067882733E+00  0.51100000000E-03 0. -1.
         11    1    4    4    0    0 -0.14927522272E-04 -0.57312649164E-02  0.62267850435E-02  0.84783013247E-02  0.51100000000E-03 0.  1.
</event>
<event>
 8    1  0.2077555E+004  0.1043930E+01  0.7957747E-01            NaN
         13   -1    0    0    0    0  0.00000000000E+00  0.00000000000E+00  0.74505805969E-08  0.10566000000E+00  0.10566000000E+00 0.  1.
     999900   -1    0    0    0    0 -0.00000000000E+00 -0.00000000000E+00 -0.74505805969E-08  0.93827000000E+00  0.93827000000E+00 0.  1.
     999902    2    1    2    0    0  0.97163891580E-02 -0.91072819186E-02 -0.51743868853E-02  0.10296427651E+01  0.10295436361E+01 0.  0.
     999903    2    3    3    0    0  0.77506004510E-01 -0.12938613471E-01  0.10657281974E+00  0.13998128494E+00  0.45413717881E-01 0.  0.
         14    1    1    2    0    0 -0.97163891580E-02  0.91072819186E-02  0.51743868853E-02  0.14287234927E-01  0.00000000000E+00 0.  1.
     999901    1    3    3    0    0 -0.67789615352E-01  0.38313315520E-02 -0.11174720662E+00  0.88966148014E+00  0.88000000000E+00 0.  1.
        -11    1    4    4    0    0  0.11628752775E-01 -0.17702378399E-01  0.44747150066E-01  0.49509298642E-01  0.51100000000E-03 0. -1.
         11    1    4    4    0    0  0.65877251735E-01  0.47637649282E-02  0.61825669673E-01  0.90471986294E-01  0.51100000000E-03 0.  1.
</event>
<event>
 8    1  0.2077555E+004  0.1043930E+01  0.7957747E-01            NaN
         13   -1    0    0    0    0  0.00000000000E+00  0.00000000000E+00  0.74505805969E-08  0.10566000000E+00  0.10566000000E+00 0. -1.
     999900   -1    0    0    0    0 -0.00000000000E+00 -0.00000000000E+00 -0.74505805969E-08  0.93827000000E+00  0.93827000000E+00 0.  1.
     999902    2    1    2    0    0  0.82156809874E-02 -0.71757763778E-02  0.79672376922E-02  0.10304220003E+01  0.10303334570E+01 0.  0.
     999903    2    3    3    0    0 -0.10545986602E+00  0.77865691882E-01 -0.60916691566E-02  0.13893345060E+00  0.45613001972E-01 0.  0.
         14    1    1    2    0    0 -0.82156809874E-02  0.71757763778E-02 -0.79672376922E-02  0.13507999747E-01  0.00000000000E+00 0.  1.
     999901    1    3    3    0    0  0.11367554700E+00 -0.85041468259E-01  0.14058906849E-01  0.89148854966E+00  0.88000000000E+00 0.  1.
        -11    1    4    4    0    0 -0.65972607023E-01  0.59351267650E-01 -0.23771460509E-01  0.91871112461E-01  0.51100000000E-03 0.  1.
         11    1    4    4    0    0 -0.39487258992E-01  0.18514424232E-01  0.17679791353E-01  0.47062338134E-01  0.51100000000E-03 0. -1.
</event>
<event>
 8    1  0.2077555E+004  0.1043930E+01  0.7957747E-01            NaN
         13   -1    0    0    0    0  0.00000000000E+00  0.00000000000E+00  0.74505805969E-08  0.10566000000E+00  0.10566000000E+00 0. -1.
     999900   -1    0    0    0    0 -0.00000000000E+00 -0.00000000000E+00 -0.74505805969E-08  0.93827000000E+00  0.93827000000E+00 0.  1.
     999902    2    1    2    0    0 -0.13158759473E-01 -0.19744521060E-03  0.72136256519E-02  0.10289223909E+01  0.10288129364E+01 0.  0.
     999903    2    3    3    0    0  0.25065236150E-01  0.10397202450E-01  0.12864057193E+00  0.13969923350E+00  0.47234639935E-01 0.  0.
         14    1    1    2    0    0  0.13158759473E-01  0.19744521060E-03 -0.72136256519E-02  0.15007609088E-01  0.00000000000E+00 0.  1.
     999901    1    3    3    0    0 -0.38223995624E-01 -0.10594647660E-01 -0.12142694628E+00  0.88922315742E+00  0.88000000000E+00 0.  1.
        -11    1    4    4    0    0  0.85587229502E-02  0.22534965653E-02 -0.85022220569E-03  0.89058398878E-02  0.51100000000E-03 0.  1.
         11    1    4    4    0    0  0.16506513200E-01  0.81437058845E-02  0.12949079414E+00  0.13079339361E+00  0.51100000000E-03 0. -1.
</event>
<event>
 8    1  0.2077555E+004  0.1043930E+01  0.7957747E-01            NaN
         13   -1    0    0    0    0  0.00000000000E+00  0.00000000000E+00  0.74505805969E-08  0.10566000000E+00  0.10566000000E+00 0. -1.
     999900   -1    0    0    0    0 -0.00000000000E+00 -0.00000000000E+00 -0.74505805969E-08  0.93827000000E+00  0.93827000000E+00 0. -1.
     999902    2    1    2    0    0  0.23210620796E-02  0.72606912155E-02 -0.96434003394E-03  0.10362465816E+01  0.10362180963E+01 0.  0.
     999903    2    3    3    0    0  0.93047865038E-01  0.85364866791E-01  0.58505576260E-01  0.14615204398E+00  0.44636888727E-01 0.  0.
         14    1    1    2    0    0 -0.23210620796E-02 -0.72606912155E-02  0.96434003394E-03  0.76834183672E-02  0.00000000000E+00 0. -1.
     999901    1    3    3    0    0 -0.90726802958E-01 -0.78104175576E-01 -0.59469916294E-01  0.89009453765E+00  0.88000000000E+00 0. -1.
        -11    1    4    4    0    0  0.67709462355E-01  0.80052983150E-01  0.33285512521E-01  0.11000562653E+00  0.51100000000E-03 0.  1.
         11    1    4    4    0    0  0.25338402683E-01  0.53118836415E-02  0.25220063739E-01  0.36146417448E-01  0.51100000000E-03 0. -1.
</event>
<event>
 8    1  0.2077555E+004  0.1043930E+01  0.7957747E-01            NaN
         13   -1    0    0    0    0  0.00000000000E+00  0.00000000000E+00  0.74505805969E-08  0.10566000000E+00  0.10566000000E+00 0.  1.
     999900   -1    0    0    0    0 -0.00000000000E+00 -0.00000000000E+00 -0.74505805969E-08  0.93827000000E+00  0.93827000000E+00 0. -1.
     999902    2    1    2    0    0 -0.73460833059E-02  0.96728612425E-02 -0.52739486035E-02  0.10306882585E+01  0.10306031935E+01 0.  0.
     999903    2    3    3    0    0 -0.12243859350E+00  0.27514657197E-01 -0.49378569653E-01  0.14191954100E+00  0.44211394874E-01 0.  0.
         14    1    1    2    0    0  0.73460833059E-02 -0.96728612425E-02  0.52739486035E-02  0.13241741518E-01  0.00000000000E+00 0.  1.
     999901    1    3    3    0    0  0.11509251019E+00 -0.17841795954E-01  0.44104621049E-01  0.88876871749E+00  0.88000000000E+00 0.  1.
        -11    1    4    4    0    0 -0.13982900324E-01  0.18740845870E-01 -0.27891898128E-02  0.23553800250E-01  0.51100000000E-03 0. -1.
         11    1    4    4    0    0 -0.10845569318E+00  0.87738113265E-02 -0.46589379840E-01  0.11836574075E+00  0.51100000000E-03 0.  1.
</event>
<event>
 8    1  0.2077555E+004  0.1043930E+01  0.7957747E-01            NaN
         13   -1    0    0    0    0  0.00000000000E+00  0.00000000000E+00  0.74505805969E-08  0.10566000000E+00  0.10566000000E+00 0. -1.
     999900   -1    0    0    0    0 -0.00000000000E+00 -0.00000000000E+00 -0.74505805969E-08  0.93827000000E+00  0.93827000000E+00 0.  1.
     999902    2    1    2    0    0 -0.48887337125E-02 -0.55062124672E-02  0.11967000328E-01  0.10298791214E+01  0.10297832672E+01 0.  0.
     999903    2    3    3    0    0  0.12322603559E+00  0.18024700743E-01  0.44525641033E-01  0.13969534088E+00  0.44974546921E-01 0.  0.
         14    1    1    2    0    0  0.48887337125E-02  0.55062124672E-02 -0.11967000328E-01  0.14050878617E-01  0.00000000000E+00 0.  1.
     999901    1    3    3    0    0 -0.12811476930E+00 -0.23530913211E-01 -0.32558640705E-01  0.89018378050E+00  0.88000000000E+00 0.  1.
        -11    1    4    4    0    0  0.47087825455E-01 -0.16532029586E-02  0.38454940642E-01  0.60819733367E-01  0.51100000000E-03 0.  1.
         11    1    4    4    0    0  0.76138210131E-01  0.19677903702E-01  0.60707003909E-02  0.78875607511E-01  0.51100000000E-03 0. -1.
</event>
<event>
 8    1  0.2077555E+004  0.1043930E+01  0.7957747E-01            NaN
         13   -1    0    0    0    0  0.00000000000E+00  0.00000000000E+00  0.74505805969E-08  0.10566000000E+00  0.10566000000E+00 0.  1.
     999900   -1    0    0    0    0 -0.00000000000E+00 -0.00000000000E+00 -0.74505805969E-08  0.93827000000E+00  0.93827000000E+00 0.  1.
     999902    2    1    2    0    0 -0.13082029773E-02 -0.99808853176E-02  0.10317425129E-01  0.10295154682E+01  0.10294145523E+01 0.  0.
     999903    2    3    3    0    0 -0.11130687541E+00  0.69314072281E-01  0.99559300360E-02  0.13912929974E+00  0.45433251844E-01 0.  0.
         14    1    1    2    0    0  0.13082029773E-02  0.99808853176E-02 -0.10317425129E-01  0.14414531836E-01  0.00000000000E+00 0. -1.
     999901    1    3    3    0    0  0.10999867244E+00 -0.79294957599E-01  0.36149509347E-03  0.89038616842E+00  0.88000000000E+00 0. -1.
        -11    1    4    4    0    0 -0.50137074257E-01  0.54536369509E-01 -0.56311137759E-02  0.74296112803E-01  0.51100000000E-03 0. -1.
         11    1    4    4    0    0 -0.61169801157E-01  0.14777702772E-01  0.15587043812E-01  0.64833186939E-01  0.51100000000E-03 0.  1.
</event>
<event>
 8    1  0.2077555E+004  0.1043930E+01  0.7957747E-01            NaN
         13   -1    0    0    0    0  0.00000000000E+00  0.00000000000E+00  0.74505805969E-08  0.10566000000E+00  0.10566000000E+00 0. -1.
     999900   -1    0    0    0    0 -0.00000000000E+00 -0.00000000000E+00 -0.74505805969E-08  0.93827000000E+00  0.93827000000E+00 0. -1.
     999902    2    1    2    0    0  0.65665764503E-02 -0.10105690554E-01  0.58298679936E-02  0.10305422344E+01  0.10304552705E+01 0.  0.
     999903    2    3    3    0    0 -0.70155594407E-01  0.11094299761E+00  0.95680542961E-02  0.13894083775E+00  0.44529232941E-01 0.  0.
         14    1    1    2    0    0 -0.65665764503E-02  0.10105690554E-01 -0.58298679936E-02  0.13387765634E-01  0.00000000000E+00 0.  1.
     999901    1    3    3    0    0  0.76722170857E-01 -0.12104868817E+00 -0.37381863025E-02  0.89160139661E+00  0.88000000000E+00 0. -1.
        -11    1    4    4    0    0 -0.43707514734E-01  0.57830867514E-01 -0.16155111951E-01  0.74269811126E-01  0.51100000000E-03 0.  1.
         11    1    4    4    0    0 -0.26448079673E-01  0.53112130099E-01  0.25723166247E-01  0.64671026625E-01  0.51100000000E-03 0. -1.
</event>
<event>
 8    1  0.2077555E+004  0.1043930E+01  0.7957747E-01            NaN
         13   -1    0    0    0    0  0.00000000000E+00  0.00000000000E+00  0.74505805969E-08  0.10566000000E+00  0.10566000000E+00 0. -1.
     999900   -1    0    0    0    0 -0.00000000000E+00 -0.00000000000E+00 -0.74505805969E-08  0.93827000000E+00  0.93827000000E+00 0. -1.
     999902    2    1    2    0    0 -0.81675136086E-02 -0.50480354925E-02 -0.94362078993E-02  0.10304677208E+01  0.10303797798E+01 0.  0.
     999903    2    3    3    0    0  0.20405324604E-01 -0.46004407940E-01  0.12185004797E+00  0.13932805024E+00  0.45078693097E-01 0.  0.
         14    1    1    2    0    0  0.81675136086E-02  0.50480354925E-02  0.94362078993E-02  0.13462279168E-01  0.00000000000E+00 0. -1.
     999901    1    3    3    0    0 -0.28572838212E-01  0.40956372448E-01 -0.13128625587E+00  0.89113967059E+00  0.88000000000E+00 0. -1.
        -11    1    4    4    0    0 -0.12326297008E-01 -0.45020258851E-02  0.38021301022E-01  0.40225443284E-01  0.51100000000E-03 0.  1.
         11    1    4    4    0    0  0.32731621612E-01 -0.41502382055E-01  0.83828746945E-01  0.99102606953E-01  0.51100000000E-03 0. -1.
</event>
<event>
 8    1  0.2077555E+004  0.1043930E+01  0.7957747E-01            NaN
         13   -1    0    0    0    0  0.00000000000E+00  0.00000000000E+00  0.74505805969E-08  0.10566000000E+00  0.10566000000E+00 0.  1.
     999900   -1    0    0    0    0 -0.00000000000E+00 -0.00000000000E+00 -0.74505805969E-08  0.93827000000E+00  0.93827000000E+00 0. -1.
     999902    2    1    2    0    0 -0.31037712557E-02 -0.55675228754E-02 -0.12902321132E-01  0.10295390098E+01  0.10294384256E+01 0.  0.
     999903    2    3    3    0    0 -0.11567176149E+00 -0.32869676892E-01 -0.57732643769E-01  0.14081705228E+00  0.45122189563E-01 0.  0.
         14    1    1    2    0    0  0.31037712557E-02  0.55675228754E-02  0.12902321132E-01  0.14390990153E-01  0.00000000000E+00 0.  1.
     999901    1    3    3    0    0  0.11256799023E+00  0.27302154016E-01  0.44830322637E-01  0.88872195757E+00  0.88000000000E+00 0. -1.
        -11    1    4    4    0    0 -0.85436817612E-01 -0.26768493429E-01 -0.19396759577E-01  0.91610574975E-01  0.51100000000E-03 0. -1.
         11    1    4    4    0    0 -0.30234943876E-01 -0.61011834625E-02 -0.38335884191E-01  0.49206477303E-01  0.51100000000E-03 0.  1.
</event>
<event>
 8    1  0.2077555E+004  0.1043930E+01  0.7957747E-01            NaN
         13   -1    0    0    0    0  0.00000000000E+00  0.00000000000E+00  0.74505805969E-08  0.10566000000E+00  0.10566000000E+00 0.  1.
     999900   -1    0    0    0    0 -0.00000000000E+00 -0.00000000000E+00 -0.74505805969E-08  0.93827000000E+00  0.93827000000E+00 0.  1.
     999902    2    1    2    0    0 -0.49692842875E-02 -0.11137145270E-01 -0.65713595466E-02  0.10300767492E+01  0.10299835905E+01 0.  0.
     999903    2    3    3    0    0 -0.66033450069E-01 -0.11693322935E+00 -0.29732215259E-02  0.14163170851E+00  0.44909956091E-01 0.  0.
         14    1    1    2    0    0  0.49692842875E-02  0.11137145270E-01  0.65713595466E-02  0.13853250788E-01  0.00000000000E+00 0. -1.
     999901    1    3    3    0    0  0.61064165781E-01  0.10579608408E+00 -0.35981380207E-02  0.88844504070E+00  0.88000000000E+00 0.  1.
        -11    1    4    4    0    0 -0.30613979468E-01 -0.60684099597E-01 -0.23727583475E-01  0.71993298447E-01  0.51100000000E-03 0.  1.
         11    1    4    4    0    0 -0.35419470601E-01 -0.56249129751E-01  0.20754361950E-01  0.69638410064E-01  0.51100000000E-03 0. -1.
</event>
<event>
 8    1  0.2077555E+004  0.1043930E+01  0.7957747E-01            NaN
         13   -1    0    0    0    0  0.00000000000E+00  0.00000000000E+00  0.74505805969E-08  0.10566000000E+00  0.10566000000E+00 0. -1.
     999900   -1    0    0    0    0 -0.00000000000E+00 -0.00000000000E+00 -0.74505805969E-08  0.93827000000E+00  0.93827000000E+00 0. -1.
     999902    2    1    2    0    0  0.97924781753E-04  0.64913598551E-02  0.12012864197E-01  0.10302751017E+01  0.10301846091E+01 0.  0.
     999903    2    3    3    0    0 -0.62686044278E-01 -0.11045189469E+00 -0.34346009197E-01  0.13911479247E+00  0.45211900539E-01 0.  0.
         14    1    1    2    0    0 -0.97924781753E-04 -0.64913598551E-02 -0.12012864197E-01  0.13654898324E-01  0.00000000000E+00 0.  1.
     999901    1    3    3    0    0  0.62783969059E-01  0.11694325454E+00  0.46358873394E-01  0.89116030920E+00  0.88000000000E+00 0.  1.
        -11    1    4    4    0    0 -0.62801258670E-01 -0.98787817515E-01 -0.17122397723E-01  0.11830667185E+00  0.51100000000E-03 0. -1.
         11    1    4    4    0    0  0.11521439242E-03 -0.11664077171E-01 -0.17223611474E-01  0.20808120622E-01  0.51100000000E-03 0.  1.
</event>
<event>
 8    1  0.2077555E+004  0.1043930E+01  0.7957747E-01            NaN
         13   -1    0    0    0    0  0.00000000000E+00  0.00000000000E+00  0.74505805969E-08  0.10566000000E+00  0.10566000000E+00 0. -1.
     999900   -1    0    0    0    0 -0.00000000000E+00 -0.00000000000E+00 -0.74505805969E-08  0.93827000000E+00  0.93827000000E+00 0.  1.
     999902    2    1    2    0    0 -0.86394501255E-02 -0.59050968252E-02 -0.88806159060E-02  0.10302050007E+01  0.10301135704E+01 0.  0.
     999903    2    3    3    0    0  0.79447444353E-01  0.81326705962E-01 -0.67347755999E-01  0.13959448264E+00  0.44999664774E-01 0.  0.
         14    1    1    2    0    0  0.86394501255E-02  0.59050968252E-02  0.88806159060E-02  0.13724999303E-01  0.00000000000E+00 0. -1.
     999901    1    3    3    0    0 -0.88086894478E-01 -0.87231802788E-01  0.58467140093E-01  0.89061051805E+00  0.88000000000E+00 0. -1.
        -11    1    4    4    0    0  0.38221142913E-01  0.28408332255E-01 -0.52508157832E-01  0.70889046171E-01  0.51100000000E-03 0.  1.
         11    1    4    4    0    0  0.41226301440E-01  0.52918373707E-01 -0.14839598166E-01  0.68705436473E-01  0.51100000000E-03 0. -1.
</event>
<event>
 8    1  0.2077555E+004  0.1043930E+01  0.7957747E-01            NaN
         13   -1    0    0    0    0  0.00000000000E+00  0.00000000000E+00  0.74505805969E-08  0.10566000000E+00  0.10566000000E+00 0. -1.
     999900   -1    0    0    0    0 -0.00000000000E+00 -0.00000000000E+00 -0.74505805969E-08  0.93827000000E+00  0.93827000000E+00 0. -1.
     999902    2    1    2    0    0  0.86546061049E-02 -0.18222251172E-02  0.11450490582E-01  0.10294615362E+01  0.10293598584E+01 0.  0.
     999903    2    3    3    0    0 -0.18850919852E-01  0.10396087904E+00 -0.68901708087E-01  0.13906662664E+00  0.58556466054E-01 0.  0.
         14    1    1    2    0    0 -0.86546061049E-02  0.18222251172E-02 -0.11450490582E-01  0.14468463836E-01  0.00000000000E+00 0.  1.
     999901    1    3    3    0    0  0.27505525957E-01 -0.10578310416E+00  0.80352198669E-01  0.89039490953E+00  0.88000000000E+00 0.  1.
        -11    1    4    4    0    0 -0.39131436461E-01  0.67258609231E-01 -0.35874946832E-01  0.85687004653E-01  0.51100000000E-03 0. -1.
         11    1    4    4    0    0  0.20280516610E-01  0.36702269808E-01 -0.33026761255E-01  0.53379621983E-01  0.51100000000E-03 0.  1.
</event>
<event>
 8    1  0.2077555E+004  0.1043930E+01  0.7957747E-01            NaN
         13   -1    0    0    0    0  0.00000000000E+00  0.00000000000E+00  0.74505805969E-08  0.10566000000E+00  0.10566000000E+00 0. -1.
     999900   -1    0    0    0    0 -0.00000000000E+00 -0.00000000000E+00 -0.74505805969E-08  0.93827000000E+00  0.93827000000E+00 0. -1.
     999902    2    1    2    0    0  0.56150038452E-02 -0.14721792571E-02  0.12874324674E-01  0.10298075421E+01  0.10297107021E+01 0.  0.
     999903    2    3    3    0    0 -0.17818686272E-01 -0.43045121554E-01 -0.12235216048E+00  0.13820020164E+00  0.44258970699E-01 0.  0.
         14    1    1    2    0    0 -0.56150038452E-02  0.14721792571E-02 -0.12874324674E-01  0.14122457852E-01  0.00000000000E+00 0. -1.
     999901    1    3    3    0    0  0.23433690118E-01  0.41572942297E-01  0.13522648516E+00  0.89160734051E+00  0.88000000000E+00 0.  1.
        -11    1    4    4    0    0 -0.17364581789E-01 -0.25362096870E-01 -0.11499920160E+00  0.11903714608E+00  0.51100000000E-03 0. -1.
         11    1    4    4    0    0 -0.45410448330E-03 -0.17683024685E-01 -0.73529588898E-02  0.19163055558E-01  0.51100000000E-03 0.  1.
</event>
<event>
 8    1  0.2077555E+004  0.1043930E+01  0.7957747E-01            NaN
         13   -1    0    0    0    0  0.00000000000E+00  0.00000000000E+00  0.74505805969E-08  0.10566000000E+00  0.10566000000E+00 0.  1.
     999900   -1    0    0    0    0 -0.00000000000E+00 -0.00000000000E+00 -0.74505805969E-08  0.93827000000E+00  0.93827000000E+00 0.  1.
     999902    2    1    2    0    0 -0.15852656062E-01 -0.25628603449E-02 -0.12116014057E-01  0.10238135203E+01  0.10236158712E+01 0.  0.
     999903    2    3    3    0    0 -0.76934324806E-02  0.12615708777E+00 -0.20057185931E-02  0.13435434980E+00  0.45522178187E-01 0.  0.
         14    1    1    2    0    0  0.15852656062E-01  0.25628603449E-02  0.12116014057E-01  0.20116479662E-01  0.00000000000E+00 0.  1.
     999901    1    3    3    0    0 -0.81592235814E-02 -0.12871994811E+00 -0.10110295464E-01  0.88945917053E+00  0.88000000000E+00 0.  1.
        -11    1    4    4    0    0 -0.16404493335E-02  0.35915751998E-01  0.20173056220E-01  0.41229184249E-01  0.51100000000E-03 0.  1.
         11    1    4    4    0    0 -0.60529831471E-02  0.90241335770E-01 -0.22178774813E-01  0.93125165555E-01  0.51100000000E-03 0. -1.
</event>
<event>
 8    1  0.2077555E+004  0.1043930E+01  0.7957747E-01            NaN
         13   -1    0    0    0    0  0.00000000000E+00  0.00000000000E+00  0.74505805969E-08  0.10566000000E+00  0.10566000000E+00 0. -1.
     999900   -1    0    0    0    0 -0.00000000000E+00 -0.00000000000E+00 -0.74505805969E-08  0.93827000000E+00  0.93827000000E+00 0.  1.
     999902    2    1    2    0    0  0.59385585657E-02 -0.57051959362E-02 -0.10461098769E-01  0.10306164608E+01  0.10305304648E+01 0.  0.
     999903    2    3    3    0    0 -0.87931527998E-02  0.10893358106E+00 -0.76549370600E-01  0.14060144285E+00  0.44329617332E-01 0.  0.
         14    1    1    2    0    0 -0.59385585657E-02  0.57051959362E-02  0.10461098769E-01  0.13313539198E-01  0.00000000000E+00 0. -1.
     999901    1    3    3    0    0  0.14731711365E-01 -0.11463877700E+00  0.66088271831E-01  0.89001501795E+00  0.88000000000E+00 0. -1.
        -11    1    4    4    0    0 -0.11926045814E-01  0.10607494115E+00 -0.57834357943E-01  0.12140509787E+00  0.51100000000E-03 0. -1.
         11    1    4    4    0    0  0.31328930142E-02  0.28586399090E-02 -0.18715012657E-01  0.19196344978E-01  0.51100000000E-03 0.  1.
</event>
<event>
 8    1  0.2077555E+004  0.1043930E+01  0.7957747E-01            NaN
         13   -1    0    0    0    0  0.00000000000E+00  0.00000000000E+00  0.74505805969E-08  0.10566000000E+00  0.10566000000E+00 0.  1.
     999900   -1    0    0    0    0 -0.00000000000E+00 -0.00000000000E+00 -0.74505805969E-08  0.93827000000E+00  0.93827000000E+00 0.  1.
     999902    2    1    2    0    0 -0.52385028080E-02 -0.13028174498E-01 -0.16782928714E-02  0.10297881504E+01  0.10296910424E+01 0.  0.
     999903    2    3    3    0    0 -0.11194685178E+00  0.52325739604E-01  0.45871659711E-01  0.13966523542E+00  0.46174540301E-01 0.  0.
         14    1    1    2    0    0  0.52385028080E-02  0.13028174498E-01  0.16782928714E-02  0.14141849574E-01  0.00000000000E+00 0.  1.
     999901    1    3    3    0    0  0.10670834897E+00 -0.65353914102E-01 -0.47549952583E-01  0.89012291501E+00  0.88000000000E+00 0. -1.
        -11    1    4    4    0    0 -0.21779216836E-01  0.32856160626E-01  0.17689098016E-01  0.43209106524E-01  0.51100000000E-03 0. -1.
         11    1    4    4    0    0 -0.90167634943E-01  0.19469578978E-01  0.28182561695E-01  0.96456128895E-01  0.51100000000E-03 0.  1.
</event>
<event>
 8    1  0.2077555E+004  0.1043930E+01  0.7957747E-01            NaN
         13   -1    0    0    0    0  0.00000000000E+00  0.00000000000E+00  0.74505805969E-08  0.10566000000E+00  0.10566000000E+00 0. -1.
     999900   -1    0    0    0    0 -0.00000000000E+00 -0.00000000000E+00 -0.74505805969E-08  0.93827000000E+00  0.93827000000E+00 0.  1.
     999902    2    1    2    0    0  0.48054177316E-02  0.97948208360E-02 -0.84990579903E-02  0.10301001576E+01  0.10300073156E+01 0.  0.
     999903    2    3    3    0    0  0.60977625490E-01 -0.11695966880E+00  0.13422788120E-02  0.13919114456E+00  0.44435774703E-01 0.  0.
         14    1    1    2    0    0 -0.48054177316E-02 -0.97948208360E-02  0.84990579903E-02  0.13829842425E-01  0.00000000000E+00 0. -1.
     999901    1    3    3    0    0 -0.56172207758E-01  0.12675448964E+00 -0.98413368023E-02  0.89090901302E+00  0.88000000000E+00 0.  1.
        -11    1    4    4    0    0  0.16134625252E-01 -0.76493172411E-01 -0.56581097723E-02  0.78382439901E-01  0.51100000000E-03 0. -1.
         11    1    4    4    0    0  0.44843000237E-01 -0.40466496392E-01  0.70003885844E-02  0.60808704655E-01  0.51100000000E-03 0.  1.
</event>
<event>
 8    1  0.2077555E+004  0.1043930E+01  0.7957747E-01            NaN
         13   -1    0    0    0    0  0.00000000000E+00  0.00000000000E+00  0.74505805969E-08  0.10566000000E+00  0.10566000000E+00 0.  1.
     999900   -1    0    0    0    0 -0.00000000000E+00 -0.00000000000E+00 -0.74505805969E-08  0.93827000000E+00  0.93827000000E+00 0.  1.
     999902    2    1    2    0    0  0.13024401457E-01 -0.12805327163E-02  0.38395809900E-02  0.10302911885E+01  0.10302009104E+01 0.  0.
     999903    2    3    3    0    0  0.13229460749E+00 -0.18371954302E-01 -0.17295371611E-01  0.14182949265E+00  0.44464404100E-01 0.  0.
         14    1    1    2    0    0 -0.13024401457E-01  0.12805327163E-02 -0.38395809900E-02  0.13638811515E-01  0.00000000000E+00 0.  1.
     999901    1    3    3    0    0 -0.11927020603E+00  0.17091421586E-01  0.21134952601E-01  0.88846169583E+00  0.88000000000E+00 0. -1.
        -11    1    4    4    0    0  0.89627107903E-01 -0.18663096806E-01  0.85365192949E-02  0.91948153522E-01  0.51100000000E-03 0.  1.
         11    1    4    4    0    0  0.42667499585E-01  0.29114250396E-03 -0.25831890906E-01  0.49881339132E-01  0.51100000000E-03 0. -1.
</event>
<event>
 8    1  0.2077555E+004  0.1043930E+01  0.7957747E-01            NaN
         13   -1    0    0    0    0  0.00000000000E+00  0.00000000000E+00  0.74505805969E-08  0.10566000000E+00  0.10566000000E+00 0.  1.
     999900   -1    0    0    0    0 -0.00000000000E+00 -0.00000000000E+00 -0.74505805969E-08  0.93827000000E+00  0.93827000000E+00 0.  1.
     999902    2    1    2    0    0  0.39804844912E-02 -0.15753491353E-02  0.17239107907E-01  0.10261673194E+01  0.10260135742E+01 0.  0.
     999903    2    3    3    0    0  0.41391504907E-01 -0.72445188509E-01  0.10101459485E+00  0.13856355034E+00  0.45103737033E-01 0.  0.
         14    1    1    2    0    0 -0.39804844912E-02  0.15753491353E-02 -0.17239107907E-01  0.17762680628E-01  0.00000000000E+00 0. -1.
     999901    1    3    3    0    0 -0.37411020416E-01  0.70869839373E-01 -0.83775486943E-01  0.88760376903E+00  0.88000000000E+00 0.  1.
        -11    1    4    4    0    0  0.22196912277E-01 -0.69407747563E-01  0.65057118267E-01  0.97687399876E-01  0.51100000000E-03 0. -1.
         11    1    4    4    0    0  0.19194592630E-01 -0.30374409458E-02  0.35957476583E-01  0.40876150466E-01  0.51100000000E-03 0.  1.
</event>
<event>
 8    1  0.2734436E+004  0.1043930E+01  0.7957747E-01            NaN
         13   -1    0    0    0    0  0.00000000000E+00  0.00000000000E+00  0.74505805969E-08  0.10566000000E+00  0.10566000000E+00 0.  1.
     999900   -1    0    0    0    0 -0.00000000000E+00 -0.00000000000E+00 -0.74505805969E-08  0.93827000000E+00  0.93827000000E+00 0. -1.
     999902    2    1    2    0    0  0.11718494407E-01 -0.10504551258E-02 -0.77814404029E-02  0.10298240657E+01  0.10297274537E+01 0.  0.
     999903    2    3    3    0    0  0.34604720162E-01  0.11749807481E+00 -0.52244609876E-01  0.14046783410E+00  0.44703790817E-01 0.  0.
         14    1    1    2    0    0 -0.11718494407E-01  0.10504551258E-02  0.77814404029E-02  0.14105934279E-01  0.00000000000E+00 0. -1.
     999901    1    3    3    0    0 -0.22886225755E-01 -0.11854852994E+00  0.44463169473E-01  0.88935623162E+00  0.88000000000E+00 0. -1.
        -11    1    4    4    0    0  0.25438700580E-01  0.61608408677E-01 -0.52333683280E-02  0.66860846330E-01  0.51100000000E-03 0.  1.
         11    1    4    4    0    0  0.91660195826E-02  0.55889666138E-01 -0.47011241548E-01  0.73606987772E-01  0.51100000000E-03 0. -1.
</event>
<event>
 8    1  0.2077555E+004  0.1043930E+01  0.7957747E-01            NaN
         13   -1    0    0    0    0  0.00000000000E+00  0.00000000000E+00  0.74505805969E-08  0.10566000000E+00  0.10566000000E+00 0. -1.
     999900   -1    0    0    0    0 -0.00000000000E+00 -0.00000000000E+00 -0.74505805969E-08  0.93827000000E+00  0.93827000000E+00 0.  1.
     999902    2    1    2    0    0 -0.97039461399E-02  0.89365886957E-02  0.15287836292E-02  0.10306497000E+01  0.10305641357E+01 0.  0.
     999903    2    3    3    0    0  0.97413603312E-01 -0.87981350469E-01  0.79513140503E-02  0.13884899065E+00  0.44561089181E-01 0.  0.
         14    1    1    2    0    0  0.97039461399E-02 -0.89365886957E-02 -0.15287836292E-02  0.13280299981E-01  0.00000000000E+00 0.  1.
     999901    1    3    3    0    0 -0.10711754945E+00  0.96917939165E-01 -0.64225304211E-02  0.89180070937E+00  0.88000000000E+00 0. -1.
        -11    1    4    4    0    0  0.47113145061E-01 -0.16414962588E-01 -0.60502361321E-02  0.50258988376E-01  0.51100000000E-03 0.  1.
         11    1    4    4    0    0  0.50300458251E-01 -0.71566387881E-01  0.14001550182E-01  0.88590002275E-01  0.51100000000E-03 0. -1.
</event>
<event>
 8    1  0.2077555E+004  0.1043930E+01  0.7957747E-01            NaN
         13   -1    0    0    0    0  0.00000000000E+00  0.00000000000E+00  0.74505805969E-08  0.10566000000E+00  0.10566000000E+00 0. -1.
     999900   -1    0    0    0    0 -0.00000000000E+00 -0.00000000000E+00 -0.74505805969E-08  0.93827000000E+00  0.93827000000E+00 0.  1.
     999902    2    1    2    0    0 -0.55357013203E-02  0.88296937372E-02  0.10382656437E-01  0.10292192204E+01  0.10291140834E+01 0.  0.
     999903    2    3    3    0    0 -0.27265338526E-01  0.32153528222E-01  0.12639663468E+00  0.14103262882E+00  0.46226021576E-01 0.  0.
         14    1    1    2    0    0  0.55357013203E-02 -0.88296937372E-02 -0.10382656437E-01  0.14710779561E-01  0.00000000000E+00 0.  1.
     999901    1    3    3    0    0  0.21729637205E-01 -0.23323834484E-01 -0.11601397824E+00  0.88818659162E+00  0.88000000000E+00 0.  1.
        -11    1    4    4    0    0 -0.24326903039E-01  0.21210776805E-01  0.30311096704E-01  0.44280006419E-01  0.51100000000E-03 0. -1.
         11    1    4    4    0    0 -0.29384354868E-02  0.10942751417E-01  0.96085537977E-01  0.96752622398E-01  0.51100000000E-03 0.  1.
</event>
<event>
 8    1  0.2077555E+004  0.1043930E+01  0.7957747E-01            NaN
         13   -1    0    0    0    0  0.00000000000E+00  0.00000000000E+00  0.74505805969E-08  0.10566000000E+00  0.10566000000E+00 0. -1.
     999900   -1    0    0    0    0 -0.00000000000E+00 -0.00000000000E+00 -0.74505805969E-08  0.93827000000E+00  0.93827000000E+00 0. -1.
     999902    2    1    2    0    0 -0.10411574544E-01 -0.53503616826E-03 -0.10732817202E-01  0.10289673628E+01  0.10288585681E+01 0.  0.
     999903    2    3    3    0    0 -0.30767220969E-01 -0.11601000261E+00  0.53380164506E-01  0.13887787588E+00  0.45085250975E-01 0.  0.
         14    1    1    2    0    0  0.10411574544E-01  0.53503616826E-03  0.10732817202E-01  0.14962637243E-01  0.00000000000E+00 0. -1.
     999901    1    3    3    0    0  0.20355646425E-01  0.11547496644E+00 -0.64112981708E-01  0.89008948687E+00  0.88000000000E+00 0.  1.
        -11    1    4    4    0    0 -0.14232719703E-01 -0.44624825156E-01 -0.22199070869E-02  0.46894929777E-01  0.51100000000E-03 0.  1.
         11    1    4    4    0    0 -0.16534501266E-01 -0.71385177456E-01  0.55600071593E-01  0.91982946108E-01  0.51100000000E-03 0. -1.
</event>
<event>
 8    1  0.2077555E+004  0.1043930E+01  0.7957747E-01            NaN
         13   -1    0    0    0    0  0.00000000000E+00  0.00000000000E+00  0.74505805969E-08  0.10566000000E+00  0.10566000000E+00 0.  1.
     999900   -1    0    0    0    0 -0.00000000000E+00 -0.00000000000E+00 -0.74505805969E-08  0.93827000000E+00  0.93827000000E+00 0. -1.
     999902    2    1    2    0    0 -0.34263055319E-02 -0.12619371907E-01 -0.52345094561E-02  0.10298449652E+01  0.10297486412E+01 0.  0.
     999903    2    3    3    0    0  0.63182242746E-01 -0.11266290400E+00 -0.33931542775E-01  0.14121178621E+00  0.45874755951E-01 0.  0.
         14    1    1    2    0    0  0.34263055319E-02  0.12619371907E-01  0.52345094561E-02  0.14085034831E-01  0.00000000000E+00 0. -1.
     999901    1    3    3    0    0 -0.66608548278E-01  0.10004353210E+00  0.28697033318E-01  0.88863317895E+00  0.88000000000E+00 0.  1.
        -11    1    4    4    0    0  0.35622463114E-01 -0.23939058490E-01 -0.19677548793E-01  0.47217639153E-01  0.51100000000E-03 0. -1.
         11    1    4    4    0    0  0.27559779633E-01 -0.88723845515E-01 -0.14253993981E-01  0.93994147062E-01  0.51100000000E-03 0.  1.
</event>
<event>
 8    1  0.2077555E+004  0.1043930E+01  0.7957747E-01            NaN
         13   -1    0    0    0    0  0.00000000000E+00  0.00000000000E+00  0.74505805969E-08  0.10566000000E+00  0.10566000000E+00 0. -1.
     999900   -1    0    0    0    0 -0.00000000000E+00 -0.00000000000E+00 -0.74505805969E-08  0.93827000000E+00  0.93827000000E+00 0. -1.
     999902    2    1    2    0    0 -0.38797666601E-02 -0.11805414456E-01  0.21498240101E-02  0.10313188088E+01  0.10312416997E+01 0.  0.
     999903    2    3    3    0    0 -0.21967895745E-01  0.13049243343E+00 -0.15896061319E-02  0.13969678056E+00  0.44741479935E-01 0.  0.
         14    1    1    2    0    0  0.38797666601E-02  0.11805414456E-01 -0.21498240101E-02  0.12611191185E-01  0.00000000000E+00 0.  1.
     999901    1    3    3    0    0  0.18088129085E-01 -0.14229784788E+00  0.37394301420E-02  0.89162202825E+00  0.88000000000E+00 0.  1.
        -11    1    4    4    0    0  0.59803725559E-02  0.31759052096E-01  0.15202118023E-01  0.35717891306E-01  0.51100000000E-03 0.  1.
         11    1    4    4    0    0 -0.27948268301E-01  0.98733381331E-01 -0.16791724154E-01  0.10397888926E+00  0.51100000000E-03 0. -1.
</event>
<event>
 8    1  0.2077555E+004  0.1043930E+01  0.7957747E-01            NaN
         13   -1    0    0    0    0  0.00000000000E+00  0.00000000000E+00  0.74505805969E-08  0.10566000000E+00  0.10566000000E+00 0. -1.
     999900   -1    0    0    0    0 -0.00000000000E+00 -0.00000000000E+00 -0.74505805969E-08  0.93827000000E+00  0.93827000000E+00 0.  1.
     999902    2    1    2    0    0 -0.18270103861E-02 -0.14381711931E-01  0.23761473300E-02  0.10292392655E+01  0.10291344168E+01 0.  0.
     999903    2    3    3    0    0  0.46546981701E-02  0.11648225434E+00  0.58083185426E-01  0.13779624188E+00  0.44992955610E-01 0.  0.
         14    1    1    2    0    0  0.18270103861E-02  0.14381711931E-01 -0.23761473300E-02  0.14690734534E-01  0.00000000000E+00 0.  1.
     999901    1    3    3    0    0 -0.64817085562E-02 -0.13086396627E+00 -0.55707038096E-01  0.89144302359E+00  0.88000000000E+00 0.  1.
        -11    1    4    4    0    0  0.23293650621E-01  0.78666274469E-01  0.31114356867E-01  0.87745890059E-01  0.51100000000E-03 0.  1.
         11    1    4    4    0    0 -0.18638952450E-01  0.37815979871E-01  0.26968828559E-01  0.50050351816E-01  0.51100000000E-03 0. -1.
</event>
<event>
 8    1  0.2077555E+004  0.1043930E+01  0.7957747E-01            NaN
         13   -1    0    0    0    0  0.00000000000E+00  0.00000000000E+00  0.74505805969E-08  0.10566000000E+00  0.10566000000E+00 0. -1.
     999900   -1    0    0    0    0 -0.00000000000E+00 -0.00000000000E+00 -0.74505805969E-08  0.93827000000E+00  0.93827000000E+00 0.  1.
     999902    2    1    2    0    0 -0.21315015206E-02  0.92705826477E-02  0.82480720606E-03  0.10343818427E+01  0.10343377732E+01 0.  0.
     999903    2    3    3    0    0 -0.53161707542E-01 -0.11198462601E+00  0.54971886132E-01  0.14295668389E+00  0.45254630618E-01 0.  0.
         14    1    1    2    0    0  0.21315015206E-02 -0.92705826477E-02 -0.82480720606E-03  0.95481573242E-02  0.00000000000E+00 0. -1.
     999901    1    3    3    0    0  0.51030206022E-01  0.12125520866E+00 -0.54147078926E-01  0.89142515878E+00  0.88000000000E+00 0.  1.
        -11    1    4    4    0    0 -0.78743378381E-02 -0.42617477577E-01 -0.34389498100E-03  0.43343211420E-01  0.51100000000E-03 0. -1.
         11    1    4    4    0    0 -0.45287369704E-01 -0.69367148437E-01  0.55315781113E-01  0.99613472473E-01  0.51100000000E-03 0.  1.
</event>
<event>
 8    1  0.2077555E+004  0.1043930E+01  0.7957747E-01            NaN
         13   -1    0    0    0    0  0.00000000000E+00  0.00000000000E+00  0.74505805969E-08  0.10566000000E+00  0.10566000000E+00 0.  1.
     999900   -1    0    0    0    0 -0.00000000000E+00 -0.00000000000E+00 -0.74505805969E-08  0.93827000000E+00  0.93827000000E+00 0.  1.
     999902    2    1    2    0    0 -0.73520246394E-03 -0.99293266681E-02  0.10880153850E-01  0.10291817866E+01  0.10290761099E+01 0.  0.
     999903    2    3    3    0    0 -0.90140051079E-01  0.78023811757E-01  0.55759196200E-01  0.13915756785E+00  0.45197308766E-01 0.  0.
         14    1    1    2    0    0  0.73520246394E-03  0.99293266681E-02 -0.10880153850E-01  0.14748213402E-01  0.00000000000E+00 0. -1.
     999901    1    3    3    0    0  0.89404848615E-01 -0.87953138425E-01 -0.44879042350E-01  0.89002421875E+00  0.88000000000E+00 0.  1.
        -11    1    4    4    0    0 -0.75010429007E-01  0.72010376380E-01  0.29205563141E-01  0.10800594801E+00  0.51100000000E-03 0.  1.
         11    1    4    4    0    0 -0.15129622072E-01  0.60134353765E-02  0.26553633059E-01  0.31151619841E-01  0.51100000000E-03 0. -1.
</event>
<event>
 8    1  0.2077555E+004  0.1043930E+01  0.7957747E-01            NaN
         13   -1    0    0    0    0  0.00000000000E+00  0.00000000000E+00  0.74505805969E-08  0.10566000000E+00  0.10566000000E+00 0. -1.
     999900   -1    0    0    0    0 -0.00000000000E+00 -0.00000000000E+00 -0.74505805969E-08  0.93827000000E+00  0.93827000000E+00 0.  1.
     999902    2    1    2    0    0 -0.11301379893E-02  0.10954403547E-01 -0.89031616741E-02  0.10297686986E+01  0.10296713214E+01 0.  0.
     999903    2    3    3    0    0 -0.12201873843E+00 -0.17768672344E-01  0.41812777982E-01  0.13959389818E+00  0.50337359498E-01 0.  0.
         14    1    1    2    0    0  0.11301379893E-02 -0.10954403547E-01  0.89031616741E-02  0.14161301379E-01  0.00000000000E+00 0.  1.
     999901    1    3    3    0    0  0.12088860044E+00  0.28723075892E-01 -0.50715939656E-01  0.89017480044E+00  0.88000000000E+00 0.  1.
        -11    1    4    4    0    0 -0.87430054524E-01  0.47466198272E-02  0.11344983455E-01  0.88292211460E-01  0.51100000000E-03 0. -1.
         11    1    4    4    0    0 -0.34588683907E-01 -0.22515292172E-01  0.30467794526E-01  0.51301686720E-01  0.51100000000E-03 0.  1.
</event>
<event>
 8    1  0.2077555E+004  0.1043930E+01  0.7957747E-01            NaN
         13   -1    0    0    0    0  0.00000000000E+00  0.00000000000E+00  0.74505805969E-08  0.10566000000E+00  0.10566000000E+00 0. -1.
     999900   -1    0    0    0    0 -0.00000000000E+00 -0.00000000000E+00 -0.74505805969E-08  0.93827000000E+00  0.93827000000E+00 0. -1.
     999902    2    1    2    0    0  0.20968693484E-02  0.67767994785E-02 -0.11775946702E-01  0.10301824623E+01  0.10300907294E+01 0.  0.
     999903    2    3    3    0    0  0.73772583358E-01 -0.79637537900E-01  0.74061476191E-01  0.13890646192E+00  0.45004126567E-01 0.  0.
         14    1    1    2    0    0 -0.20968693484E-02 -0.67767994785E-02  0.11775946702E-01  0.13747537705E-01  0.00000000000E+00 0. -1.
     999901    1    3    3    0    0 -0.71675714009E-01  0.86414337379E-01 -0.85837422893E-01  0.89127600038E+00  0.88000000000E+00 0. -1.
        -11    1    4    4    0    0  0.69978015237E-01 -0.61550076670E-01  0.42726680331E-01  0.10252397226E+00  0.51100000000E-03 0. -1.
         11    1    4    4    0    0  0.37945681206E-02 -0.18087461230E-01  0.31334795860E-01  0.36382489656E-01  0.51100000000E-03 0.  1.
</event>
<event>
 8    1  0.2077555E+004  0.1043930E+01  0.7957747E-01            NaN
         13   -1    0    0    0    0  0.00000000000E+00  0.00000000000E+00  0.74505805969E-08  0.10566000000E+00  0.10566000000E+00 0.  1.
     999900   -1    0    0    0    0 -0.00000000000E+00 -0.00000000000E+00 -0.74505805969E-08  0.93827000000E+00  0.93827000000E+00 0.  1.
     999902    2    1    2    0    0  0.85819575171E-02  0.14762199792E-02  0.26106277172E-03  0.10352180901E+01  0.10351814318E+01 0.  0.
     999903    2    3    3    0    0 -0.67651911986E-01  0.11902273048E+00  0.43188712552E-02  0.14412592271E+00  0.44837901168E-01 0.  0.
         14    1    1    2    0    0 -0.85819575171E-02 -0.14762199792E-02 -0.26106277172E-03  0.87119098953E-02  0.00000000000E+00 0.  1.
     999901    1    3    3    0    0  0.76233869503E-01 -0.11754651050E+00 -0.40578084835E-02  0.89109216740E+00  0.88000000000E+00 0.  1.
        -11    1    4    4    0    0 -0.10722221526E-01  0.13704436305E-01 -0.14847854679E-01  0.22880068149E-01  0.51100000000E-03 0. -1.
         11    1    4    4    0    0 -0.56929690459E-01  0.10531829417E+00  0.19166725935E-01  0.12124585456E+00  0.51100000000E-03 0.  1.
</event>
<event>
 7    1  0.2077555E+004  0.1043930E+01  0.7957747E-01            NaN
         13   -1    0    0    0    0  0.00000000000E+00  0.00000000000E+00  0.74505805969E-08  0.10566000000E+00  0.10566000000E+00 0.  1.
     999900   -1    0    0    0    0 -0.00000000000E+00 -0.00000000000E+00 -0.74505805969E-08  0.93827000000E+00  0.93827000000E+00 0.  1.
     999902    2    1    2    0    0  0.11484969514E-01  0.19913654101E-02 -0.72115201201E-02  0.10302232103E+01  0.10301320241E+01 0.  0.
         14    1    1    2    0    0 -0.11484969514E-01 -0.19913654101E-02  0.72115201201E-02  0.13706789682E-01  0.00000000000E+00 0.  1.
     999901    1    3    3    0    0 -0.67285695147E-01  0.70520892399E-01  0.83344008450E-01  0.88929566781E+00  0.88000000000E+00 0. -1.
        -11    1    3    3    0    0  0.59071832058E-01 -0.62794572484E-01 -0.80974038313E-01  0.11827804394E+00  0.51100000000E-03 0. -1.
         11    1    3    3    0    0  0.19698832603E-01 -0.57349545045E-02 -0.95814902567E-02  0.22649498573E-01  0.51100000000E-03 0.  1.
</event>
<event>
 8    1  0.2077555E+004  0.1043930E+01  0.7957747E-01            NaN
         13   -1    0    0    0    0  0.00000000000E+00  0.00000000000E+00  0.74505805969E-08  0.10566000000E+00  0.10566000000E+00 0. -1.
     999900   -1    0    0    0    0 -0.00000000000E+00 -0.00000000000E+00 -0.74505805969E-08  0.93827000000E+00  0.93827000000E+00 0.  1.
     999902    2    1    2    0    0 -0.86056830259E-02  0.13962823454E-01  0.89742025073E-02  0.10252336225E+01  0.10250631328E+01 0.  0.
     999903    2    3    3    0    0 -0.31158767216E-01  0.10013772129E+00  0.77811976390E-01  0.13806205304E+00  0.44810655211E-01 0.  0.
         14    1    1    2    0    0  0.86056830259E-02 -0.13962823454E-01 -0.89742025073E-02  0.18696377451E-01  0.00000000000E+00 0.  1.
     999901    1    3    3    0    0  0.22553084190E-01 -0.86174897840E-01 -0.68837773883E-01  0.88717156950E+00  0.88000000000E+00 0.  1.
        -11    1    4    4    0    0 -0.19592560594E-01  0.11595304024E-01  0.27000848624E-01  0.35321756093E-01  0.51100000000E-03 0.  1.
         11    1    4    4    0    0 -0.11566206621E-01  0.88542417271E-01  0.50811127766E-01  0.10274029695E+00  0.51100000000E-03 0. -1.
</event>
<event>
 8    1  0.2077555E+004  0.1043930E+01  0.7957747E-01            NaN
         13   -1    0    0    0    0  0.00000000000E+00  0.00000000000E+00  0.74505805969E-08  0.10566000000E+00  0.10566000000E+00 0. -1.
     999900   -1    0    0    0    0 -0.00000000000E+00 -0.00000000000E+00 -0.74505805969E-08  0.93827000000E+00  0.93827000000E+00 0. -1.
     999902    2    1    2    0    0 -0.13403774248E-01  0.38892407388E-02  0.13406446500E-02  0.10299091339E+01  0.10298136916E+01 0.  0.
     999903    2    3    3    0    0  0.12055965143E+00  0.50009235397E-01  0.12408606565E-01  0.13850812814E+00  0.44665141514E-01 0.  0.
         14    1    1    2    0    0  0.13403774248E-01 -0.38892407388E-02 -0.13406446500E-02  0.14020866082E-01  0.00000000000E+00 0.  1.
     999901    1    3    3    0    0 -0.13396342567E+00 -0.46119994659E-01 -0.11067961915E-01  0.89140100578E+00  0.88000000000E+00 0.  1.
        -11    1    4    4    0    0  0.90206348389E-01  0.17138276039E-01  0.17501948731E-01  0.93474515915E-01  0.51100000000E-03 0.  1.
         11    1    4    4    0    0  0.30353303036E-01  0.32870959358E-01 -0.50933421655E-02  0.45033612222E-01  0.51100000000E-03 0. -1.
</event>
<event>
 8    1  0.2077555E+004  0.1043930E+01  0.7957747E-01            NaN
         13   -1    0    0    0    0  0.00000000000E+00  0.00000000000E+00  0.74505805969E-08  0.10566000000E+00  0.10566000000E+00 0.  1.
     999900   -1    0    0    0    0 -0.00000000000E+00 -0.00000000000E+00 -0.74505805969E-08  0.93827000000E+00  0.93827000000E+00 0. -1.
     999902    2    1    2    0    0 -0.47582134758E-02  0.10756067233E-01 -0.37278508189E-02  0.10315918296E+01  0.10315180427E+01 0.  0.
     999903    2    3    3    0    0 -0.12884960700E+00  0.40373946308E-01 -0.25916242867E-02  0.14239152384E+00  0.45125965678E-01 0.  0.
         14    1    1    2    0    0  0.47582134758E-02 -0.10756067233E-01  0.37278508189E-02  0.12338170429E-01  0.00000000000E+00 0. -1.
     999901    1    3    3    0    0  0.12409139353E+00 -0.29617879075E-01 -0.11362265322E-02  0.88920030574E+00  0.88000000000E+00 0.  1.
        -11    1    4    4    0    0 -0.40380734635E-01  0.35373906882E-01 -0.31497265116E-02  0.53778238311E-01  0.51100000000E-03 0. -1.
         11    1    4    4    0    0 -0.88468872368E-01  0.50000394264E-02  0.55810222491E-03  0.88613285525E-01  0.51100000000E-03 0.  1.
</event>
<event>
 7    1  0.2077555E+004  0.1043930E+01  0.7957747E-01            NaN
         13   -1    0    0    0    0  0.00000000000E+00  0.00000000000E+00  0.74505805969E-08  0.10566000000E+00  0.10566000000E+00 0.  1.
     999900   -1    0    0    0    0 -0.00000000000E+00 -0.00000000000E+00 -0.74505805969E-08  0.93827000000E+00  0.93827000000E+00 0.  1.
     999902    2    1    2    0    0  0.10239486045E-01 -0.83602544400E-02 -0.29805368860E-02  0.10303791871E+01  0.10302900780E+01 0.  0.
         14    1    1    2    0    0 -0.10239486045E-01  0.83602544400E-02  0.29805368860E-02  0.13550812850E-01  0.00000000000E+00 0.  1.
     999901    1    3    3    0    0  0.40456977855E-02  0.11778975595E+00  0.52984116678E-01  0.88943696286E+00  0.88000000000E+00 0. -1.
        -11    1    3    3    0    0  0.14412496575E-01 -0.10122140960E+00 -0.50868360886E-01  0.11419870874E+00  0.51100000000E-03 0.  1.
         11    1    3    3    0    0 -0.82187083157E-02 -0.24928600793E-01 -0.50962926773E-02  0.26743515549E-01  0.51100000000E-03 0. -1.
</event>
<event>
 8    1  0.2077555E+004  0.1043930E+01  0.7957747E-01            NaN
         13   -1    0    0    0    0  0.00000000000E+00  0.00000000000E+00  0.74505805969E-08  0.10566000000E+00  0.10566000000E+00 0. -1.
     999900   -1    0    0    0    0 -0.00000000000E+00 -0.00000000000E+00 -0.74505805969E-08  0.93827000000E+00  0.93827000000E+00 0.  1.
     999902    2    1    2    0    0 -0.81797155073E-03 -0.12825817410E-02  0.12716920445E-01  0.10311224179E+01  0.10310428733E+01 0.  0.
     999903    2    3    3    0    0 -0.36302078261E-01  0.86814154285E-02  0.12927160767E+00  0.14267242034E+00  0.47445369822E-01 0.  0.
         14    1    1    2    0    0  0.81797155073E-03  0.12825817410E-02 -0.12716920445E-01  0.12807582090E-01  0.00000000000E+00 0.  1.
     999901    1    3    3    0    0  0.35484106710E-01 -0.99639971695E-02 -0.11655468722E+00  0.88844999757E+00  0.88000000000E+00 0.  1.
        -11    1    4    4    0    0 -0.44689556504E-01  0.27447301943E-02  0.74323869416E-01  0.86769745248E-01  0.51100000000E-03 0.  1.
         11    1    4    4    0    0  0.83874782429E-02  0.59366852342E-02  0.54947738249E-01  0.55902675093E-01  0.51100000000E-03 0. -1.
</event>
<event>
 8    1  0.2077555E+004  0.1043930E+01  0.7957747E-01            NaN
         13   -1    0    0    0    0  0.00000000000E+00  0.00000000000E+00  0.74505805969E-08  0.10566000000E+00  0.10566000000E+00 0.  1.
     999900   -1    0    0    0    0 -0.00000000000E+00 -0.00000000000E+00 -0.74505805969E-08  0.93827000000E+00  0.93827000000E+00 0.  1.
     999902    2    1    2    0    0  0.63704030836E-02  0.12037686635E-01  0.65582916984E-02  0.10288138125E+01  0.10287027567E+01 0.  0.
     999903    2    3    3    0    0 -0.10108138789E+00 -0.43419559644E-01 -0.69543048391E-01  0.13729106599E+00  0.43702357882E-01 0.  0.
         14    1    1    2    0    0 -0.63704030836E-02 -0.12037686635E-01 -0.65582916984E-02  0.15116187514E-01  0.00000000000E+00 0. -1.
     999901    1    3    3    0    0  0.10745179098E+00  0.55457246279E-01  0.76101340089E-01  0.89152274649E+00  0.88000000000E+00 0. -1.
        -11    1    4    4    0    0 -0.24402909583E-01 -0.52227204274E-02 -0.39075447118E-01  0.46367342961E-01  0.51100000000E-03 0. -1.
         11    1    4    4    0    0 -0.76678478309E-01 -0.38196839216E-01 -0.30467601273E-01  0.90923723033E-01  0.51100000000E-03 0.  1.
</event>
<event>
 8    1  0.2077555E+004  0.1043930E+01  0.7957747E-01            NaN
         13   -1    0    0    0    0  0.00000000000E+00  0.00000000000E+00  0.74505805969E-08  0.10566000000E+00  0.10566000000E+00 0.  1.
     999900   -1    0    0    0    0 -0.00000000000E+00 -0.00000000000E+00 -0.74505805969E-08  0.93827000000E+00  0.93827000000E+00 0. -1.
     999902    2    1    2    0    0  0.61259457887E-02  0.78554071279E-02  0.10187534337E-01  0.10296814742E+01  0.10295828853E+01 0.  0.
     999903    2    3    3    0    0 -0.10614184476E+00 -0.76309521512E-01 -0.93224926667E-02  0.13835188687E+00  0.44329464792E-01 0.  0.
         14    1    1    2    0    0 -0.61259457887E-02 -0.78554071279E-02 -0.10187534337E-01  0.14248525847E-01  0.00000000000E+00 0. -1.
     999901    1    3    3    0    0  0.11226779055E+00  0.84164928640E-01  0.19510027003E-01  0.89132958728E+00  0.88000000000E+00 0. -1.
        -11    1    4    4    0    0 -0.21261456109E-01 -0.22879778629E-01  0.15726798175E-01  0.34973233877E-01  0.51100000000E-03 0.  1.
         11    1    4    4    0    0 -0.84880388652E-01 -0.53429742883E-01 -0.25049290842E-01  0.10337865300E+00  0.51100000000E-03 0. -1.
</event>
<event>
 8    1  0.2077555E+004  0.1043930E+01  0.7957747E-01            NaN
         13   -1    0    0    0    0  0.00000000000E+00  0.00000000000E+00  0.74505805969E-08  0.10566000000E+00  0.10566000000E+00 0. -1.
     999900   -1    0    0    0    0 -0.00000000000E+00 -0.00000000000E+00 -0.74505805969E-08  0.93827000000E+00  0.93827000000E+00 0. -1.
     999902    2    1    2    0    0  0.92381295773E-02 -0.34788810276E-02  0.45235784810E-02  0.10330714359E+01  0.10330143674E+01 0.  0.
     999903    2    3    3    0    0 -0.13741405217E-01  0.13362691403E+00  0.93606703901E-02  0.14214525745E+00  0.45526626199E-01 0.  0.
         14    1    1    2    0    0 -0.92381295773E-02  0.34788810276E-02 -0.45235784810E-02  0.10858564065E-01  0.00000000000E+00 0. -1.
     999901    1    3    3    0    0  0.22979534794E-01 -0.13710579506E+00 -0.48370919091E-02  0.89092617849E+00  0.88000000000E+00 0.  1.
        -11    1    4    4    0    0 -0.12644646576E-01  0.50292969621E-01  0.24635013946E-01  0.57414413813E-01  0.51100000000E-03 0.  1.
         11    1    4    4    0    0 -0.10967586402E-02  0.83333944411E-01 -0.15274343556E-01  0.84730843633E-01  0.51100000000E-03 0. -1.
</event>
<event>
 8    1  0.2077555E+004  0.1043930E+01  0.7957747E-01            NaN
         13   -1    0    0    0    0  0.00000000000E+00  0.00000000000E+00  0.74505805969E-08  0.10566000000E+00  0.10566000000E+00 0.  1.
     999900   -1    0    0    0    0 -0.00000000000E+00 -0.00000000000E+00 -0.74505805969E-08  0.93827000000E+00  0.93827000000E+00 0. -1.
     999902    2    1    2    0    0 -0.32132080650E-02  0.13340562331E-01  0.18710447602E-02  0.10300809525E+01  0.10299878507E+01 0.  0.
     999903    2    3    3    0    0 -0.10002290433E+00 -0.24374593648E-01  0.82316829696E-01  0.14032476417E+00  0.48127713246E-01 0.  0.
         14    1    1    2    0    0  0.32132080650E-02 -0.13340562331E-01 -0.18710447602E-02  0.13849047544E-01  0.00000000000E+00 0.  1.
     999901    1    3    3    0    0  0.96809696262E-01  0.37715155979E-01 -0.80445784936E-01  0.88975618829E+00  0.88000000000E+00 0. -1.
        -11    1    4    4    0    0 -0.79813323516E-01 -0.25561938058E-01  0.38856332016E-01  0.92377783837E-01  0.51100000000E-03 0. -1.
         11    1    4    4    0    0 -0.20209580812E-01  0.11873444104E-02  0.43460497680E-01  0.47946980332E-01  0.51100000000E-03 0.  1.
</event>
<event>
 8    1  0.2077555E+004  0.1043930E+01  0.7957747E-01            NaN
         13   -1    0    0    0    0  0.00000000000E+00  0.00000000000E+00  0.74505805969E-08  0.10566000000E+00  0.10566000000E+00 0. -1.
     999900   -1    0    0    0    0 -0.00000000000E+00 -0.00000000000E+00 -0.74505805969E-08  0.93827000000E+00  0.93827000000E+00 0.  1.
     999902    2    1    2    0    0 -0.92840289719E-02 -0.10626867771E-01  0.29397335217E-02  0.10295159254E+01  0.10294150160E+01 0.  0.
     999903    2    3    3    0    0  0.53330970545E-01  0.29095906382E-01 -0.11593186439E+00  0.13843288006E+00  0.45085484508E-01 0.  0.
         14    1    1    2    0    0  0.92840289719E-02  0.10626867771E-01 -0.29397335217E-02  0.14414074571E-01  0.00000000000E+00 0.  1.
     999901    1    3    3    0    0 -0.62614999517E-01 -0.39722774153E-01  0.11887159791E+00  0.89108304537E+00  0.88000000000E+00 0. -1.
        -11    1    4    4    0    0  0.28376894508E-01  0.13951594703E-01 -0.18319213713E-01  0.36547911688E-01  0.51100000000E-03 0.  1.
         11    1    4    4    0    0  0.24954076037E-01  0.15144311679E-01 -0.97612650678E-01  0.10188496837E+00  0.51100000000E-03 0. -1.
</event>
<event>
 8    1  0.2077555E+004  0.1043930E+01  0.7957747E-01            NaN
         13   -1    0    0    0    0  0.00000000000E+00  0.00000000000E+00  0.74505805969E-08  0.10566000000E+00  0.10566000000E+00 0. -1.
     999900   -1    0    0    0    0 -0.00000000000E+00 -0.00000000000E+00 -0.74505805969E-08  0.93827000000E+00  0.93827000000E+00 0.  1.
     999902    2    1    2    0    0  0.13805469383E-01  0.21767659202E-02  0.34475385677E-02  0.10295350420E+01  0.10294344019E+01 0.  0.
     999903    2    3    3    0    0  0.28072338803E-01 -0.12903844701E+00  0.88372225843E-02  0.13967548880E+00  0.44633716581E-01 0.  0.
         14    1    1    2    0    0 -0.13805469383E-01 -0.21767659202E-02 -0.34475385677E-02  0.14394958039E-01  0.00000000000E+00 0.  1.
     999901    1    3    3    0    0 -0.14266869420E-01  0.13121521293E+00 -0.53896840166E-02  0.88985955317E+00  0.88000000000E+00 0.  1.
        -11    1    4    4    0    0  0.35991668060E-01 -0.64525794522E-01  0.10656058523E-01  0.74651128810E-01  0.51100000000E-03 0.  1.
         11    1    4    4    0    0 -0.79193292565E-02 -0.64512652484E-01 -0.18188359384E-02  0.65024359986E-01  0.51100000000E-03 0. -1.
</event>
<event>
 8    1  0.2077555E+004  0.1043930E+01  0.7957747E-01            NaN
         13   -1    0    0    0    0  0.00000000000E+00  0.00000000000E+00  0.74505805969E-08  0.10566000000E+00  0.10566000000E+00 0. -1.
     999900   -1    0    0    0    0 -0.00000000000E+00 -0.00000000000E+00 -0.74505805969E-08  0.93827000000E+00  0.93827000000E+00 0. -1.
     999902    2    1    2    0    0 -0.27827957034E-02 -0.13961434182E-01  0.13459248654E-02  0.10296304507E+01  0.10295311496E+01 0.  0.
     999903    2    3    3    0    0  0.64116963336E-01  0.10248636833E+00 -0.49322410575E-01  0.13800107216E+00  0.44689540730E-01 0.  0.
         14    1    1    2    0    0  0.27827957034E-02  0.13961434182E-01 -0.13459248654E-02  0.14299549296E-01  0.00000000000E+00 0.  1.
     999901    1    3    3    0    0 -0.66899759039E-01 -0.11644780251E+00  0.50668335441E-01  0.89162937855E+00  0.88000000000E+00 0. -1.
        -11    1    4    4    0    0  0.62089186684E-01  0.91356247713E-01 -0.28149699348E-01  0.11398990216E+00  0.51100000000E-03 0.  1.
         11    1    4    4    0    0  0.20277766515E-02  0.11130120618E-01 -0.21172711227E-01  0.24011170001E-01  0.51100000000E-03 0. -1.
</event>
<event>
 8    1  0.2077555E+004  0.1043930E+01  0.7957747E-01            NaN
         13   -1    0    0    0    0  0.00000000000E+00  0.00000000000E+00  0.74505805969E-08  0.10566000000E+00  0.10566000000E+00 0.  1.
     999900   -1    0    0    0    0 -0.00000000000E+00 -0.00000000000E+00 -0.74505805969E-08  0.93827000000E+00  0.93827000000E+00 0. -1.
     999902    2    1    2    0    0  0.71102551523E-02  0.87684834555E-02  0.93525692586E-02  0.10292701029E+01  0.10291656972E+01 0.  0.
     999903    2    3    3    0    0  0.12604036532E+00  0.28527612556E-01 -0.37236536723E-01  0.13982907673E+00  0.38283320959E-01 0.  0.
         14    1    1    2    0    0 -0.71102551523E-02 -0.87684834555E-02 -0.93525692586E-02  0.14659897073E-01  0.00000000000E+00 0. -1.
     999901    1    3    3    0    0 -0.11893011017E+00 -0.19759129100E-01  0.46589105981E-01  0.88944102620E+00  0.88000000000E+00 0.  1.
        -11    1    4    4    0    0  0.47533384071E-01 -0.65706184377E-02 -0.20672189331E-01  0.52251279033E-01  0.51100000000E-03 0. -1.
         11    1    4    4    0    0  0.78506981250E-01  0.35098230993E-01 -0.16564347392E-01  0.87577797696E-01  0.51100000000E-03 0.  1.
</event>
<event>
 8    1  0.2077555E+004  0.1043930E+01  0.7957747E-01            NaN
         13   -1    0    0    0    0  0.00000000000E+00  0.00000000000E+00  0.74505805969E-08  0.10566000000E+00  0.10566000000E+00 0. -1.
     999900   -1    0    0    0    0 -0.00000000000E+00 -0.00000000000E+00 -0.74505805969E-08  0.93827000000E+00  0.93827000000E+00 0.  1.
     999902    2    1    2    0    0 -0.73279722138E-02  0.12406027818E-01  0.20234112064E-02  0.10293799864E+01  0.10292771510E+01 0.  0.
     999903    2    3    3    0    0 -0.22004540872E-01  0.12075111477E+00 -0.53214683889E-01  0.14089514877E+00  0.44210958258E-01 0.  0.
         14    1    1    2    0    0  0.73279722138E-02 -0.12406027818E-01 -0.20234112064E-02  0.14550013604E-01  0.00000000000E+00 0.  1.
     999901    1    3    3    0    0  0.14676568659E-01 -0.10834508695E+00  0.55238095095E-01  0.88848483762E+00  0.88000000000E+00 0. -1.
        -11    1    4    4    0    0 -0.70037476301E-02  0.28657898802E-02  0.44634310563E-02  0.88004869352E-02  0.51100000000E-03 0.  1.
         11    1    4    4    0    0 -0.15000793242E-01  0.11788532489E+00 -0.57678114945E-01  0.13209466184E+00  0.51100000000E-03 0. -1.
</event>
<event>
 8    1  0.2077555E+004  0.1043930E+01  0.7957747E-01            NaN
         13   -1    0    0    0    0  0.00000000000E+00  0.00000000000E+00  0.74505805969E-08  0.10566000000E+00  0.10566000000E+00 0.  1.
     999900   -1    0    0    0    0 -0.00000000000E+00 -0.00000000000E+00 -0.74505805969E-08  0.93827000000E+00  0.93827000000E+00 0. -1.
     999902    2    1    2    0    0  0.62288361526E-02 -0.95992448247E-02 -0.81907162159E-02  0.10298576252E+01  0.10297614755E+01 0.  0.
     999903    2    3    3    0    0  0.28442142313E-01  0.12809490996E+00  0.86784576743E-02  0.13871359627E+00  0.44146174743E-01 0.  0.
         14    1    1    2    0    0 -0.62288361526E-02  0.95992448247E-02  0.81907162159E-02  0.14072374823E-01  0.00000000000E+00 0.  1.
     999901    1    3    3    0    0 -0.22213306161E-01 -0.13769415479E+00 -0.16869173890E-01  0.89114402891E+00  0.88000000000E+00 0. -1.
        -11    1    4    4    0    0  0.33559582087E-01  0.51093981246E-01  0.69068653879E-02  0.61520780065E-01  0.51100000000E-03 0. -1.
         11    1    4    4    0    0 -0.51174397735E-02  0.77000928717E-01  0.17715922864E-02  0.77192816203E-01  0.51100000000E-03 0.  1.
</event>
<event>
 8    1  0.2077555E+004  0.1043930E+01  0.7957747E-01            NaN
         13   -1    0    0    0    0  0.00000000000E+00  0.00000000000E+00  0.74505805969E-08  0.10566000000E+00  0.10566000000E+00 0. -1.
     999900   -1    0    0    0    0 -0.00000000000E+00 -0.00000000000E+00 -0.74505805969E-08  0.93827000000E+00  0.93827000000E+00 0. -1.
     999902    2    1    2    0    0 -0.39266062314E-02  0.20368988256E-02 -0.12782444883E-01  0.10304037998E+01  0.10303150162E+01 0.  0.
     999903    2    3    3    0    0 -0.10219150590E+00  0.47093525338E-01 -0.66271281983E-01  0.14217683235E+00  0.56226904892E-01 0.  0.
         14    1    1    2    0    0  0.39266062314E-02 -0.20368988256E-02  0.12782444883E-01  0.13526200150E-01  0.00000000000E+00 0. -1.
     999901    1    3    3    0    0  0.98264899673E-01 -0.45056626512E-01  0.53488837100E-01  0.88822696750E+00  0.88000000000E+00 0.  1.
        -11    1    4    4    0    0 -0.24577461944E-01  0.26479867992E-01  0.28171487099E-02  0.36241309198E-01  0.51100000000E-03 0. -1.
         11    1    4    4    0    0 -0.77614043960E-01  0.20613657345E-01 -0.69088430693E-01  0.10593552315E+00  0.51100000000E-03 0.  1.
</event>
<event>
 8    1  0.2077555E+004  0.1043930E+01  0.7957747E-01            NaN
         13   -1    0    0    0    0  0.00000000000E+00  0.00000000000E+00  0.74505805969E-08  0.10566000000E+00  0.10566000000E+00 0.  1.
     999900   -1    0    0    0    0 -0.00000000000E+00 -0.00000000000E+00 -0.74505805969E-08  0.93827000000E+00  0.93827000000E+00 0. -1.
     999902    2    1    2    0    0 -0.14144438613E-02  0.59813895721E-02 -0.12188522045E-01  0.10302794417E+01  0.10301890070E+01 0.  0.
     999903    2    3    3    0    0  0.58660754272E-01 -0.55638629657E-01 -0.10633295148E+00  0.14108360848E+00  0.45399854726E-01 0.  0.
         14    1    1    2    0    0  0.14144438613E-02 -0.59813895721E-02  0.12188522045E-01  0.13650558314E-01  0.00000000000E+00 0.  1.
     999901    1    3    3    0    0 -0.60075198133E-01  0.61620019229E-01  0.94144429433E-01  0.88919583321E+00  0.88000000000E+00 0.  1.
        -11    1    4    4    0    0  0.52140392667E-01 -0.28325059487E-01 -0.47931868642E-01  0.76280106810E-01  0.51100000000E-03 0. -1.
         11    1    4    4    0    0  0.65203616045E-02 -0.27313570170E-01 -0.58401082837E-01  0.64803501668E-01  0.51100000000E-03 0.  1.
</event>
<event>
 8    1  0.2077555E+004  0.1043930E+01  0.7957747E-01            NaN
         13   -1    0    0    0    0  0.00000000000E+00  0.00000000000E+00  0.74505805969E-08  0.10566000000E+00  0.10566000000E+00 0. -1.
     999900   -1    0    0    0    0 -0.00000000000E+00 -0.00000000000E+00 -0.74505805969E-08  0.93827000000E+00  0.93827000000E+00 0. -1.
     999902    2    1    2    0    0 -0.51786490441E-02  0.64610693520E-02  0.10996291982E-01  0.10301647444E+01  0.10300727734E+01 0.  0.
     999903    2    3    3    0    0 -0.15887464458E-01  0.52731873888E-01  0.12155948908E+00  0.14197563923E+00  0.48449052597E-01 0.  0.
         14    1    1    2    0    0  0.51786490441E-02 -0.64610693520E-02 -0.10996291982E-01  0.13765255553E-01  0.00000000000E+00 0.  1.
     999901    1    3    3    0    0  0.10708815414E-01 -0.46270804536E-01 -0.11056319710E+00  0.88818910522E+00  0.88000000000E+00 0. -1.
        -11    1    4    4    0    0 -0.21076973566E-01  0.44221461214E-01  0.51015959696E-01  0.70729525032E-01  0.51100000000E-03 0. -1.
         11    1    4    4    0    0  0.51895091077E-02  0.85104126738E-02  0.70543529385E-01  0.71246114194E-01  0.51100000000E-03 0.  1.
</event>
<event>
 8    1  0.2077555E+004  0.1043930E+01  0.7957747E-01            NaN
         13   -1    0    0    0    0  0.00000000000E+00  0.00000000000E+00  0.74505805969E-08  0.10566000000E+00  0.10566000000E+00 0.  1.
     999900   -1    0    0    0    0 -0.00000000000E+00 -0.00000000000E+00 -0.74505805969E-08  0.93827000000E+00  0.93827000000E+00 0.  1.
     999902    2    1    2    0    0 -0.11268483597E-01  0.45661025033E-03  0.76972202794E-02  0.10302759011E+01  0.10301854193E+01 0.  0.
     999903    2    3    3    0    0  0.10255449795E+00  0.20493172351E-01  0.81826341362E-01  0.13962879845E+00  0.43165449745E-01 0.  0.
         14    1    1    2    0    0  0.11268483597E-01 -0.45661025033E-03 -0.76972202794E-02  0.13654098854E-01  0.00000000000E+00 0. -1.
     999901    1    3    3    0    0 -0.11382298155E+00 -0.20036562100E-01 -0.74129121083E-01  0.89064710270E+00  0.88000000000E+00 0.  1.
        -11    1    4    4    0    0  0.91066092041E-01  0.84475094064E-02  0.82202191948E-01  0.12297095192E+00  0.51100000000E-03 0.  1.
         11    1    4    4    0    0  0.11488405913E-01  0.12045662944E-01 -0.37585058576E-03  0.16657846525E-01  0.51100000000E-03 0. -1.
</event>
<event>
 8    1  0.2077555E+004  0.1043930E+01  0.7957747E-01            NaN
         13   -1    0    0    0    0  0.00000000000E+00  0.00000000000E+00  0.74505805969E-08  0.10566000000E+00  0.10566000000E+00 0. -1.
     999900   -1    0    0    0    0 -0.00000000000E+00 -0.00000000000E+00 -0.74505805969E-08  0.93827000000E+00  0.93827000000E+00 0. -1.
     999902    2    1    2    0    0 -0.79856561138E-02  0.70585454992E-02  0.84828398125E-02  0.10303082402E+01  0.10302181893E+01 0.  0.
     999903    2    3    3    0    0  0.11812124842E+00 -0.29861124702E-01 -0.48815041404E-01  0.13870908107E+00  0.44866299223E-01 0.  0.
         14    1    1    2    0    0  0.79856561138E-02 -0.70585454992E-02 -0.84828398125E-02  0.13621759777E-01  0.00000000000E+00 0.  1.
     999901    1    3    3    0    0 -0.12610690453E+00  0.36919670202E-01  0.57297881217E-01  0.89159915916E+00  0.88000000000E+00 0.  1.
        -11    1    4    4    0    0  0.99097854707E-01 -0.24141471168E-01 -0.57426251862E-01  0.11705225740E+00  0.51100000000E-03 0. -1.
         11    1    4    4    0    0  0.19023393713E-01 -0.57196535340E-02  0.86112104573E-02  0.21656823669E-01  0.51100000000E-03 0.  1.
</event>
<event>
 8    1  0.2077555E+004  0.1043930E+01  0.7957747E-01            NaN
         13   -1    0    0    0    0  0.00000000000E+00  0.00000000000E+00  0.74505805969E-08  0.10566000000E+00  0.10566000000E+00 0. -1.
     999900   -1    0    0    0    0 -0.00000000000E+00 -0.00000000000E+00 -0.74505805969E-08  0.93827000000E+00  0.93827000000E+00 0. -1.
     999902    2    1    2    0    0  0.10251964947E-01  0.66826819134E-02 -0.63556879353E-02  0.10301403012E+01  0.10300480010E+01 0.  0.
     999903    2    3    3    0    0  0.84527777133E-01  0.82045555210E-01 -0.65020966838E-01  0.14186215004E+00  0.44952477665E-01 0.  0.
         14    1    1    2    0    0 -0.10251964947E-01 -0.66826819134E-02  0.63556879353E-02  0.13789698763E-01  0.00000000000E+00 0. -1.
     999901    1    3    3    0    0 -0.74275812186E-01 -0.75362873297E-01  0.58665278903E-01  0.88827815120E+00  0.88000000000E+00 0.  1.
        -11    1    4    4    0    0  0.57338480282E-01  0.51509316398E-01 -0.17258716050E-01  0.78987564828E-01  0.51100000000E-03 0.  1.
         11    1    4    4    0    0  0.27189296852E-01  0.30536238812E-01 -0.47762250788E-01  0.62874585211E-01  0.51100000000E-03 0. -1.
</event>
<event>
 8    1  0.2077555E+004  0.1043930E+01  0.7957747E-01            NaN
         13   -1    0    0    0    0  0.00000000000E+00  0.00000000000E+00  0.74505805969E-08  0.10566000000E+00  0.10566000000E+00 0.  1.
     999900   -1    0    0    0    0 -0.00000000000E+00 -0.00000000000E+00 -0.74505805969E-08  0.93827000000E+00  0.93827000000E+00 0.  1.
     999902    2    1    2    0    0  0.12466301677E-01  0.52069720837E-02 -0.20432099003E-02  0.10302663276E+01  0.10301757180E+01 0.  0.
     999903    2    3    3    0    0  0.92842656728E-01  0.53361016298E-01 -0.80703718281E-01  0.14180324680E+00  0.46129314873E-01 0.  0.
         14    1    1    2    0    0 -0.12466301677E-01 -0.52069720837E-02  0.20432099003E-02  0.13663672364E-01  0.00000000000E+00 0.  1.
     999901    1    3    3    0    0 -0.80376355051E-01 -0.48154044214E-01  0.78660508380E-01  0.88846308083E+00  0.88000000000E+00 0. -1.
        -11    1    4    4    0    0  0.27867487211E-01  0.41176666720E-01 -0.42747194711E-01  0.65572086304E-01  0.51100000000E-03 0. -1.
         11    1    4    4    0    0  0.64975169517E-01  0.12184349578E-01 -0.37956523570E-01  0.76231160498E-01  0.51100000000E-03 0.  1.
</event>
<event>
 8    1  0.2077555E+004  0.1043930E+01  0.7957747E-01            NaN
         13   -1    0    0    0    0  0.00000000000E+00  0.00000000000E+00  0.74505805969E-08  0.10566000000E+00  0.10566000000E+00 0. -1.
     999900   -1    0    0    0    0 -0.00000000000E+00 -0.00000000000E+00 -0.74505805969E-08  0.93827000000E+00  0.93827000000E+00 0. -1.
     999902    2    1    2    0    0  0.10444874754E-01 -0.14488058165E-02  0.79054588453E-02  0.10307508222E+01  0.10306665643E+01 0.  0.
     999903    2    3    3    0    0  0.10975392567E+00  0.47606492095E-01  0.63666533816E-01  0.14205626992E+00  0.42594060681E-01 0.  0.
         14    1    1    2    0    0 -0.10444874754E-01  0.14488058165E-02 -0.79054588453E-02  0.13179177762E-01  0.00000000000E+00 0.  1.
     999901    1    3    3    0    0 -0.99309050912E-01 -0.49055297912E-01 -0.55761074971E-01  0.88869455232E+00  0.88000000000E+00 0. -1.
        -11    1    4    4    0    0  0.16619968831E-01 -0.44880594262E-02  0.20922383278E-01  0.27099322582E-01  0.51100000000E-03 0. -1.
         11    1    4    4    0    0  0.93133956835E-01  0.52094551522E-01  0.42744150539E-01  0.11495694733E+00  0.51100000000E-03 0.  1.
</event>
<event>
 8    1  0.2077555E+004  0.1043930E+01  0.7957747E-01            NaN
         13   -1    0    0    0    0  0.00000000000E+00  0.00000000000E+00  0.74505805969E-08  0.10566000000E+00  0.10566000000E+00 0.  1.
     999900   -1    0    0    0    0 -0.00000000000E+00 -0.00000000000E+00 -0.74505805969E-08  0.93827000000E+00  0.93827000000E+00 0.  1.
     999902    2    1    2    0    0 -0.11107880277E-01 -0.73475566811E-02 -0.53199636308E-02  0.10295886749E+01  0.10294887886E+01 0.  0.
     999903    2    3    3    0    0 -0.39531973399E-01 -0.12598189741E+00 -0.19104066469E-01  0.14106628497E+00  0.45831386656E-01 0.  0.
         14    1    1    2    0    0  0.11107880277E-01  0.73475566811E-02  0.53199636308E-02  0.14341325130E-01  0.00000000000E+00 0. -1.
     999901    1    3    3    0    0  0.28424093122E-01  0.11863434073E+00  0.13784102838E-01  0.88852238990E+00  0.88000000000E+00 0. -1.
        -11    1    4    4    0    0 -0.26476209258E-01 -0.26427619440E-01  0.51647940590E-02  0.37766982202E-01  0.51100000000E-03 0. -1.
         11    1    4    4    0    0 -0.13055764141E-01 -0.99554277970E-01 -0.24268860528E-01  0.10329930276E+00  0.51100000000E-03 0.  1.
</event>
<event>
 8    1  0.2077555E+004  0.1043930E+01  0.7957747E-01            NaN
         13   -1    0    0    0    0  0.00000000000E+00  0.00000000000E+00  0.74505805969E-08  0.10566000000E+00  0.10566000000E+00 0. -1.
     999900   -1    0    0    0    0 -0.00000000000E+00 -0.00000000000E+00 -0.74505805969E-08  0.93827000000E+00  0.93827000000E+00 0. -1.
     999902    2    1    2    0    0  0.55000885841E-02 -0.14217822209E-01 -0.71153899495E-02  0.10271066170E+01  0.10269688293E+01 0.  0.
     999903    2    3    3    0    0 -0.44216831196E-01  0.17227236383E-01  0.11904232438E+00  0.13616535475E+00  0.46021983945E-01 0.  0.
         14    1    1    2    0    0 -0.55000885841E-02  0.14217822209E-01  0.71153899495E-02  0.16823383040E-01  0.00000000000E+00 0. -1.
     999901    1    3    3    0    0  0.49716919780E-01 -0.31445058591E-01 -0.12615771433E+00  0.89094126221E+00  0.88000000000E+00 0. -1.
        -11    1    4    4    0    0 -0.21948436966E-01  0.23338260192E-01  0.29029395860E-01  0.43236272030E-01  0.51100000000E-03 0.  1.
         11    1    4    4    0    0 -0.22268394230E-01 -0.61110238097E-02  0.90012928519E-01  0.92929082720E-01  0.51100000000E-03 0. -1.
</event>
<event>
 8    1  0.2077555E+004  0.1043930E+01  0.7957747E-01            NaN
         13   -1    0    0    0    0  0.00000000000E+00  0.00000000000E+00  0.74505805969E-08  0.10566000000E+00  0.10566000000E+00 0.  1.
     999900   -1    0    0    0    0 -0.00000000000E+00 -0.00000000000E+00 -0.74505805969E-08  0.93827000000E+00  0.93827000000E+00 0. -1.
     999902    2    1    2    0    0 -0.20332283884E-03 -0.13732614941E-01  0.21265068001E-02  0.10300322274E+01  0.10299384648E+01 0.  0.
     999903    2    3    3    0    0  0.65582164546E-01  0.98573352319E-01  0.57758829330E-01  0.13872121769E+00  0.43471459364E-01 0.  0.
         14    1    1    2    0    0  0.20332283884E-03  0.13732614941E-01 -0.21265068001E-02  0.13897772644E-01  0.00000000000E+00 0.  1.
     999901    1    3    3    0    0 -0.65785487385E-01 -0.11230596726E+00 -0.55632322530E-01  0.89131100966E+00  0.88000000000E+00 0. -1.
        -11    1    4    4    0    0  0.59851859445E-01  0.91359833017E-01  0.64905368973E-01  0.12705051047E+00  0.51100000000E-03 0. -1.
         11    1    4    4    0    0  0.57303051016E-02  0.72135193015E-02 -0.71465396433E-02  0.11670707226E-01  0.51100000000E-03 0.  1.
</event>
<event>
 8    1  0.2077555E+004  0.1043930E+01  0.7957747E-01            NaN
         13   -1    0    0    0    0  0.00000000000E+00  0.00000000000E+00  0.74505805969E-08  0.10566000000E+00  0.10566000000E+00 0. -1.
     999900   -1    0    0    0    0 -0.00000000000E+00 -0.00000000000E+00 -0.74505805969E-08  0.93827000000E+00  0.93827000000E+00 0.  1.
     999902    2    1    2    0    0  0.78995406145E-02  0.11428661311E-01  0.19522568812E-02  0.10299004473E+01  0.10298048859E+01 0.  0.
     999903    2    3    3    0    0 -0.62609781941E-02  0.80711289243E-01 -0.10577581191E+00  0.14051530037E+00  0.44749471438E-01 0.  0.
         14    1    1    2    0    0 -0.78995406145E-02 -0.11428661311E-01 -0.19522568812E-02  0.14029552673E-01  0.00000000000E+00 0. -1.
     999901    1    3    3    0    0  0.14160518809E-01 -0.69282627933E-01  0.10772806879E+00  0.88938514696E+00  0.88000000000E+00 0. -1.
        -11    1    4    4    0    0  0.16696145469E-01  0.46988533021E-01 -0.44128560393E-01  0.66590348192E-01  0.51100000000E-03 0. -1.
         11    1    4    4    0    0 -0.22957123663E-01  0.33722756222E-01 -0.61647251513E-01  0.73924952176E-01  0.51100000000E-03 0.  1.
</event>
<event>
 8    1  0.2077555E+004  0.1043930E+01  0.7957747E-01            NaN
         13   -1    0    0    0    0  0.00000000000E+00  0.00000000000E+00  0.74505805969E-08  0.10566000000E+00  0.10566000000E+00 0.  1.
     999900   -1    0    0    0    0 -0.00000000000E+00 -0.00000000000E+00 -0.74505805969E-08  0.93827000000E+00  0.93827000000E+00 0. -1.
     999902    2    1    2    0    0 -0.11827523980E-01  0.64934492272E-02 -0.35279882961E-02  0.10299836059E+01  0.10298891817E+01 0.  0.
     999903    2    3    3    0    0  0.12982145929E+00 -0.15511454152E-01  0.23066491044E-02  0.13836558613E+00  0.45227185325E-01 0.  0.
         14    1    1    2    0    0  0.11827523980E-01 -0.64934492272E-02  0.35279882961E-02  0.13946394078E-01  0.00000000000E+00 0.  1.
     999901    1    3    3    0    0 -0.14164898327E+00  0.22004903379E-01 -0.58346374005E-02  0.89161801980E+00  0.88000000000E+00 0. -1.
        -11    1    4    4    0    0  0.12345439948E+00 -0.61160275781E-02 -0.68167585739E-02  0.12379468431E+00  0.51100000000E-03 0.  1.
         11    1    4    4    0    0  0.63670598044E-02 -0.93954265738E-02  0.91234076783E-02  0.14570901816E-01  0.51100000000E-03 0. -1.
</event>
<event>
 8    1  0.2077555E+004  0.1043930E+01  0.7957747E-01            NaN
         13   -1    0    0    0    0  0.00000000000E+00  0.00000000000E+00  0.74505805969E-08  0.10566000000E+00  0.10566000000E+00 0. -1.
     999900   -1    0    0    0    0 -0.00000000000E+00 -0.00000000000E+00 -0.74505805969E-08  0.93827000000E+00  0.93827000000E+00 0. -1.
     999902    2    1    2    0    0 -0.10525044037E-01  0.68079477477E-02 -0.54864241275E-02  0.10302469611E+01  0.10301560927E+01 0.  0.
     999903    2    3    3    0    0 -0.12560619359E+00  0.45362171699E-01 -0.16472325055E-01  0.14184908333E+00  0.44890783683E-01 0.  0.
         14    1    1    2    0    0  0.10525044037E-01 -0.68079477477E-02  0.54864241275E-02  0.13683038925E-01  0.00000000000E+00 0. -1.
     999901    1    3    3    0    0  0.11508114955E+00 -0.38554223952E-01  0.10985900928E-01  0.88839787775E+00  0.88000000000E+00 0.  1.
        -11    1    4    4    0    0 -0.89039775630E-01  0.93208924274E-02 -0.94277826443E-02  0.90022802037E-01  0.51100000000E-03 0. -1.
         11    1    4    4    0    0 -0.36566417956E-01  0.36041279272E-01 -0.70445424110E-02  0.51826281291E-01  0.51100000000E-03 0.  1.
</event>
<event>
 8    1  0.2077555E+004  0.1043930E+01  0.7957747E-01            NaN
         13   -1    0    0    0    0  0.00000000000E+00  0.00000000000E+00  0.74505805969E-08  0.10566000000E+00  0.10566000000E+00 0.  1.
     999900   -1    0    0    0    0 -0.00000000000E+00 -0.00000000000E+00 -0.74505805969E-08  0.93827000000E+00  0.93827000000E+00 0. -1.
     999902    2    1    2    0    0  0.12505001706E-01  0.50432141565E-02  0.13301591041E-03  0.10304456843E+01  0.10303574533E+01 0.  0.
     999903    2    3    3    0    0  0.10496260101E+00 -0.65540894262E-01 -0.51460686439E-01  0.14129303478E+00  0.44752240118E-01 0.  0.
         14    1    1    2    0    0 -0.12505001706E-01 -0.50432141565E-02 -0.13301591041E-03  0.13484315702E-01  0.00000000000E+00 0. -1.
     999901    1    3    3    0    0 -0.92457599306E-01  0.70584108418E-01  0.51593702349E-01  0.88915264952E+00  0.88000000000E+00 0. -1.
        -11    1    4    4    0    0  0.86236689131E-01 -0.50788266014E-01 -0.59130962239E-01  0.11624519918E+00  0.51100000000E-03 0. -1.
         11    1    4    4    0    0  0.18725911881E-01 -0.14752628248E-01  0.76702758004E-02  0.25047835592E-01  0.51100000000E-03 0.  1.
</event>
<event>
 8    1  0.2077555E+004  0.1043930E+01  0.7957747E-01            NaN
         13   -1    0    0    0    0  0.00000000000E+00  0.00000000000E+00  0.74505805969E-08  0.10566000000E+00  0.10566000000E+00 0. -1.
     999900   -1    0    0    0    0 -0.00000000000E+00 -0.00000000000E+00 -0.74505805969E-08  0.93827000000E+00  0.93827000000E+00 0. -1.
     999902    2    1    2    0    0 -0.56825192826E-02 -0.11588171061E-01 -0.54830442577E-02  0.10299071434E+01  0.10298116738E+01 0.  0.
     999903    2    3    3    0    0  0.28777933012E-01 -0.57668490443E-01  0.11566744294E+00  0.13974515858E+00  0.44675807446E-01 0.  0.
         14    1    1    2    0    0  0.56825192826E-02  0.11588171061E-01  0.54830442577E-02  0.14022856637E-01  0.00000000000E+00 0. -1.
     999901    1    3    3    0    0 -0.34460452295E-01  0.46080319382E-01 -0.12115048720E+00  0.89016198478E+00  0.88000000000E+00 0. -1.
        -11    1    4    4    0    0 -0.48455117665E-02 -0.73287624266E-02  0.48624184247E-01  0.49414189842E-01  0.51100000000E-03 0.  1.
         11    1    4    4    0    0  0.33623444778E-01 -0.50339728016E-01  0.67043258694E-01  0.90330968737E-01  0.51100000000E-03 0. -1.
</event>
<event>
 8    1  0.2077555E+004  0.1043930E+01  0.7957747E-01            NaN
         13   -1    0    0    0    0  0.00000000000E+00  0.00000000000E+00  0.74505805969E-08  0.10566000000E+00  0.10566000000E+00 0. -1.
     999900   -1    0    0    0    0 -0.00000000000E+00 -0.00000000000E+00 -0.74505805969E-08  0.93827000000E+00  0.93827000000E+00 0.  1.
     999902    2    1    2    0    0 -0.96335304101E-02  0.21800412542E-02 -0.99692230010E-02  0.10298963656E+01  0.10298007482E+01 0.  0.
     999903    2    3    3    0    0  0.19503903342E-01  0.11448027180E+00 -0.65019505535E-01  0.14057591408E+00  0.45253913022E-01 0.  0.
         14    1    1    2    0    0  0.96335304101E-02 -0.21800412542E-02  0.99692230010E-02  0.14033634429E-01  0.00000000000E+00 0. -1.
     999901    1    3    3    0    0 -0.29137433752E-01 -0.11230023055E+00  0.55050282534E-01  0.88932045149E+00  0.88000000000E+00 0. -1.
        -11    1    4    4    0    0  0.10341481909E-02  0.10273375266E+00 -0.53400522639E-01  0.11578933603E+00  0.51100000000E-03 0. -1.
         11    1    4    4    0    0  0.18469755151E-01  0.11746519134E-01 -0.11618982896E-01  0.24786578054E-01  0.51100000000E-03 0.  1.
</event>
<event>
 8    1  0.2077555E+004  0.1043930E+01  0.7957747E-01            NaN
         13   -1    0    0    0    0  0.00000000000E+00  0.00000000000E+00  0.74505805969E-08  0.10566000000E+00  0.10566000000E+00 0. -1.
     999900   -1    0    0    0    0 -0.00000000000E+00 -0.00000000000E+00 -0.74505805969E-08  0.93827000000E+00  0.93827000000E+00 0. -1.
     999902    2    1    2    0    0 -0.27998753376E-02  0.14500334170E-01 -0.39509490332E-02  0.10286424563E+01  0.10285288494E+01 0.  0.
     999903    2    3    3    0    0  0.56006662970E-01  0.10074048685E+00  0.64865366276E-01  0.13980543071E+00  0.45306188583E-01 0.  0.
         14    1    1    2    0    0  0.27998753376E-02 -0.14500334170E-01  0.39509490332E-02  0.15287543661E-01  0.00000000000E+00 0.  1.
     999901    1    3    3    0    0 -0.58806538308E-01 -0.86240152685E-01 -0.68816315309E-01  0.88883702563E+00  0.88000000000E+00 0. -1.
        -11    1    4    4    0    0  0.79852699785E-02 -0.31688806022E-02  0.89211766629E-02  0.12395759555E-01  0.51100000000E-03 0. -1.
         11    1    4    4    0    0  0.48021392992E-01  0.10390936746E+00  0.55944189613E-01  0.12740967115E+00  0.51100000000E-03 0.  1.
</event>
<event>
 8    1  0.2077555E+004  0.1043930E+01  0.7957747E-01            NaN
         13   -1    0    0    0    0  0.00000000000E+00  0.00000000000E+00  0.74505805969E-08  0.10566000000E+00  0.10566000000E+00 0. -1.
     999900   -1    0    0    0    0 -0.00000000000E+00 -0.00000000000E+00 -0.74505805969E-08  0.93827000000E+00  0.93827000000E+00 0.  1.
     999902    2    1    2    0    0 -0.69806771865E-02  0.10821808890E-01  0.10488816424E-01  0.10273210665E+01  0.10271867975E+01 0.  0.
     999903    2    3    3    0    0 -0.11920959400E+00 -0.36188397880E-01  0.40123902083E-01  0.13845463807E+00  0.45157854700E-01 0.  0.
         14    1    1    2    0    0  0.69806771865E-02 -0.10821808890E-01 -0.10488816424E-01  0.16608933488E-01  0.00000000000E+00 0.  1.
     999901    1    3    3    0    0  0.11222891682E+00  0.47010206771E-01 -0.29635085659E-01  0.88886642844E+00  0.88000000000E+00 0.  1.
        -11    1    4    4    0    0 -0.53259730542E-01 -0.69935483997E-03 -0.46560228210E-03  0.53268807957E-01  0.51100000000E-03 0.  1.
         11    1    4    4    0    0 -0.65949863460E-01 -0.35489043040E-01  0.40589504365E-01  0.85185830112E-01  0.51100000000E-03 0. -1.
</event>
<event>
 8    1  0.2077555E+004  0.1043930E+01  0.7957747E-01            NaN
         13   -1    0    0    0    0  0.00000000000E+00  0.00000000000E+00  0.74505805969E-08  0.10566000000E+00  0.10566000000E+00 0.  1.
     999900   -1    0    0    0    0 -0.00000000000E+00 -0.00000000000E+00 -0.74505805969E-08  0.93827000000E+00  0.93827000000E+00 0.  1.
     999902    2    1    2    0    0 -0.54571221873E-02 -0.12747181224E-01  0.39742021218E-02  0.10295055383E+01  0.10294044824E+01 0.  0.
     999903    2    3    3    0    0  0.12885379693E+00 -0.14092638132E-02  0.17556938035E-01  0.13913906206E+00  0.49458523132E-01 0.  0.
         14    1    1    2    0    0  0.54571221873E-02  0.12747181224E-01 -0.39742021218E-02  0.14424461661E-01  0.00000000000E+00 0. -1.
     999901    1    3    3    0    0 -0.13431091912E+00 -0.11337917410E-01 -0.13582735913E-01  0.89036647628E+00  0.88000000000E+00 0.  1.
        -11    1    4    4    0    0  0.77490647466E-01 -0.18672870493E-01  0.26947661147E-01  0.84142225425E-01  0.51100000000E-03 0.  1.
         11    1    4    4    0    0  0.51363149463E-01  0.17263606680E-01 -0.93907231122E-02  0.54996836636E-01  0.51100000000E-03 0. -1.
</event>
<event>
 8    1  0.2077555E+004  0.1043930E+01  0.7957747E-01            NaN
         13   -1    0    0    0    0  0.00000000000E+00  0.00000000000E+00  0.74505805969E-08  0.10566000000E+00  0.10566000000E+00 0. -1.
     999900   -1    0    0    0    0 -0.00000000000E+00 -0.00000000000E+00 -0.74505805969E-08  0.93827000000E+00  0.93827000000E+00 0.  1.
     999902    2    1    2    0    0 -0.43448318547E-02  0.73910293501E-02  0.13022227922E-01  0.10283388712E+01  0.10282206721E+01 0.  0.
     999903    2    3    3    0    0 -0.59881655187E-01  0.43357465046E-01  0.11070674703E+00  0.14046490008E+00  0.44818767418E-01 0.  0.
         14    1    1    2    0    0  0.43448318547E-02 -0.73910293501E-02 -0.13022227922E-01  0.15591128848E-01  0.00000000000E+00 0.  1.
     999901    1    3    3    0    0  0.55536823333E-01 -0.35966435696E-01 -0.97684519105E-01  0.88787397108E+00  0.88000000000E+00 0.  1.
        -11    1    4    4    0    0 -0.65743744271E-01  0.38716334651E-01  0.10852075589E+00  0.13265824535E+00  0.51100000000E-03 0. -1.
         11    1    4    4    0    0  0.58620890833E-02  0.46411303953E-02  0.21859911389E-02  0.78066547270E-02  0.51100000000E-03 0.  1.
</event>
<event>
 8    1  0.2077555E+004  0.1043930E+01  0.7957747E-01            NaN
         13   -1    0    0    0    0  0.00000000000E+00  0.00000000000E+00  0.74505805969E-08  0.10566000000E+00  0.10566000000E+00 0.  1.
     999900   -1    0    0    0    0 -0.00000000000E+00 -0.00000000000E+00 -0.74505805969E-08  0.93827000000E+00  0.93827000000E+00 0. -1.
     999902    2    1    2    0    0  0.13768568315E-01 -0.82336012939E-03 -0.70523820862E-03  0.10301188177E+01  0.10300262277E+01 0.  0.
     999903    2    3    3    0    0  0.64163505054E-01  0.29987714317E-01 -0.11351025696E+00  0.14095407245E+00  0.44353733939E-01 0.  0.
         14    1    1    2    0    0 -0.13768568315E-01  0.82336012939E-03  0.70523820862E-03  0.13811182291E-01  0.00000000000E+00 0.  1.
     999901    1    3    3    0    0 -0.50394936740E-01 -0.30811074446E-01  0.11280501875E+00  0.88916474526E+00  0.88000000000E+00 0.  1.
        -11    1    4    4    0    0  0.14972733012E-01  0.27144585697E-01 -0.25735268819E-01  0.40293627892E-01  0.51100000000E-03 0.  1.
         11    1    4    4    0    0  0.49190772042E-01  0.28431286197E-02 -0.87774988141E-01  0.10066044456E+00  0.51100000000E-03 0. -1.
</event>
<event>
 8    1  0.2077555E+004  0.1043930E+01  0.7957747E-01            NaN
         13   -1    0    0    0    0  0.00000000000E+00  0.00000000000E+00  0.74505805969E-08  0.10566000000E+00  0.10566000000E+00 0.  1.
     999900   -1    0    0    0    0 -0.00000000000E+00 -0.00000000000E+00 -0.74505805969E-08  0.93827000000E+00  0.93827000000E+00 0. -1.
     999902    2    1    2    0    0 -0.13872493328E-01 -0.29429299971E-02  0.71712884220E-03  0.10297306626E+01  0.10296327580E+01 0.  0.
     999903    2    3    3    0    0  0.11309733967E+00  0.13387806163E-01  0.63464871019E-01  0.13825698910E+00  0.46010472597E-01 0.  0.
         14    1    1    2    0    0  0.13872493328E-01  0.29429299971E-02 -0.71712884220E-03  0.14199337375E-01  0.00000000000E+00 0.  1.
     999901    1    3    3    0    0 -0.12696983300E+00 -0.16330736160E-01 -0.62747742177E-01  0.89147367352E+00  0.88000000000E+00 0.  1.
        -11    1    4    4    0    0  0.55910528088E-01 -0.80761904747E-02  0.50582185523E-01  0.75828956322E-01  0.51100000000E-03 0. -1.
         11    1    4    4    0    0  0.57186811579E-01  0.21463996638E-01  0.12882685496E-01  0.62428032781E-01  0.51100000000E-03 0.  1.
</event>
<event>
 8    1  0.2077555E+004  0.1043930E+01  0.7957747E-01            NaN
         13   -1    0    0    0    0  0.00000000000E+00  0.00000000000E+00  0.74505805969E-08  0.10566000000E+00  0.10566000000E+00 0.  1.
     999900   -1    0    0    0    0 -0.00000000000E+00 -0.00000000000E+00 -0.74505805969E-08  0.93827000000E+00  0.93827000000E+00 0.  1.
     999902    2    1    2    0    0 -0.11546395812E-01  0.49488040220E-02 -0.60487598406E-02  0.10299873527E+01  0.10298929796E+01 0.  0.
     999903    2    3    3    0    0  0.45419983926E-01  0.12081940932E+00 -0.32414037340E-01  0.14017484806E+00  0.44022875930E-01 0.  0.
         14    1    1    2    0    0  0.11546395812E-01 -0.49488040220E-02  0.60487598406E-02  0.13942647278E-01  0.00000000000E+00 0. -1.
     999901    1    3    3    0    0 -0.56966379738E-01 -0.11587060529E+00  0.26365277500E-01  0.88981250466E+00  0.88000000000E+00 0.  1.
        -11    1    4    4    0    0  0.69845321688E-03  0.16863531525E-01  0.96418075688E-02  0.19444590676E-01  0.51100000000E-03 0.  1.
         11    1    4    4    0    0  0.44721530709E-01  0.10395587779E+00 -0.42055844909E-01  0.12073025739E+00  0.51100000000E-03 0. -1.
</event>
<event>
 8    1  0.2077555E+004  0.1043930E+01  0.7957747E-01            NaN
         13   -1    0    0    0    0  0.00000000000E+00  0.00000000000E+00  0.74505805969E-08  0.10566000000E+00  0.10566000000E+00 0. -1.
     999900   -1    0    0    0    0 -0.00000000000E+00 -0.00000000000E+00 -0.74505805969E-08  0.93827000000E+00  0.93827000000E+00 0. -1.
     999902    2    1    2    0    0  0.81940993375E-02  0.97097822569E-02 -0.49774114460E-02  0.10302845700E+01  0.10301942037E+01 0.  0.
     999903    2    3    3    0    0 -0.78552914456E-01 -0.34019362426E-01 -0.10078759175E+00  0.13976962169E+00  0.45271747348E-01 0.  0.
         14    1    1    2    0    0 -0.81940993375E-02 -0.97097822569E-02  0.49774114460E-02  0.13645430009E-01  0.00000000000E+00 0. -1.
     999901    1    3    3    0    0  0.86747013793E-01  0.43729144682E-01  0.95810180301E-01  0.89051494830E+00  0.88000000000E+00 0.  1.
        -11    1    4    4    0    0 -0.42881624876E-01 -0.41679932673E-01 -0.55261372843E-01  0.81425616295E-01  0.51100000000E-03 0.  1.
         11    1    4    4    0    0 -0.35671289580E-01  0.76605702473E-02 -0.45526218905E-01  0.58344005396E-01  0.51100000000E-03 0. -1.
</event>
<event>
 8    1  0.2077555E+004  0.1043930E+01  0.7957747E-01            NaN
         13   -1    0    0    0    0  0.00000000000E+00  0.00000000000E+00  0.74505805969E-08  0.10566000000E+00  0.10566000000E+00 0.  1.
     999900   -1    0    0    0    0 -0.00000000000E+00 -0.00000000000E+00 -0.74505805969E-08  0.93827000000E+00  0.93827000000E+00 0.  1.
     999902    2    1    2    0    0 -0.11060292497E-01  0.91395244699E-02  0.25989964361E-02  0.10293486503E+01  0.10292453682E+01 0.  0.
     999903    2    3    3    0    0 -0.88753877257E-01 -0.94850343568E-01 -0.20950261451E-01  0.13951453465E+00  0.46384841489E-01 0.  0.
         14    1    1    2    0    0  0.11060292497E-01 -0.91395244699E-02 -0.25989964361E-02  0.14581349736E-01  0.00000000000E+00 0.  1.
     999901    1    3    3    0    0  0.77693584761E-01  0.10398986804E+00  0.23549257887E-01  0.88983411562E+00  0.88000000000E+00 0. -1.
        -11    1    4    4    0    0 -0.42944864023E-01 -0.58367388767E-01 -0.33158532977E-01  0.79691673640E-01  0.51100000000E-03 0.  1.
         11    1    4    4    0    0 -0.45809013234E-01 -0.36482954801E-01  0.12208271525E-01  0.59822861007E-01  0.51100000000E-03 0. -1.
</event>
<event>
 8    1  0.2077555E+004  0.1043930E+01  0.7957747E-01            NaN
         13   -1    0    0    0    0  0.00000000000E+00  0.00000000000E+00  0.74505805969E-08  0.10566000000E+00  0.10566000000E+00 0.  1.
     999900   -1    0    0    0    0 -0.00000000000E+00 -0.00000000000E+00 -0.74505805969E-08  0.93827000000E+00  0.93827000000E+00 0.  1.
     999902    2    1    2    0    0 -0.10250249728E-01  0.41927370835E-02 -0.89601627171E-02  0.10296846085E+01  0.10295860633E+01 0.  0.
     999903    2    3    3    0    0 -0.39462912426E-02 -0.12507030687E+00  0.38846284729E-01  0.13893541210E+00  0.46215365658E-01 0.  0.
         14    1    1    2    0    0  0.10250249728E-01 -0.41927370835E-02  0.89601627171E-02  0.14245391523E-01  0.00000000000E+00 0.  1.
     999901    1    3    3    0    0 -0.63039584851E-02  0.12926304396E+00 -0.47806447446E-01  0.89074919638E+00  0.88000000000E+00 0. -1.
        -11    1    4    4    0    0 -0.72502891425E-02 -0.77647672939E-01  0.71210284728E-03  0.77990358488E-01  0.51100000000E-03 0. -1.
         11    1    4    4    0    0  0.33039978999E-02 -0.47422633933E-01  0.38134181881E-01  0.60945053614E-01  0.51100000000E-03 0.  1.
</event>
<event>
 8    1  0.2519107E+004  0.1043930E+01  0.7957747E-01            NaN
         13   -1    0    0    0    0  0.00000000000E+00  0.00000000000E+00  0.74505805969E-08  0.10566000000E+00  0.10566000000E+00 0.  1.
     999900   -1    0    0    0    0 -0.00000000000E+00 -0.00000000000E+00 -0.74505805969E-08  0.93827000000E+00  0.93827000000E+00 0.  1.
     999902    2    1    2    0    0  0.28498716834E-02 -0.70414340504E-03  0.11636963034E-01  0.10319284795E+01  0.10318586871E+01 0.  0.
     999903    2    3    3    0    0  0.28029933381E-01 -0.45081245922E-01 -0.12165752679E+00  0.14042930181E+00  0.45845818610E-01 0.  0.
         14    1    1    2    0    0 -0.28498716834E-02  0.70414340504E-03 -0.11636963034E-01  0.12001520537E-01  0.00000000000E+00 0. -1.
     999901    1    3    3    0    0 -0.25180061698E-01  0.44377102517E-01  0.13329448982E+00  0.89149917765E+00  0.88000000000E+00 0. -1.
        -11    1    4    4    0    0 -0.61937642162E-02 -0.33026326938E-01 -0.52625173151E-01  0.62440138984E-01  0.51100000000E-03 0.  1.
         11    1    4    4    0    0  0.34223697597E-01 -0.12054918984E-01 -0.69032353638E-01  0.77989162828E-01  0.51100000000E-03 0. -1.
</event>
<event>
 8    1  0.2077555E+004  0.1043930E+01  0.7957747E-01            NaN
         13   -1    0    0    0    0  0.00000000000E+00  0.00000000000E+00  0.74505805969E-08  0.10566000000E+00  0.10566000000E+00 0.  1.
     999900   -1    0    0    0    0 -0.00000000000E+00 -0.00000000000E+00 -0.74505805969E-08  0.93827000000E+00  0.93827000000E+00 0.  1.
     999902    2    1    2    0    0 -0.36913346800E-02  0.12243109335E-01  0.55832244069E-02  0.10299767899E+01  0.10298822727E+01 0.  0.
     999903    2    3    3    0    0  0.32248769565E-02  0.21760575734E-01 -0.12960255479E+00  0.13957597505E+00  0.46911705512E-01 0.  0.
         14    1    1    2    0    0  0.36913346800E-02 -0.12243109335E-01 -0.55832244069E-02  0.13953210122E-01  0.00000000000E+00 0. -1.
     999901    1    3    3    0    0 -0.69162116365E-02 -0.95174663989E-02  0.13518577920E+00  0.89040081483E+00  0.88000000000E+00 0. -1.
        -11    1    4    4    0    0 -0.18140059914E-01  0.24182280373E-01 -0.72089271496E-01  0.78172684766E-01  0.51100000000E-03 0.  1.
         11    1    4    4    0    0  0.21364936870E-01 -0.24217046391E-02 -0.57513283299E-01  0.61403290283E-01  0.51100000000E-03 0. -1.
</event>
<event>
 8    1  0.2077555E+004  0.1043930E+01  0.7957747E-01            NaN
         13   -1    0    0    0    0  0.00000000000E+00  0.00000000000E+00  0.74505805969E-08  0.10566000000E+00  0.10566000000E+00 0. -1.
     999900   -1    0    0    0    0 -0.00000000000E+00 -0.00000000000E+00 -0.74505805969E-08  0.93827000000E+00  0.93827000000E+00 0. -1.
     999902    2    1    2    0    0  0.18009626135E-02 -0.52172892409E-03  0.15499503912E-01  0.10283174958E+01  0.10281989699E+01 0.  0.
     999903    2    3    3    0    0  0.19180972946E-01  0.29281765843E-01  0.12827253040E+00  0.14045034997E+00  0.45245189988E-01 0.  0.
         14    1    1    2    0    0 -0.18009626135E-02  0.52172892409E-03 -0.15499503912E-01  0.15612504249E-01  0.00000000000E+00 0.  1.
     999901    1    3    3    0    0 -0.17380010333E-01 -0.29803494767E-01 -0.11277302649E+00  0.88786714578E+00  0.88000000000E+00 0. -1.
        -11    1    4    4    0    0 -0.13961912497E-01  0.59073888992E-02  0.50612110680E-01  0.52836342726E-01  0.51100000000E-03 0. -1.
         11    1    4    4    0    0  0.33142885443E-01  0.23374376944E-01  0.77660419719E-01  0.87614007242E-01  0.51100000000E-03 0.  1.
</event>
<event>
 8    1  0.2077555E+004  0.1043930E+01  0.7957747E-01            NaN
         13   -1    0    0    0    0  0.00000000000E+00  0.00000000000E+00  0.74505805969E-08  0.10566000000E+00  0.10566000000E+00 0.  1.
     999900   -1    0    0    0    0 -0.00000000000E+00 -0.00000000000E+00 -0.74505805969E-08  0.93827000000E+00  0.93827000000E+00 0. -1.
     999902    2    1    2    0    0  0.12783649614E-01 -0.26458731773E-02 -0.63858434455E-02  0.10293972322E+01  0.10292946422E+01 0.  0.
     999903    2    3    3    0    0 -0.86294171046E-01 -0.15694284033E-01 -0.97869089269E-01  0.13902884789E+00  0.45361518983E-01 0.  0.
         14    1    1    2    0    0 -0.12783649614E-01  0.26458731773E-02  0.63858434455E-02  0.14532767762E-01  0.00000000000E+00 0. -1.
     999901    1    3    3    0    0  0.99077820660E-01  0.13048410856E-01  0.91483245823E-01  0.89036838434E+00  0.88000000000E+00 0.  1.
        -11    1    4    4    0    0 -0.37051434862E-01 -0.28532920210E-01 -0.36638575838E-01  0.59410291377E-01  0.51100000000E-03 0.  1.
         11    1    4    4    0    0 -0.49242736185E-01  0.12838636177E-01 -0.61230513431E-01  0.79618556517E-01  0.51100000000E-03 0. -1.
</event>
<event>
 8    1  0.2077555E+004  0.1043930E+01  0.7957747E-01            NaN
         13   -1    0    0    0    0  0.00000000000E+00  0.00000000000E+00  0.74505805969E-08  0.10566000000E+00  0.10566000000E+00 0. -1.
     999900   -1    0    0    0    0 -0.00000000000E+00 -0.00000000000E+00 -0.74505805969E-08  0.93827000000E+00  0.93827000000E+00 0.  1.
     999902    2    1    2    0    0 -0.95980901899E-02 -0.66299877850E-02  0.80706215421E-02  0.10297449725E+01  0.10296472665E+01 0.  0.
     999903    2    3    3    0    0  0.72493536711E-02  0.13183913619E+00 -0.17232814777E-03  0.13872001163E+00  0.42533527584E-01 0.  0.
         14    1    1    2    0    0  0.95980901899E-02  0.66299877850E-02 -0.80706215421E-02  0.14185027508E-01  0.00000000000E+00 0.  1.
     999901    1    3    3    0    0 -0.16847443861E-01 -0.13846912398E+00  0.82429496899E-02  0.89102496086E+00  0.88000000000E+00 0.  1.
        -11    1    4    4    0    0 -0.11395208029E-01  0.10857409886E-01  0.39640641488E-02  0.16239120698E-01  0.51100000000E-03 0. -1.
         11    1    4    4    0    0  0.18644561700E-01  0.12098172631E+00 -0.41363922966E-02  0.12248089093E+00  0.51100000000E-03 0.  1.
</event>
<event>
 8    1  0.2077555E+004  0.1043930E+01  0.7957747E-01            NaN
         13   -1    0    0    0    0  0.00000000000E+00  0.00000000000E+00  0.74505805969E-08  0.10566000000E+00  0.10566000000E+00 0.  1.
     999900   -1    0    0    0    0 -0.00000000000E+00 -0.00000000000E+00 -0.74505805969E-08  0.93827000000E+00  0.93827000000E+00 0.  1.
     999902    2    1    2    0    0 -0.13273147434E-01 -0.79490330776E-02  0.60050256291E-02  0.10273340998E+01  0.10272000432E+01 0.  0.
     999903    2    3    3    0    0  0.53549809309E-01  0.81466307492E-01 -0.83099059821E-01  0.13581856507E+00  0.45131890504E-01 0.  0.
         14    1    1    2    0    0  0.13273147434E-01  0.79490330776E-02 -0.60050256291E-02  0.16595900171E-01  0.00000000000E+00 0. -1.
     999901    1    3    3    0    0 -0.66822956743E-01 -0.89415340569E-01  0.89104085451E-01  0.89151553476E+00  0.88000000000E+00 0. -1.
        -11    1    4    4    0    0  0.43152019457E-01  0.28655282861E-01 -0.28400995065E-01  0.59077065438E-01  0.51100000000E-03 0. -1.
         11    1    4    4    0    0  0.10397789852E-01  0.52811024631E-01 -0.54698064757E-01  0.76741499630E-01  0.51100000000E-03 0.  1.
</event>
<event>
 8    1  0.2077555E+004  0.1043930E+01  0.7957747E-01            NaN
         13   -1    0    0    0    0  0.00000000000E+00  0.00000000000E+00  0.74505805969E-08  0.10566000000E+00  0.10566000000E+00 0. -1.
     999900   -1    0    0    0    0 -0.00000000000E+00 -0.00000000000E+00 -0.74505805969E-08  0.93827000000E+00  0.93827000000E+00 0.  1.
     999902    2    1    2    0    0 -0.12391977380E-01 -0.78567605333E-02 -0.66133287179E-04  0.10292570943E+01  0.10291525018E+01 0.  0.
     999903    2    3    3    0    0 -0.91838347740E-01  0.49695877784E-01 -0.81835703477E-01  0.14003817039E+00  0.44829057754E-01 0.  0.
         14    1    1    2    0    0  0.12391977380E-01  0.78567605333E-02  0.66133287179E-04  0.14672905747E-01  0.00000000000E+00 0. -1.
     999901    1    3    3    0    0  0.79446370360E-01 -0.57552638317E-01  0.81769570189E-01  0.88921892386E+00  0.88000000000E+00 0. -1.
        -11    1    4    4    0    0 -0.48230188274E-01  0.13299173860E-01 -0.14807747986E-01  0.52178056765E-01  0.51100000000E-03 0.  1.
         11    1    4    4    0    0 -0.43608159466E-01  0.36396703924E-01 -0.67027955491E-01  0.87860113628E-01  0.51100000000E-03 0. -1.
</event>
<event>
 8    1  0.2077555E+004  0.1043930E+01  0.7957747E-01            NaN
         13   -1    0    0    0    0  0.00000000000E+00  0.00000000000E+00  0.74505805969E-08  0.10566000000E+00  0.10566000000E+00 0. -1.
     999900   -1    0    0    0    0 -0.00000000000E+00 -0.00000000000E+00 -0.74505805969E-08  0.93827000000E+00  0.93827000000E+00 0.  1.
     999902    2    1    2    0    0  0.72513685351E-04  0.24930992764E-02  0.16059078453E-01  0.10276783908E+01  0.10275498820E+01 0.  0.
     999903    2    3    3    0    0  0.10031898255E+00  0.79764968477E-01  0.27716554449E-01  0.13854612105E+00  0.44726634257E-01 0.  0.
         14    1    1    2    0    0 -0.72513685351E-04 -0.24930992764E-02 -0.16059078453E-01  0.16251609244E-01  0.00000000000E+00 0.  1.
     999901    1    3    3    0    0 -0.10024646886E+00 -0.77271869201E-01 -0.11657475996E-01  0.88913226971E+00  0.88000000000E+00 0.  1.
        -11    1    4    4    0    0  0.34541567312E-01  0.50457002479E-01  0.26175552539E-01  0.66516536615E-01  0.51100000000E-03 0.  1.
         11    1    4    4    0    0  0.65777415234E-01  0.29307965998E-01  0.15410019098E-02  0.72029584434E-01  0.51100000000E-03 0. -1.
</event>
<event>
 8    1  0.2077555E+004  0.1043930E+01  0.7957747E-01            NaN
         13   -1    0    0    0    0  0.00000000000E+00  0.00000000000E+00  0.74505805969E-08  0.10566000000E+00  0.10566000000E+00 0. -1.
     999900   -1    0    0    0    0 -0.00000000000E+00 -0.00000000000E+00 -0.74505805969E-08  0.93827000000E+00  0.93827000000E+00 0.  1.
     999902    2    1    2    0    0  0.48721036682E-02  0.10021007786E-01 -0.85153915182E-02  0.10299060960E+01  0.10298106120E+01 0.  0.
     999903    2    3    3    0    0 -0.57443193956E-01  0.11499217267E+00 -0.37877852556E-01  0.14099423539E+00  0.43837454234E-01 0.  0.
         14    1    1    2    0    0 -0.48721036682E-02 -0.10021007786E-01  0.85153915182E-02  0.14023904018E-01  0.00000000000E+00 0. -1.
     999901    1    3    3    0    0  0.62315297625E-01 -0.10497116488E+00  0.29362461037E-01  0.88891186059E+00  0.88000000000E+00 0.  1.
        -11    1    4    4    0    0 -0.39136744841E-01  0.35944022010E-01 -0.25398963011E-01  0.58898437653E-01  0.51100000000E-03 0. -1.
         11    1    4    4    0    0 -0.18306449116E-01  0.79048150657E-01 -0.12478889545E-01  0.82095797741E-01  0.51100000000E-03 0.  1.
</event>
<event>
 8    1  0.2077555E+004  0.1043930E+01  0.7957747E-01            NaN
         13   -1    0    0    0    0  0.00000000000E+00  0.00000000000E+00  0.74505805969E-08  0.10566000000E+00  0.10566000000E+00 0.  1.
     999900   -1    0    0    0    0 -0.00000000000E+00 -0.00000000000E+00 -0.74505805969E-08  0.93827000000E+00  0.93827000000E+00 0.  1.
     999902    2    1    2    0    0  0.36755770388E-02  0.10185449070E-02 -0.16601495286E-01  0.10268960062E+01  0.10267547178E+01 0.  0.
     999903    2    3    3    0    0 -0.99256548591E-02  0.92379984231E-01 -0.92301261768E-01  0.13882936410E+00  0.46059627669E-01 0.  0.
         14    1    1    2    0    0 -0.36755770388E-02 -0.10185449070E-02  0.16601495286E-01  0.17033993836E-01  0.00000000000E+00 0.  1.
     999901    1    3    3    0    0  0.13601231898E-01 -0.91361439324E-01  0.75699766482E-01  0.88806664207E+00  0.88000000000E+00 0. -1.
        -11    1    4    4    0    0  0.88103877853E-03 -0.24670754020E-02 -0.17093689803E-01  0.17300810456E-01  0.51100000000E-03 0.  1.
         11    1    4    4    0    0 -0.10806693638E-01  0.94847059633E-01 -0.75207571965E-01  0.12152855364E+00  0.51100000000E-03 0. -1.
</event>
<event>
 8    1  0.2077555E+004  0.1043930E+01  0.7957747E-01            NaN
         13   -1    0    0    0    0  0.00000000000E+00  0.00000000000E+00  0.74505805969E-08  0.10566000000E+00  0.10566000000E+00 0. -1.
     999900   -1    0    0    0    0 -0.00000000000E+00 -0.00000000000E+00 -0.74505805969E-08  0.93827000000E+00  0.93827000000E+00 0.  1.
     999902    2    1    2    0    0 -0.78910408491E-02 -0.37679356245E-02 -0.45482384498E-03  0.10351737034E+01  0.10351366690E+01 0.  0.
     999903    2    3    3    0    0  0.97458913228E-01  0.90793631337E-01  0.29249107023E-01  0.14336496483E+00  0.44229849873E-01 0.  0.
         14    1    1    2    0    0  0.78910408491E-02  0.37679356245E-02  0.45482384498E-03  0.87562965506E-02  0.00000000000E+00 0. -1.
     999901    1    3    3    0    0 -0.10534995408E+00 -0.94561566962E-01 -0.29703930868E-01  0.89180873862E+00  0.88000000000E+00 0.  1.
        -11    1    4    4    0    0  0.49467317066E-01  0.70734461503E-01  0.64113855441E-02  0.86554875584E-01  0.51100000000E-03 0. -1.
         11    1    4    4    0    0  0.47991596163E-01  0.20059169835E-01  0.22837721479E-01  0.56810089245E-01  0.51100000000E-03 0.  1.
</event>
<event>
 7    1  0.2514828E+004  0.1043930E+01  0.7957747E-01            NaN
         13   -1    0    0    0    0  0.00000000000E+00  0.00000000000E+00  0.74505805969E-08  0.10566000000E+00  0.10566000000E+00 0. -1.
     999900   -1    0    0    0    0 -0.00000000000E+00 -0.00000000000E+00 -0.74505805969E-08  0.93827000000E+00  0.93827000000E+00 0. -1.
     999903    2    1    2    0    0 -0.37168122918E-01 -0.70270300284E-01 -0.80333856127E-01  0.12165343449E+00  0.45018276502E-01 0.  0.
         14    1    1    2    0    0 -0.23176833021E-01 -0.10963454679E-01  0.23297305580E-01  0.34642854598E-01  0.00000000000E+00 0. -1.
     999901    1    1    2    0    0  0.60344955939E-01  0.81233754963E-01  0.57036550547E-01  0.88763371091E+00  0.88000000000E+00 0.  1.
        -11    1    3    3    0    0 -0.66202185399E-02 -0.25370089132E-01 -0.19545181576E-02  0.26297337856E-01  0.51100000000E-03 0.  1.
         11    1    3    3    0    0 -0.30547904378E-01 -0.44900211152E-01 -0.78379337969E-01  0.95356096632E-01  0.51100000000E-03 0. -1.
</event>
<event>
 8    1  0.2077555E+004  0.1043930E+01  0.7957747E-01            NaN
         13   -1    0    0    0    0  0.00000000000E+00  0.00000000000E+00  0.74505805969E-08  0.10566000000E+00  0.10566000000E+00 0. -1.
     999900   -1    0    0    0    0 -0.00000000000E+00 -0.00000000000E+00 -0.74505805969E-08  0.93827000000E+00  0.93827000000E+00 0.  1.
     999902    2    1    2    0    0  0.11650730388E-01  0.54581542377E-02 -0.51460119020E-02  0.10300731459E+01  0.10299799384E+01 0.  0.
     999903    2    3    3    0    0  0.11467503382E+00 -0.31778537364E-01 -0.61999589557E-01  0.14146023381E+00  0.44797431012E-01 0.  0.
         14    1    1    2    0    0 -0.11650730388E-01 -0.54581542377E-02  0.51460119020E-02  0.13856854071E-01  0.00000000000E+00 0.  1.
     999901    1    3    3    0    0 -0.10302430343E+00  0.37236691601E-01  0.56853577655E-01  0.88861291212E+00  0.88000000000E+00 0. -1.
        -11    1    4    4    0    0  0.32642477688E-01 -0.28060370385E-01 -0.97825191973E-02  0.44146059151E-01  0.51100000000E-03 0.  1.
         11    1    4    4    0    0  0.82032556130E-01 -0.37181669786E-02 -0.52217070360E-01  0.97314174655E-01  0.51100000000E-03 0. -1.
</event>
<event>
 8    1  0.2077555E+004  0.1043930E+01  0.7957747E-01            NaN
         13   -1    0    0    0    0  0.00000000000E+00  0.00000000000E+00  0.74505805969E-08  0.10566000000E+00  0.10566000000E+00 0. -1.
     999900   -1    0    0    0    0 -0.00000000000E+00 -0.00000000000E+00 -0.74505805969E-08  0.93827000000E+00  0.93827000000E+00 0. -1.
     999902    2    1    2    0    0 -0.88879930501E-02  0.79835502762E-02 -0.97528906614E-03  0.10319431454E+01  0.10318735245E+01 0.  0.
     999903    2    3    3    0    0  0.12033971381E+00 -0.33200250191E-01 -0.45786188608E-01  0.14042538201E+00  0.45155392948E-01 0.  0.
         14    1    1    2    0    0  0.88879930501E-02 -0.79835502762E-02  0.97528906614E-03  0.11986854643E-01  0.00000000000E+00 0. -1.
     999901    1    3    3    0    0 -0.12922770686E+00  0.41183800467E-01  0.44810899542E-01  0.89151776335E+00  0.88000000000E+00 0.  1.
        -11    1    4    4    0    0  0.39489624066E-01 -0.20569309548E-01 -0.37424625368E-01  0.58166920230E-01  0.51100000000E-03 0. -1.
         11    1    4    4    0    0  0.80850089749E-01 -0.12630940643E-01 -0.83615632403E-02  0.82258461782E-01  0.51100000000E-03 0.  1.
</event>
<event>
 8    1  0.2077555E+004  0.1043930E+01  0.7957747E-01            NaN
         13   -1    0    0    0    0  0.00000000000E+00  0.00000000000E+00  0.74505805969E-08  0.10566000000E+00  0.10566000000E+00 0. -1.
     999900   -1    0    0    0    0 -0.00000000000E+00 -0.00000000000E+00 -0.74505805969E-08  0.93827000000E+00  0.93827000000E+00 0. -1.
     999902    2    1    2    0    0  0.12284062729E-01 -0.77197149533E-02 -0.29728722448E-02  0.10291202004E+01  0.10290136329E+01 0.  0.
     999903    2    3    3    0    0 -0.24435153646E-01  0.12152463562E+00 -0.41922268753E-01  0.13807056173E+00  0.44053258713E-01 0.  0.
         14    1    1    2    0    0 -0.12284062729E-01  0.77197149533E-02  0.29728722448E-02  0.14809799643E-01  0.00000000000E+00 0.  1.
     999901    1    3    3    0    0  0.36719216376E-01 -0.12924435057E+00  0.38949396509E-01  0.89104963863E+00  0.88000000000E+00 0. -1.
        -11    1    4    4    0    0 -0.27084343395E-01  0.53626875189E-01 -0.35576102985E-01  0.69823517702E-01  0.51100000000E-03 0.  1.
         11    1    4    4    0    0  0.26491897486E-02  0.67897760430E-01 -0.63461657684E-02  0.68247044029E-01  0.51100000000E-03 0. -1.
</event>
<event>
 8    1  0.2077555E+004  0.1043930E+01  0.7957747E-01            NaN
         13   -1    0    0    0    0  0.00000000000E+00  0.00000000000E+00  0.74505805969E-08  0.10566000000E+00  0.10566000000E+00 0.  1.
     999900   -1    0    0    0    0 -0.00000000000E+00 -0.00000000000E+00 -0.74505805969E-08  0.93827000000E+00  0.93827000000E+00 0. -1.
     999902    2    1    2    0    0  0.24804173521E-02  0.12055707447E-02 -0.12683560340E-01  0.10309500703E+01  0.10308683568E+01 0.  0.
     999903    2    3    3    0    0  0.49212448149E-01 -0.28876923734E-01 -0.12257297351E+00  0.14237563772E+00  0.44620024717E-01 0.  0.
         14    1    1    2    0    0 -0.24804173521E-02 -0.12055707447E-02  0.12683560340E-01  0.12979929659E-01  0.00000000000E+00 0.  1.
     999901    1    3    3    0    0 -0.46732030797E-01  0.30082494479E-01  0.10988941317E+00  0.88857443262E+00  0.88000000000E+00 0.  1.
        -11    1    4    4    0    0  0.50005832948E-01 -0.73689830120E-02 -0.92186404488E-01  0.10513552936E+00  0.51100000000E-03 0. -1.
         11    1    4    4    0    0 -0.79338479849E-03 -0.21507940722E-01 -0.30386569018E-01  0.37240108367E-01  0.51100000000E-03 0.  1.
</event>
<event>
 8    1  0.2077555E+004  0.1043930E+01  0.7957747E-01            NaN
         13   -1    0    0    0    0  0.00000000000E+00  0.00000000000E+00  0.74505805969E-08  0.10566000000E+00  0.10566000000E+00 0. -1.
     999900   -1    0    0    0    0 -0.00000000000E+00 -0.00000000000E+00 -0.74505805969E-08  0.93827000000E+00  0.93827000000E+00 0. -1.
     999902    2    1    2    0    0 -0.30532056953E-02  0.12989567998E-01 -0.35966825093E-02  0.10301101930E+01  0.10300174865E+01 0.  0.
     999903    2    3    3    0    0  0.54183004301E-01  0.63992044920E-01 -0.10435830148E+00  0.14104881136E+00  0.44422205366E-01 0.  0.
         14    1    1    2    0    0  0.30532056953E-02 -0.12989567998E-01  0.35966825093E-02  0.13819807049E-01  0.00000000000E+00 0.  1.
     999901    1    3    3    0    0 -0.57236209996E-01 -0.51002476922E-01  0.10076161897E+00  0.88906138160E+00  0.88000000000E+00 0.  1.
        -11    1    4    4    0    0  0.61309213638E-02  0.40255298010E-01 -0.52787294311E-01  0.66669609091E-01  0.51100000000E-03 0.  1.
         11    1    4    4    0    0  0.48052082937E-01  0.23736746911E-01 -0.51571007166E-01  0.74379202265E-01  0.51100000000E-03 0. -1.
</event>
<event>
 8    1  0.2077555E+004  0.1043930E+01  0.7957747E-01            NaN
         13   -1    0    0    0    0  0.00000000000E+00  0.00000000000E+00  0.74505805969E-08  0.10566000000E+00  0.10566000000E+00 0.  1.
     999900   -1    0    0    0    0 -0.00000000000E+00 -0.00000000000E+00 -0.74505805969E-08  0.93827000000E+00  0.93827000000E+00 0.  1.
     999902    2    1    2    0    0 -0.92424353180E-02  0.96963209166E-02 -0.33790842233E-02  0.10301148105E+01  0.10300221665E+01 0.  0.
     999903    2    3    3    0    0 -0.33471693903E-01 -0.10293336024E+00 -0.75503553358E-01  0.13967983755E+00  0.45760676409E-01 0.  0.
         14    1    1    2    0    0  0.92424353180E-02 -0.96963209166E-02  0.33790842233E-02  0.13815189471E-01  0.00000000000E+00 0.  1.
     999901    1    3    3    0    0  0.24229258585E-01  0.11262968116E+00  0.72124469135E-01  0.89043497298E+00  0.88000000000E+00 0. -1.
        -11    1    4    4    0    0 -0.32413830968E-01 -0.31118089999E-01 -0.21482012602E-01  0.49806926724E-01  0.51100000000E-03 0.  1.
         11    1    4    4    0    0 -0.10578629345E-02 -0.71815270245E-01 -0.54021540756E-01  0.89872910830E-01  0.51100000000E-03 0. -1.
</event>
<event>
 8    1  0.2077555E+004  0.1043930E+01  0.7957747E-01            NaN
         13   -1    0    0    0    0  0.00000000000E+00  0.00000000000E+00  0.74505805969E-08  0.10566000000E+00  0.10566000000E+00 0.  1.
     999900   -1    0    0    0    0 -0.00000000000E+00 -0.00000000000E+00 -0.74505805969E-08  0.93827000000E+00  0.93827000000E+00 0. -1.
     999902    2    1    2    0    0  0.73417995975E-02 -0.37023700067E-02 -0.28394284678E-02  0.10352310392E+01  0.10351944902E+01 0.  0.
     999903    2    3    3    0    0  0.66132703475E-01 -0.91130028963E-01 -0.80621381265E-01  0.14554008268E+00  0.44764851190E-01 0.  0.
         14    1    1    2    0    0 -0.73417995975E-02  0.37023700067E-02  0.28394284678E-02  0.86989608012E-02  0.00000000000E+00 0. -1.
     999901    1    3    3    0    0 -0.58790903877E-01  0.87427658956E-01  0.77781952797E-01  0.88969095652E+00  0.88000000000E+00 0. -1.
        -11    1    4    4    0    0 -0.15986846052E-02 -0.29045890854E-01 -0.22974107120E-01  0.37071421431E-01  0.51100000000E-03 0. -1.
         11    1    4    4    0    0  0.67731388080E-01 -0.62084138109E-01 -0.57647274145E-01  0.10846866125E+00  0.51100000000E-03 0.  1.
</event>
<event>
 8    1  0.2231532E+004  0.1043930E+01  0.7957747E-01            NaN
         13   -1    0    0    0    0  0.00000000000E+00  0.00000000000E+00  0.74505805969E-08  0.10566000000E+00  0.10566000000E+00 0. -1.
     999900   -1    0    0    0    0 -0.00000000000E+00 -0.00000000000E+00 -0.74505805969E-08  0.93827000000E+00  0.93827000000E+00 0.  1.
     999902    2    1    2    0    0  0.16903880492E-01 -0.60859176883E-02  0.26644495699E-02  0.10257674324E+01  0.10256066237E+01 0.  0.
     999903    2    3    3    0    0 -0.54064379597E-01  0.20944062453E-01 -0.11302377013E+00  0.13495270536E+00  0.45565877312E-01 0.  0.
         14    1    1    2    0    0 -0.16903880492E-01  0.60859176883E-02 -0.26644495699E-02  0.18162567586E-01  0.00000000000E+00 0. -1.
     999901    1    3    3    0    0  0.70968260090E-01 -0.27029980141E-01  0.11568821970E+00  0.89081472706E+00  0.88000000000E+00 0. -1.
        -11    1    4    4    0    0 -0.47304483064E-01  0.97661431766E-02 -0.46128980868E-01  0.66792482117E-01  0.51100000000E-03 0.  1.
         11    1    4    4    0    0 -0.67598965332E-02  0.11177919276E-01 -0.66894789262E-01  0.68160223238E-01  0.51100000000E-03 0. -1.
</event>
<event>
 8    1  0.2077555E+004  0.1043930E+01  0.7957747E-01            NaN
         13   -1    0    0    0    0  0.00000000000E+00  0.00000000000E+00  0.74505805969E-08  0.10566000000E+00  0.10566000000E+00 0. -1.
     999900   -1    0    0    0    0 -0.00000000000E+00 -0.00000000000E+00 -0.74505805969E-08  0.93827000000E+00  0.93827000000E+00 0.  1.
     999902    2    1    2    0    0  0.34345347541E-02  0.65349489222E-02  0.11803520252E-01  0.10300079069E+01  0.10299138137E+01 0.  0.
     999903    2    3    3    0    0  0.88034980687E-01 -0.70383045627E-01 -0.67886920943E-01  0.13903979311E+00  0.44938837296E-01 0.  0.
         14    1    1    2    0    0 -0.34345347541E-02 -0.65349489222E-02 -0.11803520252E-01  0.13922093116E-01  0.00000000000E+00 0.  1.
     999901    1    3    3    0    0 -0.84600445933E-01  0.76917994549E-01  0.79690441196E-01  0.89096811377E+00  0.88000000000E+00 0. -1.
        -11    1    4    4    0    0  0.47988059457E-01 -0.10642605775E-01 -0.32059023074E-01  0.58686974616E-01  0.51100000000E-03 0. -1.
         11    1    4    4    0    0  0.40046921230E-01 -0.59740439852E-01 -0.35827897869E-01  0.80352818497E-01  0.51100000000E-03 0.  1.
</event>
<event>
 8    1  0.2077555E+004  0.1043930E+01  0.7957747E-01            NaN
         13   -1    0    0    0    0  0.00000000000E+00  0.00000000000E+00  0.74505805969E-08  0.10566000000E+00  0.10566000000E+00 0.  1.
     999900   -1    0    0    0    0 -0.00000000000E+00 -0.00000000000E+00 -0.74505805969E-08  0.93827000000E+00  0.93827000000E+00 0. -1.
     999902    2    1    2    0    0  0.47162818133E-02  0.11834301729E-01 -0.61483909084E-02  0.10297844451E+01  0.10296872859E+01 0.  0.
     999903    2    3    3    0    0  0.21151522401E-02  0.66916463095E-01 -0.11590488289E+00  0.14125346768E+00  0.45125528806E-01 0.  0.
         14    1    1    2    0    0 -0.47162818133E-02 -0.11834301729E-01  0.61483909084E-02  0.14145554861E-01  0.00000000000E+00 0. -1.
     999901    1    3    3    0    0  0.26011295732E-02 -0.55082161366E-01  0.10975649199E+00  0.88853097746E+00  0.88000000000E+00 0.  1.
        -11    1    4    4    0    0 -0.19146368582E-01  0.42451716873E-01 -0.82286784751E-01  0.94552143080E-01  0.51100000000E-03 0.  1.
         11    1    4    4    0    0  0.21261520822E-01  0.24464746222E-01 -0.33618098144E-01  0.46701324598E-01  0.51100000000E-03 0. -1.
</event>
<event>
 8    1  0.2077555E+004  0.1043930E+01  0.7957747E-01            NaN
         13   -1    0    0    0    0  0.00000000000E+00  0.00000000000E+00  0.74505805969E-08  0.10566000000E+00  0.10566000000E+00 0.  1.
     999900   -1    0    0    0    0 -0.00000000000E+00 -0.00000000000E+00 -0.74505805969E-08  0.93827000000E+00  0.93827000000E+00 0. -1.
     999902    2    1    2    0    0  0.18206854755E-02  0.17726518965E-02  0.67653458494E-02  0.10367031684E+01  0.10366779791E+01 0.  0.
     999903    2    3    3    0    0  0.10170704996E+00  0.87489954578E-01  0.39561795546E-01  0.14630980090E+00  0.42925586886E-01 0.  0.
         14    1    1    2    0    0 -0.18206854755E-02 -0.17726518965E-02 -0.67653458494E-02  0.72268315885E-02  0.00000000000E+00 0. -1.
     999901    1    3    3    0    0 -0.99886364487E-01 -0.85717302681E-01 -0.32796449696E-01  0.89039336751E+00  0.88000000000E+00 0. -1.
        -11    1    4    4    0    0  0.22488341200E-01  0.72032240218E-02  0.21774547186E-01  0.32124818324E-01  0.51100000000E-03 0.  1.
         11    1    4    4    0    0  0.79218708762E-01  0.80286730556E-01  0.17787248360E-01  0.11418498258E+00  0.51100000000E-03 0. -1.
</event>
<event>
 8    1  0.2077555E+004  0.1043930E+01  0.7957747E-01            NaN
         13   -1    0    0    0    0  0.00000000000E+00  0.00000000000E+00  0.74505805969E-08  0.10566000000E+00  0.10566000000E+00 0.  1.
     999900   -1    0    0    0    0 -0.00000000000E+00 -0.00000000000E+00 -0.74505805969E-08  0.93827000000E+00  0.93827000000E+00 0. -1.
     999902    2    1    2    0    0  0.14027754532E-01  0.11560427871E-01  0.23802828564E-02  0.10255973205E+01  0.10254334580E+01 0.  0.
     999903    2    3    3    0    0 -0.65041764811E-01  0.84523275827E-01  0.72175031509E-01  0.13630160312E+00  0.44657323189E-01 0.  0.
         14    1    1    2    0    0 -0.14027754532E-01 -0.11560427871E-01 -0.23802828564E-02  0.18332679462E-01  0.00000000000E+00 0. -1.
     999901    1    3    3    0    0  0.79069519344E-01 -0.72962847956E-01 -0.69794748653E-01  0.88929571741E+00  0.88000000000E+00 0. -1.
        -11    1    4    4    0    0 -0.21507000526E-01  0.32843145883E-01  0.53188942607E-01  0.66110120554E-01  0.51100000000E-03 0. -1.
         11    1    4    4    0    0 -0.43534764286E-01  0.51680129944E-01  0.18986088903E-01  0.70191482570E-01  0.51100000000E-03 0.  1.
</event>
<event>
 7    1  0.3487193E+004  0.1043930E+01  0.7957747E-01            NaN
         13   -1    0    0    0    0  0.00000000000E+00  0.00000000000E+00  0.74505805969E-08  0.10566000000E+00  0.10566000000E+00 0.  1.
     999900   -1    0    0    0    0 -0.00000000000E+00 -0.00000000000E+00 -0.74505805969E-08  0.93827000000E+00  0.93827000000E+00 0. -1.
     999903    2    1    2    0    0  0.76063177003E-01 -0.19517772744E-01 -0.20200393586E-01  0.96410097206E-01  0.52156500971E-01 0.  0.
         14    1    1    2    0    0  0.47668455775E-01 -0.28602495218E-01 -0.12430266895E-01  0.56963988130E-01  0.00000000000E+00 0. -1.
     999901    1    1    2    0    0 -0.12373163278E+00  0.48120267962E-01  0.32630660481E-01  0.89055591466E+00  0.88000000000E+00 0. -1.
        -11    1    3    3    0    0  0.32371645791E-01 -0.27683270065E-01  0.85832524334E-02  0.43453656188E-01  0.51100000000E-03 0. -1.
         11    1    3    3    0    0  0.43691531212E-01  0.81654973217E-02 -0.28783646019E-01  0.52956441018E-01  0.51100000000E-03 0.  1.
</event>
<event>
 8    1  0.2077555E+004  0.1043930E+01  0.7957747E-01            NaN
         13   -1    0    0    0    0  0.00000000000E+00  0.00000000000E+00  0.74505805969E-08  0.10566000000E+00  0.10566000000E+00 0. -1.
     999900   -1    0    0    0    0 -0.00000000000E+00 -0.00000000000E+00 -0.74505805969E-08  0.93827000000E+00  0.93827000000E+00 0.  1.
     999902    2    1    2    0    0  0.33988622829E-02 -0.46214914237E-03  0.12968551674E-01  0.10305154862E+01  0.10304281723E+01 0.  0.
     999903    2    3    3    0    0 -0.32010507105E-02 -0.10074425797E+00 -0.85278920068E-01  0.13936307173E+00  0.44608511680E-01 0.  0.
         14    1    1    2    0    0 -0.33988622829E-02  0.46214914237E-03 -0.12968551674E-01  0.13414513751E-01  0.00000000000E+00 0.  1.
     999901    1    3    3    0    0  0.65999129934E-02  0.10028210883E+00  0.98247471742E-01  0.89115241452E+00  0.88000000000E+00 0. -1.
        -11    1    4    4    0    0 -0.14708229042E-01 -0.64487550211E-01 -0.74908315018E-01  0.99932441748E-01  0.51100000000E-03 0. -1.
         11    1    4    4    0    0  0.11507178331E-01 -0.36256707758E-01 -0.10370605050E-01  0.39430629981E-01  0.51100000000E-03 0.  1.
</event>
<event>
 8    1  0.2077555E+004  0.1043930E+01  0.7957747E-01            NaN
         13   -1    0    0    0    0  0.00000000000E+00  0.00000000000E+00  0.74505805969E-08  0.10566000000E+00  0.10566000000E+00 0. -1.
     999900   -1    0    0    0    0 -0.00000000000E+00 -0.00000000000E+00 -0.74505805969E-08  0.93827000000E+00  0.93827000000E+00 0. -1.
     999902    2    1    2    0    0  0.12191480960E-01  0.24093822281E-02  0.34518159403E-02  0.10310322341E+01  0.10309515583E+01 0.  0.
     999903    2    3    3    0    0  0.81683819665E-01 -0.32038988151E-01 -0.10172883572E+00  0.14138126616E+00  0.44058634198E-01 0.  0.
         14    1    1    2    0    0 -0.12191480960E-01 -0.24093822281E-02 -0.34518159403E-02  0.12897765853E-01  0.00000000000E+00 0.  1.
     999901    1    3    3    0    0 -0.69492338706E-01  0.34448370380E-01  0.10518065166E+00  0.88965096799E+00  0.88000000000E+00 0.  1.
        -11    1    4    4    0    0  0.41589160557E-01  0.27466617773E-02 -0.63524077846E-01  0.75978760281E-01  0.51100000000E-03 0.  1.
         11    1    4    4    0    0  0.40094659109E-01 -0.34785649929E-01 -0.38204757870E-01  0.65402505877E-01  0.51100000000E-03 0. -1.
</event>
<event>
 8    1  0.2077555E+004  0.1043930E+01  0.7957747E-01            NaN
         13   -1    0    0    0    0  0.00000000000E+00  0.00000000000E+00  0.74505805969E-08  0.10566000000E+00  0.10566000000E+00 0.  1.
     999900   -1    0    0    0    0 -0.00000000000E+00 -0.00000000000E+00 -0.74505805969E-08  0.93827000000E+00  0.93827000000E+00 0.  1.
     999902    2    1    2    0    0 -0.12838976015E-02  0.13980381630E-01 -0.24875104379E-02  0.10296721190E+01  0.10295733997E+01 0.  0.
     999903    2    3    3    0    0 -0.11268868274E+00  0.69141680675E-01 -0.20739561653E-01  0.14074752574E+00  0.43593868359E-01 0.  0.
         14    1    1    2    0    0  0.12838976015E-02 -0.13980381630E-01  0.24875104379E-02  0.14257881040E-01  0.00000000000E+00 0.  1.
     999901    1    3    3    0    0  0.11140478514E+00 -0.55161299045E-01  0.18252051215E-01  0.88892459322E+00  0.88000000000E+00 0. -1.
        -11    1    4    4    0    0 -0.23601849651E-01  0.38192222104E-01 -0.64978794434E-02  0.45367132315E-01  0.51100000000E-03 0.  1.
         11    1    4    4    0    0 -0.89086833091E-01  0.30949458571E-01 -0.14241682210E-01  0.95380393421E-01  0.51100000000E-03 0. -1.
</event>
<event>
 8    1  0.2077555E+004  0.1043930E+01  0.7957747E-01            NaN
         13   -1    0    0    0    0  0.00000000000E+00  0.00000000000E+00  0.74505805969E-08  0.10566000000E+00  0.10566000000E+00 0.  1.
     999900   -1    0    0    0    0 -0.00000000000E+00 -0.00000000000E+00 -0.74505805969E-08  0.93827000000E+00  0.93827000000E+00 0.  1.
     999902    2    1    2    0    0 -0.12178689966E-01 -0.25403649768E-02 -0.62799704000E-02  0.10299940045E+01  0.10298997219E+01 0.  0.
     999903    2    3    3    0    0 -0.49586755764E-01 -0.12376428121E+00  0.11533864228E-01  0.14071793149E+00  0.43497845548E-01 0.  0.
         14    1    1    2    0    0  0.12178689966E-01  0.25403649768E-02  0.62799704000E-02  0.13935995541E-01  0.00000000000E+00 0.  1.
     999901    1    3    3    0    0  0.37408065799E-01  0.12122391623E+00 -0.17813834628E-01  0.88927607297E+00  0.88000000000E+00 0.  1.
        -11    1    4    4    0    0 -0.33252826963E-01 -0.69622737620E-01  0.27567767069E-01  0.81934846048E-01  0.51100000000E-03 0. -1.
         11    1    4    4    0    0 -0.16333928801E-01 -0.54141543591E-01 -0.16033902841E-01  0.58783085440E-01  0.51100000000E-03 0.  1.
</event>
<event>
 8    1  0.2077555E+004  0.1043930E+01  0.7957747E-01            NaN
         13   -1    0    0    0    0  0.00000000000E+00  0.00000000000E+00  0.74505805969E-08  0.10566000000E+00  0.10566000000E+00 0. -1.
     999900   -1    0    0    0    0 -0.00000000000E+00 -0.00000000000E+00 -0.74505805969E-08  0.93827000000E+00  0.93827000000E+00 0. -1.
     999902    2    1    2    0    0  0.72238456723E-02  0.85941947326E-02 -0.65543668684E-02  0.10309298518E+01  0.10308478818E+01 0.  0.
     999903    2    3    3    0    0  0.77654245278E-01 -0.51802213938E-01 -0.96597032635E-01  0.14148291740E+00  0.44415965868E-01 0.  0.
         14    1    1    2    0    0 -0.72238456723E-02 -0.85941947326E-02  0.65543668684E-02  0.13000148247E-01  0.00000000000E+00 0. -1.
     999901    1    3    3    0    0 -0.70430399605E-01  0.60396408671E-01  0.90042665767E-01  0.88944693435E+00  0.88000000000E+00 0.  1.
        -11    1    4    4    0    0  0.51117231982E-01 -0.27086908350E-01 -0.86092579402E-01  0.10372495051E+00  0.51100000000E-03 0. -1.
         11    1    4    4    0    0  0.26537013296E-01 -0.24715305588E-01 -0.10504453233E-01  0.37757966891E-01  0.51100000000E-03 0.  1.
</event>
<event>
 8    1  0.2077555E+004  0.1043930E+01  0.7957747E-01            NaN
         13   -1    0    0    0    0  0.00000000000E+00  0.00000000000E+00  0.74505805969E-08  0.10566000000E+00  0.10566000000E+00 0. -1.
     999900   -1    0    0    0    0 -0.00000000000E+00 -0.00000000000E+00 -0.74505805969E-08  0.93827000000E+00  0.93827000000E+00 0. -1.
     999902    2    1    2    0    0  0.80058474749E-02 -0.72738057084E-03 -0.11025232848E-01  0.10302852781E+01  0.10301949213E+01 0.  0.
     999903    2    3    3    0    0 -0.24639415976E-01  0.11722826323E+00  0.53541134988E-01  0.13947213104E+00  0.47289065133E-01 0.  0.
         14    1    1    2    0    0 -0.80058474749E-02  0.72738057084E-03  0.11025232848E-01  0.13644721897E-01  0.00000000000E+00 0. -1.
     999901    1    3    3    0    0  0.32645263450E-01 -0.11795564380E+00 -0.64566367836E-01  0.89081314707E+00  0.88000000000E+00 0.  1.
        -11    1    4    4    0    0 -0.97320323633E-02  0.98649940147E-01  0.24886224043E-01  0.10220620535E+00  0.51100000000E-03 0. -1.
         11    1    4    4    0    0 -0.14907383612E-01  0.18578323081E-01  0.28654910946E-01  0.37265925683E-01  0.51100000000E-03 0.  1.
</event>
<event>
 8    1  0.2077555E+004  0.1043930E+01  0.7957747E-01            NaN
         13   -1    0    0    0    0  0.00000000000E+00  0.00000000000E+00  0.74505805969E-08  0.10566000000E+00  0.10566000000E+00 0. -1.
     999900   -1    0    0    0    0 -0.00000000000E+00 -0.00000000000E+00 -0.74505805969E-08  0.93827000000E+00  0.93827000000E+00 0. -1.
     999902    2    1    2    0    0  0.10607487820E-01 -0.82806762760E-02 -0.36472790990E-02  0.10299875812E+01  0.10298932111E+01 0.  0.
     999903    2    3    3    0    0 -0.69954176630E-01  0.19808459519E-01  0.10934297922E+00  0.13867058943E+00  0.44583442797E-01 0.  0.
         14    1    1    2    0    0 -0.10607487820E-01  0.82806762760E-02  0.36472790990E-02  0.13942418810E-01  0.00000000000E+00 0. -1.
     999901    1    3    3    0    0  0.80561664450E-01 -0.28089135795E-01 -0.11299025832E+00  0.89131699176E+00  0.88000000000E+00 0. -1.
        -11    1    4    4    0    0 -0.74810505316E-01  0.17265852199E-01  0.88739725418E-01  0.11734445597E+00  0.51100000000E-03 0. -1.
         11    1    4    4    0    0  0.48563286858E-02  0.25426073201E-02  0.20603253800E-01  0.21326133462E-01  0.51100000000E-03 0.  1.
</event>
<event>
 8    1  0.2077555E+004  0.1043930E+01  0.7957747E-01            NaN
         13   -1    0    0    0    0  0.00000000000E+00  0.00000000000E+00  0.74505805969E-08  0.10566000000E+00  0.10566000000E+00 0. -1.
     999900   -1    0    0    0    0 -0.00000000000E+00 -0.00000000000E+00 -0.74505805969E-08  0.93827000000E+00  0.93827000000E+00 0.  1.
     999902    2    1    2    0    0  0.18859293109E-02 -0.13737456693E-01 -0.14639939306E-02  0.10299866244E+01  0.10298922413E+01 0.  0.
     999903    2    3    3    0    0  0.13650946858E-01 -0.83154614590E-01  0.10377370798E+00  0.14092412299E+00  0.44604794542E-01 0.  0.
         14    1    1    2    0    0 -0.18859293109E-02  0.13737456693E-01  0.14639939306E-02  0.13943375631E-01  0.00000000000E+00 0. -1.
     999901    1    3    3    0    0 -0.11765017548E-01  0.69417157896E-01 -0.10523770191E+00  0.88906250138E+00  0.88000000000E+00 0.  1.
        -11    1    4    4    0    0  0.69515299904E-02 -0.25226678309E-01  0.67128161777E-01  0.72049707094E-01  0.51100000000E-03 0. -1.
         11    1    4    4    0    0  0.66994168680E-02 -0.57927936281E-01  0.36645546202E-01  0.68874415900E-01  0.51100000000E-03 0.  1.
</event>
<event>
 8    1  0.2077555E+004  0.1043930E+01  0.7957747E-01            NaN
         13   -1    0    0    0    0  0.00000000000E+00  0.00000000000E+00  0.74505805969E-08  0.10566000000E+00  0.10566000000E+00 0.  1.
     999900   -1    0    0    0    0 -0.00000000000E+00 -0.00000000000E+00 -0.74505805969E-08  0.93827000000E+00  0.93827000000E+00 0.  1.
     999902    2    1    2    0    0  0.44336467041E-02  0.15016039415E-02 -0.12986166692E-01  0.10301259222E+01  0.10300334281E+01 0.  0.
     999903    2    3    3    0    0  0.13116363222E+00  0.22754622164E-01  0.27712201496E-02  0.14065390174E+00  0.45322943029E-01 0.  0.
         14    1    1    2    0    0 -0.44336467041E-02 -0.15016039415E-02  0.12986166692E-01  0.13804077761E-01  0.00000000000E+00 0.  1.
     999901    1    3    3    0    0 -0.12672998552E+00 -0.21253018223E-01 -0.15757386841E-01  0.88947202050E+00  0.88000000000E+00 0.  1.
        -11    1    4    4    0    0  0.31636787779E-01 -0.13340746725E-01 -0.39762705265E-02  0.34567813244E-01  0.51100000000E-03 0.  1.
         11    1    4    4    0    0  0.99526844446E-01  0.36095368890E-01  0.67474906760E-02  0.10608608849E+00  0.51100000000E-03 0. -1.
</event>
<event>
 8    1  0.2077555E+004  0.1043930E+01  0.7957747E-01            NaN
         13   -1    0    0    0    0  0.00000000000E+00  0.00000000000E+00  0.74505805969E-08  0.10566000000E+00  0.10566000000E+00 0. -1.
     999900   -1    0    0    0    0 -0.00000000000E+00 -0.00000000000E+00 -0.74505805969E-08  0.93827000000E+00  0.93827000000E+00 0. -1.
     999902    2    1    2    0    0 -0.76051515766E-02 -0.58458473573E-02 -0.10477861549E-01  0.10297244432E+01  0.10296264522E+01 0.  0.
     999903    2    3    3    0    0 -0.18016501185E-01 -0.13046092301E+00 -0.19863113742E-01  0.14083446335E+00  0.45772874424E-01 0.  0.
         14    1    1    2    0    0  0.76051515766E-02  0.58458473573E-02  0.10477861549E-01  0.14205556817E-01  0.00000000000E+00 0. -1.
     999901    1    3    3    0    0  0.10411349608E-01  0.12461507565E+00  0.93852521934E-02  0.88888997983E+00  0.88000000000E+00 0.  1.
        -11    1    4    4    0    0 -0.19411428346E-01 -0.84706172985E-01 -0.33392668617E-01  0.93098177913E-01  0.51100000000E-03 0.  1.
         11    1    4    4    0    0  0.13949271615E-02 -0.45754750026E-01  0.13529554875E-01  0.47736285442E-01  0.51100000000E-03 0. -1.
</event>
<event>
 8    1  0.2077555E+004  0.1043930E+01  0.7957747E-01            NaN
         13   -1    0    0    0    0  0.00000000000E+00  0.00000000000E+00  0.74505805969E-08  0.10566000000E+00  0.10566000000E+00 0.  1.
     999900   -1    0    0    0    0 -0.00000000000E+00 -0.00000000000E+00 -0.74505805969E-08  0.93827000000E+00  0.93827000000E+00 0. -1.
     999902    2    1    2    0    0  0.29933873232E-02  0.13839252709E-01 -0.26143955686E-02  0.10295313769E+01  0.10294306852E+01 0.  0.
     999903    2    3    3    0    0 -0.10906539439E+00 -0.46324130190E-01  0.55759262013E-01  0.13847341744E+00  0.44995630300E-01 0.  0.
         14    1    1    2    0    0 -0.29933873232E-02 -0.13839252709E-01  0.26143955686E-02  0.14398623108E-01  0.00000000000E+00 0. -1.
     999901    1    3    3    0    0  0.11205878171E+00  0.60163382899E-01 -0.58373657582E-01  0.89105795945E+00  0.88000000000E+00 0. -1.
        -11    1    4    4    0    0 -0.17679996283E-01 -0.40573123879E-02  0.29136327288E-01  0.34325365857E-01  0.51100000000E-03 0.  1.
         11    1    4    4    0    0 -0.91385398107E-01 -0.42266817802E-01  0.26622934725E-01  0.10414805158E+00  0.51100000000E-03 0. -1.
</event>
<event>
 8    1  0.2077555E+004  0.1043930E+01  0.7957747E-01            NaN
         13   -1    0    0    0    0  0.00000000000E+00  0.00000000000E+00  0.74505805969E-08  0.10566000000E+00  0.10566000000E+00 0. -1.
     999900   -1    0    0    0    0 -0.00000000000E+00 -0.00000000000E+00 -0.74505805969E-08  0.93827000000E+00  0.93827000000E+00 0. -1.
     999902    2    1    2    0    0 -0.59381771141E-02  0.79983248112E-02  0.87875176915E-02  0.10306463403E+01  0.10305607324E+01 0.  0.
     999903    2    3    3    0    0 -0.28892243436E-01 -0.11922062432E+00  0.50504122218E-01  0.14022406675E+00  0.45429104577E-01 0.  0.
         14    1    1    2    0    0  0.59381771141E-02 -0.79983248112E-02 -0.87875176915E-02  0.13283659677E-01  0.00000000000E+00 0.  1.
     999901    1    3    3    0    0  0.22954066322E-01  0.12721894913E+00 -0.41716604526E-01  0.89042227357E+00  0.88000000000E+00 0. -1.
        -11    1    4    4    0    0 -0.39720332040E-01 -0.94751182937E-01  0.31717988861E-01  0.10752573359E+00  0.51100000000E-03 0.  1.
         11    1    4    4    0    0  0.10828088605E-01 -0.24469441379E-01  0.18786133357E-01  0.32698333164E-01  0.51100000000E-03 0. -1.
</event>
<event>
 8    1  0.2077555E+004  0.1043930E+01  0.7957747E-01            NaN
         13   -1    0    0    0    0  0.00000000000E+00  0.00000000000E+00  0.74505805969E-08  0.10566000000E+00  0.10566000000E+00 0. -1.
     999900   -1    0    0    0    0 -0.00000000000E+00 -0.00000000000E+00 -0.74505805969E-08  0.93827000000E+00  0.93827000000E+00 0.  1.
     999902    2    1    2    0    0  0.59784133622E-02 -0.68426302263E-02  0.10238096686E-01  0.10302412587E+01  0.10301503140E+01 0.  0.
     999903    2    3    3    0    0  0.94225978640E-01 -0.93198644104E-01 -0.19003237038E-01  0.14114056164E+00  0.44665566247E-01 0.  0.
         14    1    1    2    0    0 -0.59784133622E-02  0.68426302263E-02 -0.10238096686E-01  0.13688741304E-01  0.00000000000E+00 0.  1.
     999901    1    3    3    0    0 -0.88247565277E-01  0.86356013878E-01  0.29241333723E-01  0.88910069706E+00  0.88000000000E+00 0. -1.
        -11    1    4    4    0    0  0.86205001513E-01 -0.87418411102E-01 -0.35961645735E-02  0.12282701008E+00  0.51100000000E-03 0. -1.
         11    1    4    4    0    0  0.80209771266E-02 -0.57802330023E-02 -0.15407072464E-01  0.18313551555E-01  0.51100000000E-03 0.  1.
</event>
<event>
 8    1  0.2077555E+004  0.1043930E+01  0.7957747E-01            NaN
         13   -1    0    0    0    0  0.00000000000E+00  0.00000000000E+00  0.74505805969E-08  0.10566000000E+00  0.10566000000E+00 0.  1.
     999900   -1    0    0    0    0 -0.00000000000E+00 -0.00000000000E+00 -0.74505805969E-08  0.93827000000E+00  0.93827000000E+00 0. -1.
     999902    2    1    2    0    0  0.73181201882E-02  0.10543525580E-01 -0.11475985617E-02  0.10310444345E+01  0.10309639122E+01 0.  0.
     999903    2    3    3    0    0 -0.33548373208E-01  0.34131963420E-01 -0.12507783030E+00  0.14110893855E+00  0.44461046254E-01 0.  0.
         14    1    1    2    0    0 -0.73181201882E-02 -0.10543525580E-01  0.11475985617E-02  0.12885565459E-01  0.00000000000E+00 0.  1.
     999901    1    3    3    0    0  0.40866493397E-01 -0.23588437841E-01  0.12393023174E+00  0.88993549599E+00  0.88000000000E+00 0.  1.
        -11    1    4    4    0    0 -0.21748680914E-01 -0.40729774112E-02 -0.25292238368E-01  0.33608818919E-01  0.51100000000E-03 0.  1.
         11    1    4    4    0    0 -0.11799692295E-01  0.38204940832E-01 -0.99785591935E-01  0.10750011963E+00  0.51100000000E-03 0. -1.
</event>
<event>
 8    1  0.2077555E+004  0.1043930E+01  0.7957747E-01            NaN
         13   -1    0    0    0    0  0.00000000000E+00  0.00000000000E+00  0.74505805969E-08  0.10566000000E+00  0.10566000000E+00 0.  1.
     999900   -1    0    0    0    0 -0.00000000000E+00 -0.00000000000E+00 -0.74505805969E-08  0.93827000000E+00  0.93827000000E+00 0. -1.
     999902    2    1    2    0    0  0.12957880238E-01 -0.32324161715E-02 -0.29012959667E-02  0.10302635194E+01  0.10301728722E+01 0.  0.
     999903    2    3    3    0    0 -0.11327563167E+00 -0.60256486954E-01  0.28784248958E-01  0.13886539399E+00  0.44641367690E-01 0.  0.
         14    1    1    2    0    0 -0.12957880238E-01  0.32324161715E-02  0.29012959667E-02  0.13666480631E-01  0.00000000000E+00 0.  1.
     999901    1    3    3    0    0  0.12623351191E+00  0.57024070782E-01 -0.31685544925E-01  0.89139812538E+00  0.88000000000E+00 0. -1.
        -11    1    4    4    0    0 -0.55723990129E-01 -0.24963918912E-01  0.36135139259E-01  0.70953292620E-01  0.51100000000E-03 0.  1.
         11    1    4    4    0    0 -0.57551641540E-01 -0.35292568041E-01 -0.73508903012E-02  0.67912101367E-01  0.51100000000E-03 0. -1.
</event>
<event>
 8    1  0.2077555E+004  0.1043930E+01  0.7957747E-01            NaN
         13   -1    0    0    0    0  0.00000000000E+00  0.00000000000E+00  0.74505805969E-08  0.10566000000E+00  0.10566000000E+00 0. -1.
     999900   -1    0    0    0    0 -0.00000000000E+00 -0.00000000000E+00 -0.74505805969E-08  0.93827000000E+00  0.93827000000E+00 0. -1.
     999902    2    1    2    0    0  0.33039504499E-02 -0.13573476967E-01  0.23482994324E-02  0.10297642005E+01  0.10296667610E+01 0.  0.
     999903    2    3    3    0    0 -0.73430382820E-01 -0.30892459575E-01  0.10350468908E+00  0.14048318741E+00  0.51729489678E-01 0.  0.
         14    1    1    2    0    0 -0.33039504499E-02  0.13573476967E-01 -0.23482994324E-02  0.14165799511E-01  0.00000000000E+00 0. -1.
     999901    1    3    3    0    0  0.76734333270E-01  0.17318982607E-01 -0.10115638965E+00  0.88928101308E+00  0.88000000000E+00 0. -1.
        -11    1    4    4    0    0 -0.37791638195E-02  0.12399740789E-01  0.14460082789E-01  0.19426547971E-01  0.51100000000E-03 0. -1.
         11    1    4    4    0    0 -0.69651219000E-01 -0.43292200364E-01  0.89044606294E-01  0.12105663944E+00  0.51100000000E-03 0.  1.
</event>
<event>
 8    1  0.2077555E+004  0.1043930E+01  0.7957747E-01            NaN
         13   -1    0    0    0    0  0.00000000000E+00  0.00000000000E+00  0.74505805969E-08  0.10566000000E+00  0.10566000000E+00 0. -1.
     999900   -1    0    0    0    0 -0.00000000000E+00 -0.00000000000E+00 -0.74505805969E-08  0.93827000000E+00  0.93827000000E+00 0. -1.
     999902    2    1    2    0    0  0.72490528178E-02  0.68372913728E-02  0.10149107943E-01  0.10297067194E+01  0.10296084820E+01 0.  0.
     999903    2    3    3    0    0  0.63102731975E-01  0.11681046365E+00  0.15876717814E-01  0.14108613800E+00  0.45017651725E-01 0.  0.
         14    1    1    2    0    0 -0.72490528178E-02 -0.68372913728E-02 -0.10149107943E-01  0.14223280638E-01  0.00000000000E+00 0.  1.
     999901    1    3    3    0    0 -0.55853679157E-01 -0.10997317228E+00 -0.57276098711E-02  0.88862058136E+00  0.88000000000E+00 0. -1.
        -11    1    4    4    0    0  0.10520891866E-01  0.35678815129E-02 -0.83431631843E-02  0.13902821191E-01  0.51100000000E-03 0.  1.
         11    1    4    4    0    0  0.52581840108E-01  0.11324258214E+00  0.24219880998E-01  0.12718331681E+00  0.51100000000E-03 0. -1.
</event>
<event>
 8    1  0.2077555E+004  0.1043930E+01  0.7957747E-01            NaN
         13   -1    0    0    0    0  0.00000000000E+00  0.00000000000E+00  0.74505805969E-08  0.10566000000E+00  0.10566000000E+00 0.  1.
     999900   -1    0    0    0    0 -0.00000000000E+00 -0.00000000000E+00 -0.74505805969E-08  0.93827000000E+00  0.93827000000E+00 0. -1.
     999902    2    1    2    0    0  0.13617483239E-02  0.68359367477E-02  0.11429400870E-01  0.10305428571E+01  0.10304559014E+01 0.  0.
     999903    2    3    3    0    0  0.11179338742E+00 -0.40338024602E-01 -0.57921062310E-01  0.13968371211E+00  0.45075184627E-01 0.  0.
         14    1    1    2    0    0 -0.13617483239E-02 -0.68359367477E-02 -0.11429400870E-01  0.13387142860E-01  0.00000000000E+00 0. -1.
     999901    1    3    3    0    0 -0.11043163910E+00  0.47173961350E-01  0.69350463180E-01  0.89085914503E+00  0.88000000000E+00 0.  1.
        -11    1    4    4    0    0  0.42586852309E-01  0.64259760426E-02 -0.13852339817E-01  0.45244685844E-01  0.51100000000E-03 0. -1.
         11    1    4    4    0    0  0.69206535113E-01 -0.46764000645E-01 -0.44068722493E-01  0.94439026265E-01  0.51100000000E-03 0.  1.
</event>
<event>
 8    1  0.2077555E+004  0.1043930E+01  0.7957747E-01            NaN
         13   -1    0    0    0    0  0.00000000000E+00  0.00000000000E+00  0.74505805969E-08  0.10566000000E+00  0.10566000000E+00 0. -1.
     999900   -1    0    0    0    0 -0.00000000000E+00 -0.00000000000E+00 -0.74505805969E-08  0.93827000000E+00  0.93827000000E+00 0. -1.
     999902    2    1    2    0    0  0.30425914926E-03 -0.63956901769E-02  0.14117487791E-01  0.10284283585E+01  0.10283115227E+01 0.  0.
     999903    2    3    3    0    0 -0.56754748080E-01 -0.58239784195E-01 -0.10146028075E+00  0.13752894729E+00  0.44800099092E-01 0.  0.
         14    1    1    2    0    0 -0.30425914926E-03  0.63956901769E-02 -0.14117487791E-01  0.15501641462E-01  0.00000000000E+00 0.  1.
     999901    1    3    3    0    0  0.57059007229E-01  0.51844094018E-01  0.11557776854E+00  0.89089941125E+00  0.88000000000E+00 0. -1.
        -11    1    4    4    0    0  0.60185757587E-02 -0.16019886705E-01 -0.16685863687E-01  0.23906885874E-01  0.51100000000E-03 0. -1.
         11    1    4    4    0    0 -0.62773323839E-01 -0.42219897490E-01 -0.84774417063E-01  0.11362206141E+00  0.51100000000E-03 0.  1.
</event>
<event>
 8    1  0.2077555E+004  0.1043930E+01  0.7957747E-01            NaN
         13   -1    0    0    0    0  0.00000000000E+00  0.00000000000E+00  0.74505805969E-08  0.10566000000E+00  0.10566000000E+00 0. -1.
     999900   -1    0    0    0    0 -0.00000000000E+00 -0.00000000000E+00 -0.74505805969E-08  0.93827000000E+00  0.93827000000E+00 0. -1.
     999902    2    1    2    0    0 -0.57426809125E-02  0.79680464222E-02 -0.82937448997E-02  0.10310748706E+01  0.10309947305E+01 0.  0.
     999903    2    3    3    0    0 -0.10619170481E+00  0.96319716809E-02 -0.82176412335E-01  0.14228275563E+00  0.46064810413E-01 0.  0.
         14    1    1    2    0    0  0.57426809125E-02 -0.79680464222E-02  0.82937448997E-02  0.12855129416E-01  0.00000000000E+00 0. -1.
     999901    1    3    3    0    0  0.10044902389E+00 -0.16639252586E-02  0.73882667435E-01  0.88879211495E+00  0.88000000000E+00 0.  1.
        -11    1    4    4    0    0 -0.45101756256E-01  0.94433176988E-02 -0.89940573384E-02  0.46952091061E-01  0.51100000000E-03 0.  1.
         11    1    4    4    0    0 -0.61089948551E-01  0.18865398206E-03 -0.73182354996E-01  0.95330664574E-01  0.51100000000E-03 0. -1.
</event>
<event>
 8    1  0.2077555E+004  0.1043930E+01  0.7957747E-01            NaN
         13   -1    0    0    0    0  0.00000000000E+00  0.00000000000E+00  0.74505805969E-08  0.10566000000E+00  0.10566000000E+00 0. -1.
     999900   -1    0    0    0    0 -0.00000000000E+00 -0.00000000000E+00 -0.74505805969E-08  0.93827000000E+00  0.93827000000E+00 0.  1.
     999902    2    1    2    0    0 -0.37932148824E-02 -0.67976441685E-02  0.11409225562E-01  0.10301181618E+01  0.10300255630E+01 0.  0.
     999903    2    3    3    0    0  0.36878904300E-01 -0.65523930953E-01  0.11074646151E+00  0.14165269572E+00  0.46338627082E-01 0.  0.
         14    1    1    2    0    0  0.37932148824E-02  0.67976441685E-02 -0.11409225562E-01  0.13811838158E-01  0.00000000000E+00 0.  1.
     999901    1    3    3    0    0 -0.40672119182E-01  0.58726286784E-01 -0.99337235945E-01  0.88846546612E+00  0.88000000000E+00 0. -1.
        -11    1    4    4    0    0  0.37771100905E-01 -0.21697170867E-01  0.45003576101E-01  0.62633906713E-01  0.51100000000E-03 0. -1.
         11    1    4    4    0    0 -0.89219660510E-03 -0.43826760086E-01  0.65742885406E-01  0.79018789012E-01  0.51100000000E-03 0.  1.
</event>
<event>
 8    1  0.2077555E+004  0.1043930E+01  0.7957747E-01            NaN
         13   -1    0    0    0    0  0.00000000000E+00  0.00000000000E+00  0.74505805969E-08  0.10566000000E+00  0.10566000000E+00 0.  1.
     999900   -1    0    0    0    0 -0.00000000000E+00 -0.00000000000E+00 -0.74505805969E-08  0.93827000000E+00  0.93827000000E+00 0. -1.
     999902    2    1    2    0    0 -0.76469035954E-02 -0.63025474356E-02  0.64110645315E-02  0.10321275008E+01  0.10320600171E+01 0.  0.
     999903    2    3    3    0    0  0.80044796655E-01 -0.65618518465E-01  0.86676679423E-01  0.14215514863E+00  0.44522804134E-01 0.  0.
         14    1    1    2    0    0  0.76469035954E-02  0.63025474356E-02 -0.64110645315E-02  0.11802499193E-01  0.00000000000E+00 0. -1.
     999901    1    3    3    0    0 -0.87691700251E-01  0.59315971029E-01 -0.80265614892E-01  0.88997235218E+00  0.88000000000E+00 0. -1.
        -11    1    4    4    0    0  0.41825322745E-01 -0.65819048800E-02  0.32539872491E-01  0.53402092818E-01  0.51100000000E-03 0. -1.
         11    1    4    4    0    0  0.38219473910E-01 -0.59036613585E-01  0.54136806932E-01  0.88753055809E-01  0.51100000000E-03 0.  1.
</event>
<event>
 8    1  0.2077555E+004  0.1043930E+01  0.7957747E-01            NaN
         13   -1    0    0    0    0  0.00000000000E+00  0.00000000000E+00  0.74505805969E-08  0.10566000000E+00  0.10566000000E+00 0. -1.
     999900   -1    0    0    0    0 -0.00000000000E+00 -0.00000000000E+00 -0.74505805969E-08  0.93827000000E+00  0.93827000000E+00 0. -1.
     999902    2    1    2    0    0 -0.64983801638E-02 -0.44705072420E-02  0.11543584900E-01  0.10299489867E+01  0.10298540899E+01 0.  0.
     999903    2    3    3    0    0 -0.46971442449E-01  0.10021990708E+00  0.74094493067E-01  0.14061734570E+00  0.45087668238E-01 0.  0.
         14    1    1    2    0    0  0.64983801638E-02  0.44705072420E-02 -0.11543584900E-01  0.13981013271E-01  0.00000000000E+00 0.  1.
     999901    1    3    3    0    0  0.40473062285E-01 -0.10469041433E+00 -0.62550908168E-01  0.88933164103E+00  0.88000000000E+00 0. -1.
        -11    1    4    4    0    0 -0.35768899834E-01  0.10201424063E+00  0.65816697579E-01  0.12656389014E+00  0.51100000000E-03 0. -1.
         11    1    4    4    0    0 -0.11202542615E-01 -0.17943335483E-02  0.82777954883E-02  0.14053455556E-01  0.51100000000E-03 0.  1.
</event>
<event>
 8    1  0.2077555E+004  0.1043930E+01  0.7957747E-01            NaN
         13   -1    0    0    0    0  0.00000000000E+00  0.00000000000E+00  0.74505805969E-08  0.10566000000E+00  0.10566000000E+00 0. -1.
     999900   -1    0    0    0    0 -0.00000000000E+00 -0.00000000000E+00 -0.74505805969E-08  0.93827000000E+00  0.93827000000E+00 0. -1.
     999902    2    1    2    0    0  0.54594983482E-02 -0.11076558026E-01 -0.92855476609E-02  0.10284795095E+01  0.10283634493E+01 0.  0.
     999903    2    3    3    0    0  0.58516795462E-01  0.79036739852E-01 -0.86917651656E-01  0.13889408543E+00  0.45451811845E-01 0.  0.
         14    1    1    2    0    0 -0.54594983482E-02  0.11076558026E-01  0.92855476609E-02  0.15450490455E-01  0.00000000000E+00 0.  1.
     999901    1    3    3    0    0 -0.53057297113E-01 -0.90113297878E-01  0.77632103995E-01  0.88958542412E+00  0.88000000000E+00 0. -1.
        -11    1    4    4    0    0  0.35184297951E-01  0.28978095119E-01 -0.65180677897E-01  0.79538963478E-01  0.51100000000E-03 0.  1.
         11    1    4    4    0    0  0.23332497511E-01  0.50058644732E-01 -0.21736973759E-01  0.59355121950E-01  0.51100000000E-03 0. -1.
</event>
<event>
 8    1  0.2077555E+004  0.1043930E+01  0.7957747E-01            NaN
         13   -1    0    0    0    0  0.00000000000E+00  0.00000000000E+00  0.74505805969E-08  0.10566000000E+00  0.10566000000E+00 0. -1.
     999900   -1    0    0    0    0 -0.00000000000E+00 -0.00000000000E+00 -0.74505805969E-08  0.93827000000E+00  0.93827000000E+00 0.  1.
     999902    2    1    2    0    0 -0.94628169781E-02  0.91684274153E-02 -0.51324562283E-02  0.10297897357E+01  0.10296926497E+01 0.  0.
     999903    2    3    3    0    0 -0.13010382403E+00  0.12023553751E-01  0.29180778641E-01  0.14089165248E+00  0.43901811188E-01 0.  0.
         14    1    1    2    0    0  0.94628169781E-02 -0.91684274153E-02  0.51324562283E-02  0.14140264261E-01  0.00000000000E+00 0. -1.
     999901    1    3    3    0    0  0.12064100705E+00 -0.28551263352E-02 -0.34313234870E-01  0.88889808326E+00  0.88000000000E+00 0.  1.
        -11    1    4    4    0    0 -0.15333527936E-01 -0.50607381303E-02 -0.93007368940E-02  0.18641163514E-01  0.51100000000E-03 0. -1.
         11    1    4    4    0    0 -0.11477029609E+00  0.17084291881E-01  0.38481515535E-01  0.12225048897E+00  0.51100000000E-03 0.  1.
</event>
<event>
 8    1  0.2077555E+004  0.1043930E+01  0.7957747E-01            NaN
         13   -1    0    0    0    0  0.00000000000E+00  0.00000000000E+00  0.74505805969E-08  0.10566000000E+00  0.10566000000E+00 0. -1.
     999900   -1    0    0    0    0 -0.00000000000E+00 -0.00000000000E+00 -0.74505805969E-08  0.93827000000E+00  0.93827000000E+00 0.  1.
     999902    2    1    2    0    0  0.13696725367E-01 -0.22889971424E-02  0.30496073800E-02  0.10297124088E+01  0.10296142506E+01 0.  0.
     999903    2    3    3    0    0 -0.80024191878E-01  0.91485808916E-01  0.49086741617E-01  0.13859134953E+00  0.44994771296E-01 0.  0.
         14    1    1    2    0    0 -0.13696725367E-01  0.22889971424E-02 -0.30496073800E-02  0.14217591177E-01  0.00000000000E+00 0. -1.
     999901    1    3    3    0    0  0.93720917246E-01 -0.93774806059E-01 -0.46037134237E-01  0.89112105929E+00  0.88000000000E+00 0.  1.
        -11    1    4    4    0    0 -0.11521863143E-01  0.35516770149E-01  0.30461325138E-01  0.48190743326E-01  0.51100000000E-03 0. -1.
         11    1    4    4    0    0 -0.68502328735E-01  0.55969038767E-01  0.18625416479E-01  0.90400606208E-01  0.51100000000E-03 0.  1.
</event>
<event>
 8    1  0.2077555E+004  0.1043930E+01  0.7957747E-01            NaN
         13   -1    0    0    0    0  0.00000000000E+00  0.00000000000E+00  0.74505805969E-08  0.10566000000E+00  0.10566000000E+00 0.  1.
     999900   -1    0    0    0    0 -0.00000000000E+00 -0.00000000000E+00 -0.74505805969E-08  0.93827000000E+00  0.93827000000E+00 0. -1.
     999902    2    1    2    0    0 -0.75222297273E-02 -0.88273915703E-02 -0.79370389244E-02  0.10298764108E+01  0.10297805194E+01 0.  0.
     999903    2    3    3    0    0 -0.43580649587E-01 -0.11823991184E+00 -0.47523089339E-01  0.14148552578E+00  0.43356201581E-01 0.  0.
         14    1    1    2    0    0  0.75222297273E-02  0.88273915703E-02  0.79370389244E-02  0.14053589182E-01  0.00000000000E+00 0.  1.
     999901    1    3    3    0    0  0.36058419859E-01  0.10941252026E+00  0.39586050414E-01  0.88839088504E+00  0.88000000000E+00 0.  1.
        -11    1    4    4    0    0 -0.31259867236E-01 -0.43029495719E-01 -0.36429589797E-01  0.64467766638E-01  0.51100000000E-03 0.  1.
         11    1    4    4    0    0 -0.12320782350E-01 -0.75210416116E-01 -0.11093499541E-01  0.77017759141E-01  0.51100000000E-03 0. -1.
</event>
<event>
 8    1  0.2077555E+004  0.1043930E+01  0.7957747E-01            NaN
         13   -1    0    0    0    0  0.00000000000E+00  0.00000000000E+00  0.74505805969E-08  0.10566000000E+00  0.10566000000E+00 0.  1.
     999900   -1    0    0    0    0 -0.00000000000E+00 -0.00000000000E+00 -0.74505805969E-08  0.93827000000E+00  0.93827000000E+00 0. -1.
     999902    2    1    2    0    0  0.10295057963E-01 -0.84783763967E-02  0.32446816345E-02  0.10302041469E+01  0.10301127051E+01 0.  0.
     999903    2    3    3    0    0  0.13047665312E+00  0.29057608274E-01  0.41220648369E-02  0.14124220408E+00  0.45429805051E-01 0.  0.
         14    1    1    2    0    0 -0.10295057963E-01  0.84783763967E-02 -0.32446816345E-02  0.13725853114E-01  0.00000000000E+00 0. -1.
     999901    1    3    3    0    0 -0.12018159515E+00 -0.37535984671E-01 -0.87738320240E-03  0.88896194281E+00  0.88000000000E+00 0.  1.
        -11    1    4    4    0    0  0.40475407781E-01  0.31227408419E-01  0.11441708132E-03  0.51124200570E-01  0.51100000000E-03 0.  1.
         11    1    4    4    0    0  0.90001245337E-01 -0.21698001455E-02  0.40076477556E-02  0.90118003509E-01  0.51100000000E-03 0. -1.
</event>
<event>
 8    1  0.2077555E+004  0.1043930E+01  0.7957747E-01            NaN
         13   -1    0    0    0    0  0.00000000000E+00  0.00000000000E+00  0.74505805969E-08  0.10566000000E+00  0.10566000000E+00 0.  1.
     999900   -1    0    0    0    0 -0.00000000000E+00 -0.00000000000E+00 -0.74505805969E-08  0.93827000000E+00  0.93827000000E+00 0. -1.
     999902    2    1    2    0    0  0.20478101667E-01 -0.57127518289E-03  0.98206804656E-02  0.10212116205E+01  0.10209588870E+01 0.  0.
     999903    2    3    3    0    0  0.19322595318E-01 -0.21058201869E-01 -0.12020219746E+00  0.13142119676E+00  0.44790089627E-01 0.  0.
         14    1    1    2    0    0 -0.20478101667E-01  0.57127518289E-03 -0.98206804656E-02  0.22718379520E-01  0.00000000000E+00 0. -1.
     999901    1    3    3    0    0  0.11555063494E-02  0.20486926686E-01  0.13002287792E+00  0.88979042372E+00  0.88000000000E+00 0.  1.
        -11    1    4    4    0    0  0.30352623968E-01 -0.15529616905E-01 -0.52497010836E-01  0.62599105830E-01  0.51100000000E-03 0. -1.
         11    1    4    4    0    0 -0.11030028651E-01 -0.55285849640E-02 -0.67705186620E-01  0.68822090930E-01  0.51100000000E-03 0.  1.
</event>
<event>
 8    1  0.2077555E+004  0.1043930E+01  0.7957747E-01            NaN
         13   -1    0    0    0    0  0.00000000000E+00  0.00000000000E+00  0.74505805969E-08  0.10566000000E+00  0.10566000000E+00 0.  1.
     999900   -1    0    0    0    0 -0.00000000000E+00 -0.00000000000E+00 -0.74505805969E-08  0.93827000000E+00  0.93827000000E+00 0. -1.
     999902    2    1    2    0    0 -0.63149615586E-02  0.58911727782E-02 -0.11266289321E-01  0.10297344397E+01  0.10296365876E+01 0.  0.
     999903    2    3    3    0    0 -0.13064645469E+00  0.22888685878E-01 -0.68037325173E-02  0.14082097373E+00  0.46817387802E-01 0.  0.
         14    1    1    2    0    0  0.63149615586E-02 -0.58911727782E-02  0.11266289321E-01  0.14195560266E-01  0.00000000000E+00 0.  1.
     999901    1    3    3    0    0  0.12433149313E+00 -0.16997513100E-01 -0.44625568042E-02  0.88891346601E+00  0.88000000000E+00 0. -1.
        -11    1    4    4    0    0 -0.11237734004E+00  0.24195386616E-01  0.10738924519E-01  0.11545418533E+00  0.51100000000E-03 0.  1.
         11    1    4    4    0    0 -0.18269114649E-01 -0.13067007378E-02 -0.17542657037E-01  0.25366788401E-01  0.51100000000E-03 0. -1.
</event>
<event>
 8    1  0.2077555E+004  0.1043930E+01  0.7957747E-01            NaN
         13   -1    0    0    0    0  0.00000000000E+00  0.00000000000E+00  0.74505805969E-08  0.10566000000E+00  0.10566000000E+00 0. -1.
     999900   -1    0    0    0    0 -0.00000000000E+00 -0.00000000000E+00 -0.74505805969E-08  0.93827000000E+00  0.93827000000E+00 0. -1.
     999902    2    1    2    0    0  0.17730452657E-02 -0.11640475826E-01  0.75272421264E-02  0.10299548885E+01  0.10298600724E+01 0.  0.
     999903    2    3    3    0    0  0.37565653276E-01  0.32824127147E-01 -0.12156811695E+00  0.13870642516E+00  0.44407923749E-01 0.  0.
         14    1    1    2    0    0 -0.17730452657E-02  0.11640475826E-01 -0.75272421264E-02  0.13975111484E-01  0.00000000000E+00 0.  1.
     999901    1    3    3    0    0 -0.35792608010E-01 -0.44464602973E-01  0.12909535908E+00  0.89124846336E+00  0.88000000000E+00 0.  1.
        -11    1    4    4    0    0  0.44513011160E-01  0.31794114106E-01 -0.82367951150E-01  0.98878786158E-01  0.51100000000E-03 0.  1.
         11    1    4    4    0    0 -0.69473578841E-02  0.10300130414E-02 -0.39200165800E-01  0.39827638999E-01  0.51100000000E-03 0. -1.
</event>
<event>
 8    1  0.2077555E+004  0.1043930E+01  0.7957747E-01            NaN
         13   -1    0    0    0    0  0.00000000000E+00  0.00000000000E+00  0.74505805969E-08  0.10566000000E+00  0.10566000000E+00 0.  1.
     999900   -1    0    0    0    0 -0.00000000000E+00 -0.00000000000E+00 -0.74505805969E-08  0.93827000000E+00  0.93827000000E+00 0.  1.
     999902    2    1    2    0    0  0.73919743657E-02  0.39923201620E-02 -0.10263961944E-01  0.10306661838E+01  0.10305808331E+01 0.  0.
     999903    2    3    3    0    0  0.58283269123E-01 -0.10544496155E+00  0.55140745118E-01  0.14002359656E+00  0.45282738932E-01 0.  0.
         14    1    1    2    0    0 -0.73919743657E-02 -0.39923201620E-02  0.10263961944E-01  0.13263816197E-01  0.00000000000E+00 0.  1.
     999901    1    3    3    0    0 -0.50891294757E-01  0.10943728171E+00 -0.65404707063E-01  0.89064258725E+00  0.88000000000E+00 0. -1.
        -11    1    4    4    0    0  0.14544413450E-01 -0.65976292573E-01  0.16441297486E-01  0.69534081775E-01  0.51100000000E-03 0. -1.
         11    1    4    4    0    0  0.43738855673E-01 -0.39468668975E-01  0.38699447632E-01  0.70489514782E-01  0.51100000000E-03 0.  1.
</event>
<event>
 8    1  0.2077555E+004  0.1043930E+01  0.7957747E-01            NaN
         13   -1    0    0    0    0  0.00000000000E+00  0.00000000000E+00  0.74505805969E-08  0.10566000000E+00  0.10566000000E+00 0. -1.
     999900   -1    0    0    0    0 -0.00000000000E+00 -0.00000000000E+00 -0.74505805969E-08  0.93827000000E+00  0.93827000000E+00 0. -1.
     999902    2    1    2    0    0 -0.15558737092E-02 -0.12848480229E-01  0.36002059853E-02  0.10304962488E+01  0.10304086826E+01 0.  0.
     999903    2    3    3    0    0 -0.29320139737E-02  0.11475276474E+00 -0.64487729731E-01  0.13868912929E+00  0.43579967615E-01 0.  0.
         14    1    1    2    0    0  0.15558737092E-02  0.12848480229E-01 -0.36002059853E-02  0.13433751164E-01  0.00000000000E+00 0.  1.
     999901    1    3    3    0    0  0.13761402645E-02 -0.12760124497E+00  0.68087935717E-01  0.89180711954E+00  0.88000000000E+00 0.  1.
        -11    1    4    4    0    0 -0.14940804462E-01  0.84211239024E-01 -0.28904164189E-01  0.90279965908E-01  0.51100000000E-03 0. -1.
         11    1    4    4    0    0  0.12008790488E-01  0.30541525712E-01 -0.35583565542E-01  0.48409163384E-01  0.51100000000E-03 0.  1.
</event>
<event>
 8    1  0.2077555E+004  0.1043930E+01  0.7957747E-01            NaN
         13   -1    0    0    0    0  0.00000000000E+00  0.00000000000E+00  0.74505805969E-08  0.10566000000E+00  0.10566000000E+00 0.  1.
     999900   -1    0    0    0    0 -0.00000000000E+00 -0.00000000000E+00 -0.74505805969E-08  0.93827000000E+00  0.93827000000E+00 0. -1.
     999902    2    1    2    0    0  0.12788818352E-01 -0.20416698270E-02  0.49609907944E-02  0.10300615567E+01  0.10299681921E+01 0.  0.
     999903    2    3    3    0    0 -0.69604397882E-01  0.36938119343E-01 -0.10451577620E+00  0.13860587715E+00  0.45594350974E-01 0.  0.
         14    1    1    2    0    0 -0.12788818352E-01  0.20416698270E-02 -0.49609907944E-02  0.13868443322E-01  0.00000000000E+00 0. -1.
     999901    1    3    3    0    0  0.82393216234E-01 -0.38979789170E-01  0.10947676700E+00  0.89145567953E+00  0.88000000000E+00 0.  1.
        -11    1    4    4    0    0 -0.42405852319E-01  0.42405505134E-01 -0.52741244874E-01  0.79864780776E-01  0.51100000000E-03 0. -1.
         11    1    4    4    0    0 -0.27198545563E-01 -0.54673857911E-02 -0.51774531330E-01  0.58741096377E-01  0.51100000000E-03 0.  1.
</event>
<event>
 8    1  0.2077555E+004  0.1043930E+01  0.7957747E-01            NaN
         13   -1    0    0    0    0  0.00000000000E+00  0.00000000000E+00  0.74505805969E-08  0.10566000000E+00  0.10566000000E+00 0. -1.
     999900   -1    0    0    0    0 -0.00000000000E+00 -0.00000000000E+00 -0.74505805969E-08  0.93827000000E+00  0.93827000000E+00 0. -1.
     999902    2    1    2    0    0 -0.11844178973E-01 -0.55215142875E-02  0.36428104951E-02  0.10303638007E+01  0.10302744877E+01 0.  0.
     999903    2    3    3    0    0  0.50155831369E-01  0.60499703427E-01  0.10435020320E+00  0.14000163762E+00  0.50355457430E-01 0.  0.
         14    1    1    2    0    0  0.11844178973E-01  0.55215142875E-02 -0.36428104951E-02  0.13566199316E-01  0.00000000000E+00 0.  1.
     999901    1    3    3    0    0 -0.62000010342E-01 -0.66021217715E-01 -0.10070739271E+00  0.89036216306E+00  0.88000000000E+00 0. -1.
        -11    1    4    4    0    0  0.25676299928E-01 -0.33104084783E-03  0.17092073005E-01  0.30850965084E-01  0.51100000000E-03 0.  1.
         11    1    4    4    0    0  0.24479531441E-01  0.60830744275E-01  0.87258130196E-01  0.10915067254E+00  0.51100000000E-03 0. -1.
</event>
<event>
 8    1  0.2077555E+004  0.1043930E+01  0.7957747E-01            NaN
         13   -1    0    0    0    0  0.00000000000E+00  0.00000000000E+00  0.74505805969E-08  0.10566000000E+00  0.10566000000E+00 0.  1.
     999900   -1    0    0    0    0 -0.00000000000E+00 -0.00000000000E+00 -0.74505805969E-08  0.93827000000E+00  0.93827000000E+00 0. -1.
     999902    2    1    2    0    0 -0.11453910968E-01 -0.77829489403E-02  0.18909058304E-02  0.10299535235E+01  0.10298586887E+01 0.  0.
     999903    2    3    3    0    0  0.15473598545E-01 -0.12687342328E+00  0.38420638489E-01  0.14077297197E+00  0.44772607551E-01 0.  0.
         14    1    1    2    0    0  0.11453910968E-01  0.77829489403E-02 -0.18909058304E-02  0.13976476506E-01  0.00000000000E+00 0. -1.
     999901    1    3    3    0    0 -0.26927509514E-01  0.11909047434E+00 -0.36529732659E-01  0.88918055153E+00  0.88000000000E+00 0. -1.
        -11    1    4    4    0    0 -0.46444942319E-02 -0.10502670937E+00  0.35335360629E-01  0.11091000784E+00  0.51100000000E-03 0. -1.
         11    1    4    4    0    0  0.20118092777E-01 -0.21846713910E-01  0.30852778600E-02  0.29862964122E-01  0.51100000000E-03 0.  1.
</event>
<event>
 8    1  0.2077555E+004  0.1043930E+01  0.7957747E-01            NaN
         13   -1    0    0    0    0  0.00000000000E+00  0.00000000000E+00  0.74505805969E-08  0.10566000000E+00  0.10566000000E+00 0.  1.
     999900   -1    0    0    0    0 -0.00000000000E+00 -0.00000000000E+00 -0.74505805969E-08  0.93827000000E+00  0.93827000000E+00 0.  1.
     999902    2    1    2    0    0  0.84817439175E-04  0.10218853865E-01 -0.10350501176E-01  0.10293847244E+01  0.10292819564E+01 0.  0.
     999903    2    3    3    0    0  0.23052055967E-01 -0.55859003298E-02  0.12867166427E+00  0.13803493513E+00  0.43984617353E-01 0.  0.
         14    1    1    2    0    0 -0.84817439175E-04 -0.10218853865E-01  0.10350501176E-01  0.14545275622E-01  0.00000000000E+00 0.  1.
     999901    1    3    3    0    0 -0.22967238528E-01  0.15804754195E-01 -0.13902216545E+00  0.89134978924E+00  0.88000000000E+00 0.  1.
        -11    1    4    4    0    0  0.34401448345E-01 -0.87632596585E-02  0.73624307033E-01  0.81737715133E-01  0.51100000000E-03 0.  1.
         11    1    4    4    0    0 -0.11349392378E-01  0.31773593287E-02  0.55047357239E-01  0.56297220000E-01  0.51100000000E-03 0. -1.
</event>
<event>
 8    1  0.2077555E+004  0.1043930E+01  0.7957747E-01            NaN
         13   -1    0    0    0    0  0.00000000000E+00  0.00000000000E+00  0.74505805969E-08  0.10566000000E+00  0.10566000000E+00 0.  1.
     999900   -1    0    0    0    0 -0.00000000000E+00 -0.00000000000E+00 -0.74505805969E-08  0.93827000000E+00  0.93827000000E+00 0.  1.
     999902    2    1    2    0    0  0.81540985991E-02 -0.77466972019E-02  0.79453181725E-02  0.10301594255E+01  0.10300673828E+01 0.  0.
     999903    2    3    3    0    0 -0.42025908994E-02 -0.12734511058E+00 -0.42234051417E-01  0.14056713832E+00  0.41724888478E-01 0.  0.
         14    1    1    2    0    0 -0.81540985991E-02  0.77466972019E-02 -0.79453181725E-02  0.13770574511E-01  0.00000000000E+00 0.  1.
     999901    1    3    3    0    0  0.12356689499E-01  0.11959841337E+00  0.50179369590E-01  0.88959228717E+00  0.88000000000E+00 0. -1.
        -11    1    4    4    0    0  0.20042011315E-02 -0.93241792889E-01 -0.48835573852E-01  0.10527688805E+00  0.51100000000E-03 0. -1.
         11    1    4    4    0    0 -0.62067920309E-02 -0.34103317687E-01  0.66015224344E-02  0.35290250269E-01  0.51100000000E-03 0.  1.
</event>
<event>
 8    1  0.2077555E+004  0.1043930E+01  0.7957747E-01            NaN
         13   -1    0    0    0    0  0.00000000000E+00  0.00000000000E+00  0.74505805969E-08  0.10566000000E+00  0.10566000000E+00 0. -1.
     999900   -1    0    0    0    0 -0.00000000000E+00 -0.00000000000E+00 -0.74505805969E-08  0.93827000000E+00  0.93827000000E+00 0. -1.
     999902    2    1    2    0    0  0.92850438933E-02 -0.80795197712E-02 -0.24831521018E-02  0.10313738571E+01  0.10312974238E+01 0.  0.
     999903    2    3    3    0    0  0.71423428557E-01  0.11024056468E+00  0.23662299941E-01  0.14089959814E+00  0.45149795890E-01 0.  0.
         14    1    1    2    0    0 -0.92850438933E-02  0.80795197712E-02  0.24831521018E-02  0.12556142887E-01  0.00000000000E+00 0.  1.
     999901    1    3    3    0    0 -0.62138384663E-01 -0.11832008445E+00 -0.26145452043E-01  0.89047425897E+00  0.88000000000E+00 0. -1.
        -11    1    4    4    0    0  0.32409141887E-01  0.25129852191E-01  0.23504573738E-01  0.47271429601E-01  0.51100000000E-03 0.  1.
         11    1    4    4    0    0  0.39014286670E-01  0.85110712491E-01  0.15772620326E-03  0.93628168537E-01  0.51100000000E-03 0. -1.
</event>
<event>
 8    1  0.2077555E+004  0.1043930E+01  0.7957747E-01            NaN
         13   -1    0    0    0    0  0.00000000000E+00  0.00000000000E+00  0.74505805969E-08  0.10566000000E+00  0.10566000000E+00 0.  1.
     999900   -1    0    0    0    0 -0.00000000000E+00 -0.00000000000E+00 -0.74505805969E-08  0.93827000000E+00  0.93827000000E+00 0.  1.
     999902    2    1    2    0    0 -0.12533048227E-01 -0.58632085352E-02 -0.17678545882E-02  0.10299808129E+01  0.10298863505E+01 0.  0.
     999903    2    3    3    0    0  0.56695898418E-01  0.38292238674E-01  0.11169302086E+00  0.13890521515E+00  0.46245080229E-01 0.  0.
         14    1    1    2    0    0  0.12533048227E-01  0.58632085352E-02  0.17678545882E-02  0.13949187146E-01  0.00000000000E+00 0.  1.
     999901    1    3    3    0    0 -0.69228946645E-01 -0.44155447209E-01 -0.11346087545E+00  0.89107559771E+00  0.88000000000E+00 0.  1.
        -11    1    4    4    0    0  0.39161684259E-01  0.47558022495E-01  0.73822564656E-01  0.96153186068E-01  0.51100000000E-03 0. -1.
         11    1    4    4    0    0  0.17534214159E-01 -0.92657838217E-02  0.37870456207E-01  0.42752029078E-01  0.51100000000E-03 0.  1.
</event>
<event>
 8    1  0.2077555E+004  0.1043930E+01  0.7957747E-01            NaN
         13   -1    0    0    0    0  0.00000000000E+00  0.00000000000E+00  0.74505805969E-08  0.10566000000E+00  0.10566000000E+00 0.  1.
     999900   -1    0    0    0    0 -0.00000000000E+00 -0.00000000000E+00 -0.74505805969E-08  0.93827000000E+00  0.93827000000E+00 0.  1.
     999902    2    1    2    0    0  0.87917564176E-02  0.46404949621E-02  0.95705352033E-02  0.10301305682E+01  0.10300381368E+01 0.  0.
     999903    2    3    3    0    0  0.61165425769E-01 -0.11693850894E+00  0.14378372460E-01  0.14021620672E+00  0.45144466440E-01 0.  0.
         14    1    1    2    0    0 -0.87917564176E-02 -0.46404949621E-02 -0.95705352033E-02  0.13799431817E-01  0.00000000000E+00 0. -1.
     999901    1    3    3    0    0 -0.52373669351E-01  0.12157900390E+00 -0.48078372568E-02  0.88991436146E+00  0.88000000000E+00 0.  1.
        -11    1    4    4    0    0  0.20444089742E-01 -0.23457345900E-01 -0.14364983627E-01  0.34275672971E-01  0.51100000000E-03 0.  1.
         11    1    4    4    0    0  0.40721336027E-01 -0.93481163043E-01  0.28743356087E-01  0.10594053375E+00  0.51100000000E-03 0. -1.
</event>
<event>
 8    1  0.2077555E+004  0.1043930E+01  0.7957747E-01            NaN
         13   -1    0    0    0    0  0.00000000000E+00  0.00000000000E+00  0.74505805969E-08  0.10566000000E+00  0.10566000000E+00 0.  1.
     999900   -1    0    0    0    0 -0.00000000000E+00 -0.00000000000E+00 -0.74505805969E-08  0.93827000000E+00  0.93827000000E+00 0. -1.
     999902    2    1    2    0    0 -0.20328581441E-02  0.14010509874E-01 -0.32170403751E-02  0.10294118649E+01  0.10293094827E+01 0.  0.
     999903    2    3    3    0    0 -0.88191341516E-01  0.98153567247E-01 -0.22312727290E-01  0.14100430995E+00  0.44413085277E-01 0.  0.
         14    1    1    2    0    0  0.20328581441E-02 -0.14010509874E-01  0.32170403751E-02  0.14518135140E-01  0.00000000000E+00 0. -1.
     999901    1    3    3    0    0  0.86158483372E-01 -0.84143057374E-01  0.19095686915E-01  0.88840755491E+00  0.88000000000E+00 0. -1.
        -11    1    4    4    0    0 -0.48361348799E-01  0.76451897004E-01 -0.29610355644E-04  0.90465322698E-01  0.51100000000E-03 0.  1.
         11    1    4    4    0    0 -0.39829992717E-01  0.21701670244E-01 -0.22283116935E-01  0.50538987253E-01  0.51100000000E-03 0. -1.
</event>
<event>
 8    1  0.2077555E+004  0.1043930E+01  0.7957747E-01            NaN
         13   -1    0    0    0    0  0.00000000000E+00  0.00000000000E+00  0.74505805969E-08  0.10566000000E+00  0.10566000000E+00 0.  1.
     999900   -1    0    0    0    0 -0.00000000000E+00 -0.00000000000E+00 -0.74505805969E-08  0.93827000000E+00  0.93827000000E+00 0.  1.
     999902    2    1    2    0    0  0.47146286670E-02 -0.86208229131E-02 -0.10022338262E-01  0.10298945600E+01  0.10297989178E+01 0.  0.
     999903    2    3    3    0    0 -0.38673322582E-02  0.50956785512E-01 -0.12308691748E+00  0.14062140707E+00  0.44860234334E-01 0.  0.
         14    1    1    2    0    0 -0.47146286670E-02  0.86208229131E-02  0.10022338262E-01  0.14035439979E-01  0.00000000000E+00 0.  1.
     999901    1    3    3    0    0  0.85819609252E-02 -0.59577608425E-01  0.11306457922E+00  0.88927315295E+00  0.88000000000E+00 0. -1.
        -11    1    4    4    0    0 -0.10233580658E-01  0.24016355280E-01 -0.17422391725E-01  0.31389685383E-01  0.51100000000E-03 0. -1.
         11    1    4    4    0    0  0.63662483999E-02  0.26940430232E-01 -0.10566452575E+00  0.10923172169E+00  0.51100000000E-03 0.  1.
</event>
<event>
 8    1  0.2077555E+004  0.1043930E+01  0.7957747E-01            NaN
         13   -1    0    0    0    0  0.00000000000E+00  0.00000000000E+00  0.74505805969E-08  0.10566000000E+00  0.10566000000E+00 0.  1.
     999900   -1    0    0    0    0 -0.00000000000E+00 -0.00000000000E+00 -0.74505805969E-08  0.93827000000E+00  0.93827000000E+00 0.  1.
     999902    2    1    2    0    0  0.79347094027E-02  0.98767765575E-02  0.20629591312E-02  0.10310938741E+01  0.10310139723E+01 0.  0.
     999903    2    3    3    0    0  0.12809269030E-01  0.15145998491E-01  0.13253179963E+00  0.14144582885E+00  0.45263295747E-01 0.  0.
         14    1    1    2    0    0 -0.79347094027E-02 -0.98767765575E-02 -0.20629591312E-02  0.12836125928E-01  0.00000000000E+00 0. -1.
     999901    1    3    3    0    0 -0.48745596272E-02 -0.52692219332E-02 -0.13046884050E+00  0.88964804522E+00  0.88000000000E+00 0.  1.
        -11    1    4    4    0    0  0.67825815793E-02 -0.15727621658E-01  0.35074827986E-01  0.39036728540E-01  0.51100000000E-03 0.  1.
         11    1    4    4    0    0  0.60266874506E-02  0.30873620149E-01  0.97456971643E-01  0.10240910031E+00  0.51100000000E-03 0. -1.
</event>
<event>
 7    1  0.2336227E+004  0.1043930E+01  0.7957747E-01            NaN
         13   -1    0    0    0    0  0.00000000000E+00  0.00000000000E+00  0.74505805969E-08  0.10566000000E+00  0.10566000000E+00 0. -1.
     999900   -1    0    0    0    0 -0.00000000000E+00 -0.00000000000E+00 -0.74505805969E-08  0.93827000000E+00  0.93827000000E+00 0.  1.
     999903    2    1    2    0    0 -0.29194067154E-01 -0.10180609647E+00  0.35135466284E-01  0.12060955307E+00  0.45775413326E-01 0.  0.
         14    1    1    2    0    0 -0.30398868298E-01 -0.11283589265E-01  0.66617830691E-02  0.33102717927E-01  0.00000000000E+00 0. -1.
     999901    1    1    2    0    0  0.59592935452E-01  0.11308968574E+00 -0.41797249353E-01  0.89021772900E+00  0.88000000000E+00 0. -1.
        -11    1    3    3    0    0 -0.13209909666E-01 -0.96926965549E-01  0.34975252295E-01  0.10388872777E+00  0.51100000000E-03 0.  1.
         11    1    3    3    0    0 -0.15984157488E-01 -0.48791309232E-02  0.16021398905E-03  0.16720825300E-01  0.51100000000E-03 0. -1.
</event>
<event>
 8    1  0.2077555E+004  0.1043930E+01  0.7957747E-01            NaN
         13   -1    0    0    0    0  0.00000000000E+00  0.00000000000E+00  0.74505805969E-08  0.10566000000E+00  0.10566000000E+00 0.  1.
     999900   -1    0    0    0    0 -0.00000000000E+00 -0.00000000000E+00 -0.74505805969E-08  0.93827000000E+00  0.93827000000E+00 0.  1.
     999902    2    1    2    0    0  0.28109153000E-02 -0.12364560250E-01 -0.45574416261E-02  0.10304558073E+01  0.10303677096E+01 0.  0.
     999903    2    3    3    0    0 -0.36141170270E-01 -0.11281885035E+00 -0.64736003719E-01  0.14184465009E+00  0.43530189518E-01 0.  0.
         14    1    1    2    0    0 -0.28109153000E-02  0.12364560250E-01  0.45574416261E-02  0.13474192710E-01  0.00000000000E+00 0.  1.
     999901    1    3    3    0    0  0.38952085570E-01  0.10045429010E+00  0.60178562093E-01  0.88861115720E+00  0.88000000000E+00 0. -1.
        -11    1    4    4    0    0 -0.17573619266E-01 -0.89300482454E-01 -0.65055034640E-01  0.11187415659E+00  0.51100000000E-03 0.  1.
         11    1    4    4    0    0 -0.18567551004E-01 -0.23518367892E-01  0.31903092132E-03  0.29970493494E-01  0.51100000000E-03 0. -1.
</event>
<event>
 8    1  0.2077555E+004  0.1043930E+01  0.7957747E-01            NaN
         13   -1    0    0    0    0  0.00000000000E+00  0.00000000000E+00  0.74505805969E-08  0.10566000000E+00  0.10566000000E+00 0.  1.
     999900   -1    0    0    0    0 -0.00000000000E+00 -0.00000000000E+00 -0.74505805969E-08  0.93827000000E+00  0.93827000000E+00 0. -1.
     999902    2    1    2    0    0  0.12420683205E-01  0.70382127829E-02 -0.28843093734E-04  0.10296537735E+01  0.10295547983E+01 0.  0.
     999903    2    3    3    0    0  0.64824230988E-01  0.11287655764E-01 -0.11558241736E+00  0.14054364642E+00  0.45427186254E-01 0.  0.
         14    1    1    2    0    0 -0.12420683205E-01 -0.70382127829E-02  0.28843093734E-04  0.14276226475E-01  0.00000000000E+00 0.  1.
     999901    1    3    3    0    0 -0.52403547783E-01 -0.42494429811E-02  0.11555357427E+00  0.88911012710E+00  0.88000000000E+00 0.  1.
        -11    1    4    4    0    0  0.43870110179E-01  0.51127729232E-02 -0.33045661310E-01  0.55163428705E-01  0.51100000000E-03 0. -1.
         11    1    4    4    0    0  0.20954120808E-01  0.61748828409E-02 -0.82536756053E-01  0.85380217719E-01  0.51100000000E-03 0.  1.
</event>
<event>
 8    1  0.2077555E+004  0.1043930E+01  0.7957747E-01            NaN
         13   -1    0    0    0    0  0.00000000000E+00  0.00000000000E+00  0.74505805969E-08  0.10566000000E+00  0.10566000000E+00 0.  1.
     999900   -1    0    0    0    0 -0.00000000000E+00 -0.00000000000E+00 -0.74505805969E-08  0.93827000000E+00  0.93827000000E+00 0.  1.
     999902    2    1    2    0    0 -0.49154219161E-02  0.10990484900E-01  0.99803433433E-03  0.10318490976E+01  0.10317783735E+01 0.  0.
     999903    2    3    3    0    0  0.94379894157E-01 -0.91126913389E-01 -0.19501316794E-01  0.14016095353E+00  0.45311287477E-01 0.  0.
         14    1    1    2    0    0  0.49154219161E-02 -0.10990484900E-01 -0.99803433433E-03  0.12080902429E-01  0.00000000000E+00 0. -1.
     999901    1    3    3    0    0 -0.99295316073E-01  0.10211739829E+00  0.20499351128E-01  0.89168814404E+00  0.88000000000E+00 0. -1.
        -11    1    4    4    0    0  0.36303744610E-01 -0.82461232831E-02 -0.78376769492E-03  0.37240244826E-01  0.51100000000E-03 0. -1.
         11    1    4    4    0    0  0.58076149546E-01 -0.82880790106E-01 -0.18717549099E-01  0.10292070870E+00  0.51100000000E-03 0.  1.
</event>
<event>
 8    1  0.2077555E+004  0.1043930E+01  0.7957747E-01            NaN
         13   -1    0    0    0    0  0.00000000000E+00  0.00000000000E+00  0.74505805969E-08  0.10566000000E+00  0.10566000000E+00 0.  1.
     999900   -1    0    0    0    0 -0.00000000000E+00 -0.00000000000E+00 -0.74505805969E-08  0.93827000000E+00  0.93827000000E+00 0. -1.
     999902    2    1    2    0    0  0.33431108486E-02 -0.13345723268E-01  0.28868142316E-02  0.10298723183E+01  0.10297763706E+01 0.  0.
     999903    2    3    3    0    0  0.12972091901E+00 -0.13526636207E-01 -0.23980924514E-01  0.14043808319E+00  0.46230766304E-01 0.  0.
         14    1    1    2    0    0 -0.33431108486E-02  0.13345723268E-01 -0.28868142316E-02  0.14057681747E-01  0.00000000000E+00 0.  1.
     999901    1    3    3    0    0 -0.12637780816E+00  0.18091293938E-03  0.26867738746E-01  0.88943423507E+00  0.88000000000E+00 0. -1.
        -11    1    4    4    0    0  0.33075010375E-01  0.14871233005E-01 -0.15195608891E-01  0.39322735573E-01  0.51100000000E-03 0. -1.
         11    1    4    4    0    0  0.96645908632E-01 -0.28397869212E-01 -0.87853156235E-02  0.10111534761E+00  0.51100000000E-03 0.  1.
</event>
<event>
 8    1  0.2077555E+004  0.1043930E+01  0.7957747E-01            NaN
         13   -1    0    0    0    0  0.00000000000E+00  0.00000000000E+00  0.74505805969E-08  0.10566000000E+00  0.10566000000E+00 0.  1.
     999900   -1    0    0    0    0 -0.00000000000E+00 -0.00000000000E+00 -0.74505805969E-08  0.93827000000E+00  0.93827000000E+00 0. -1.
     999902    2    1    2    0    0  0.12083373796E-01  0.59661369260E-02  0.32925801975E-02  0.10300575887E+01  0.10299641703E+01 0.  0.
     999903    2    3    3    0    0  0.59265374651E-02 -0.12523252656E+00 -0.40522753819E-01  0.13923169128E+00  0.45000674727E-01 0.  0.
         14    1    1    2    0    0 -0.12083373796E-01 -0.59661369260E-02 -0.32925801975E-02  0.13872411343E-01  0.00000000000E+00 0. -1.
     999901    1    3    3    0    0  0.61568363307E-02  0.13119866349E+00  0.43815334016E-01  0.89082589737E+00  0.88000000000E+00 0.  1.
        -11    1    4    4    0    0  0.12482953521E-01 -0.63633533597E-02 -0.62120006659E-02  0.15335138339E-01  0.51100000000E-03 0. -1.
         11    1    4    4    0    0 -0.65564160564E-02 -0.11886917320E+00 -0.34310753153E-01  0.12389655295E+00  0.51100000000E-03 0.  1.
</event>
<event>
 8    1  0.2077555E+004  0.1043930E+01  0.7957747E-01            NaN
         13   -1    0    0    0    0  0.00000000000E+00  0.00000000000E+00  0.74505805969E-08  0.10566000000E+00  0.10566000000E+00 0. -1.
     999900   -1    0    0    0    0 -0.00000000000E+00 -0.00000000000E+00 -0.74505805969E-08  0.93827000000E+00  0.93827000000E+00 0.  1.
     999902    2    1    2    0    0  0.93014159681E-02 -0.20624940501E-02  0.16414829131E-01  0.10249506208E+01  0.10247748817E+01 0.  0.
     999903    2    3    3    0    0  0.75668705921E-01  0.81195956252E-01  0.66624418114E-01  0.13711190256E+00  0.45192083007E-01 0.  0.
         14    1    1    2    0    0 -0.93014159681E-02  0.20624940501E-02 -0.16414829131E-01  0.18979379234E-01  0.00000000000E+00 0.  1.
     999901    1    3    3    0    0 -0.66367289953E-01 -0.83258450302E-01 -0.50209588984E-01  0.88783871821E+00  0.88000000000E+00 0.  1.
        -11    1    4    4    0    0  0.25451963571E-01  0.52122798185E-01  0.16175850395E-01  0.60220493167E-01  0.51100000000E-03 0.  1.
         11    1    4    4    0    0  0.50216742350E-01  0.29073158067E-01  0.50448567719E-01  0.76891409391E-01  0.51100000000E-03 0. -1.
</event>
<event>
 8    1  0.2077555E+004  0.1043930E+01  0.7957747E-01            NaN
         13   -1    0    0    0    0  0.00000000000E+00  0.00000000000E+00  0.74505805969E-08  0.10566000000E+00  0.10566000000E+00 0.  1.
     999900   -1    0    0    0    0 -0.00000000000E+00 -0.00000000000E+00 -0.74505805969E-08  0.93827000000E+00  0.93827000000E+00 0.  1.
     999902    2    1    2    0    0  0.66176389243E-02 -0.84104656715E-02 -0.85755916739E-02  0.10302161439E+01  0.10301248629E+01 0.  0.
     999903    2    3    3    0    0 -0.31484896466E-01  0.61818052777E-01 -0.11321772030E+00  0.14042188500E+00  0.45686795058E-01 0.  0.
         14    1    1    2    0    0 -0.66176389243E-02  0.84104656715E-02  0.85755916739E-02  0.13713856143E-01  0.00000000000E+00 0.  1.
     999901    1    3    3    0    0  0.38102535391E-01 -0.70228518448E-01  0.10464212863E+00  0.88979425885E+00  0.88000000000E+00 0. -1.
        -11    1    4    4    0    0 -0.84371212609E-02  0.27519813908E-02 -0.50363247838E-01  0.51141727293E-01  0.51100000000E-03 0.  1.
         11    1    4    4    0    0 -0.23047775205E-01  0.59066071386E-01 -0.62854472465E-01  0.89280157710E-01  0.51100000000E-03 0. -1.
</event>
<event>
 8    1  0.2077555E+004  0.1043930E+01  0.7957747E-01            NaN
         13   -1    0    0    0    0  0.00000000000E+00  0.00000000000E+00  0.74505805969E-08  0.10566000000E+00  0.10566000000E+00 0.  1.
     999900   -1    0    0    0    0 -0.00000000000E+00 -0.00000000000E+00 -0.74505805969E-08  0.93827000000E+00  0.93827000000E+00 0. -1.
     999902    2    1    2    0    0  0.17109683695E-02 -0.65119730917E-02  0.11832210703E-01  0.10303162416E+01  0.10302262972E+01 0.  0.
     999903    2    3    3    0    0 -0.12697713689E+00 -0.14092567242E-01 -0.34557758566E-01  0.13971525182E+00  0.44769623281E-01 0.  0.
         14    1    1    2    0    0 -0.17109683695E-02  0.65119730917E-02 -0.11832210703E-01  0.13613758351E-01  0.00000000000E+00 0. -1.
     999901    1    3    3    0    0  0.12868810526E+00  0.75805941499E-02  0.46389969269E-01  0.89060098983E+00  0.88000000000E+00 0.  1.
        -11    1    4    4    0    0 -0.49574567292E-01  0.14849555996E-01 -0.51859345941E-02  0.52012518437E-01  0.51100000000E-03 0. -1.
         11    1    4    4    0    0 -0.77402569597E-01 -0.28942123238E-01 -0.29371823971E-01  0.87702733379E-01  0.51100000000E-03 0.  1.
</event>
<event>
 8    1  0.2077555E+004  0.1043930E+01  0.7957747E-01            NaN
         13   -1    0    0    0    0  0.00000000000E+00  0.00000000000E+00  0.74505805969E-08  0.10566000000E+00  0.10566000000E+00 0.  1.
     999900   -1    0    0    0    0 -0.00000000000E+00 -0.00000000000E+00 -0.74505805969E-08  0.93827000000E+00  0.93827000000E+00 0.  1.
     999902    2    1    2    0    0  0.95283564231E-02 -0.17028375375E-03  0.10362536871E-01  0.10298516214E+01  0.10297553891E+01 0.  0.
     999903    2    3    3    0    0  0.11800455884E+00  0.44729335062E-01  0.45105504662E-01  0.14137532120E+00  0.45018724669E-01 0.  0.
         14    1    1    2    0    0 -0.95283564231E-02  0.17028375375E-03 -0.10362536871E-01  0.14078378567E-01  0.00000000000E+00 0. -1.
     999901    1    3    3    0    0 -0.10847620242E+00 -0.44899618816E-01 -0.34742967791E-01  0.88847630023E+00  0.88000000000E+00 0. -1.
        -11    1    4    4    0    0  0.78514491612E-01  0.48417494592E-01  0.19861625028E-01  0.94358488995E-01  0.51100000000E-03 0.  1.
         11    1    4    4    0    0  0.39490067233E-01 -0.36881595305E-02  0.25243879634E-01  0.47016832207E-01  0.51100000000E-03 0. -1.
</event>
<event>
 8    1  0.2077555E+004  0.1043930E+01  0.7957747E-01            NaN
         13   -1    0    0    0    0  0.00000000000E+00  0.00000000000E+00  0.74505805969E-08  0.10566000000E+00  0.10566000000E+00 0. -1.
     999900   -1    0    0    0    0 -0.00000000000E+00 -0.00000000000E+00 -0.74505805969E-08  0.93827000000E+00  0.93827000000E+00 0.  1.
     999902    2    1    2    0    0  0.27988374784E-02  0.74752440111E-02  0.11128964352E-01  0.10302345040E+01  0.10301434689E+01 0.  0.
     999903    2    3    3    0    0 -0.85544053975E-02 -0.10347480582E+00  0.82812423676E-01  0.14030342347E+00  0.45243119143E-01 0.  0.
         14    1    1    2    0    0 -0.27988374784E-02 -0.74752440111E-02 -0.11128964352E-01  0.13695496040E-01  0.00000000000E+00 0.  1.
     999901    1    3    3    0    0  0.11353242876E-01  0.11095004984E+00 -0.71683459325E-01  0.88993108049E+00  0.88000000000E+00 0.  1.
        -11    1    4    4    0    0 -0.17672677668E-01 -0.42087164226E-01  0.57149797422E-01  0.73143785757E-01  0.51100000000E-03 0.  1.
         11    1    4    4    0    0  0.91182722709E-02 -0.61387641599E-01  0.25662626254E-01  0.67159637712E-01  0.51100000000E-03 0. -1.
</event>
<event>
 8    1  0.2077555E+004  0.1043930E+01  0.7957747E-01            NaN
         13   -1    0    0    0    0  0.00000000000E+00  0.00000000000E+00  0.74505805969E-08  0.10566000000E+00  0.10566000000E+00 0. -1.
     999900   -1    0    0    0    0 -0.00000000000E+00 -0.00000000000E+00 -0.74505805969E-08  0.93827000000E+00  0.93827000000E+00 0.  1.
     999902    2    1    2    0    0  0.53623115115E-02  0.55259406834E-03 -0.12188563287E-01  0.10306025539E+01  0.10305163770E+01 0.  0.
     999903    2    3    3    0    0  0.37516244046E-01  0.23549486635E-01  0.12404403954E+00  0.13924288769E+00  0.45162054178E-01 0.  0.
         14    1    1    2    0    0 -0.53623115115E-02 -0.55259406834E-03  0.12188563287E-01  0.13327446115E-01  0.00000000000E+00 0. -1.
     999901    1    3    3    0    0 -0.32153932535E-01 -0.22996892566E-01 -0.13623260283E+00  0.89135966620E+00  0.88000000000E+00 0.  1.
        -11    1    4    4    0    0  0.10655385581E-01 -0.69959888923E-02  0.72331730438E-01  0.73448086780E-01  0.51100000000E-03 0. -1.
         11    1    4    4    0    0  0.26860858465E-01  0.30545475527E-01  0.51712309107E-01  0.65794800910E-01  0.51100000000E-03 0.  1.
</event>
<event>
 8    1  0.2077555E+004  0.1043930E+01  0.7957747E-01            NaN
         13   -1    0    0    0    0  0.00000000000E+00  0.00000000000E+00  0.74505805969E-08  0.10566000000E+00  0.10566000000E+00 0. -1.
     999900   -1    0    0    0    0 -0.00000000000E+00 -0.00000000000E+00 -0.74505805969E-08  0.93827000000E+00  0.93827000000E+00 0. -1.
     999902    2    1    2    0    0  0.85567218629E-02 -0.94384460728E-02  0.31045692862E-02  0.10308174067E+01  0.10307340034E+01 0.  0.
     999903    2    3    3    0    0  0.11367736662E+00  0.41119120636E-01 -0.54127925757E-01  0.14127708943E+00  0.49153411782E-01 0.  0.
         14    1    1    2    0    0 -0.85567218629E-02  0.94384460728E-02 -0.31045692862E-02  0.13112593327E-01  0.00000000000E+00 0.  1.
     999901    1    3    3    0    0 -0.10512064475E+00 -0.50557566708E-01  0.57232495043E-01  0.88954031724E+00  0.88000000000E+00 0.  1.
        -11    1    4    4    0    0  0.90464583257E-01  0.47569754299E-01 -0.28522847934E-01  0.10611567426E+00  0.51100000000E-03 0. -1.
         11    1    4    4    0    0  0.23212783358E-01 -0.64506336633E-02 -0.25605077822E-01  0.35161415176E-01  0.51100000000E-03 0.  1.
</event>
<event>
 8    1  0.2077555E+004  0.1043930E+01  0.7957747E-01            NaN
         13   -1    0    0    0    0  0.00000000000E+00  0.00000000000E+00  0.74505805969E-08  0.10566000000E+00  0.10566000000E+00 0.  1.
     999900   -1    0    0    0    0 -0.00000000000E+00 -0.00000000000E+00 -0.74505805969E-08  0.93827000000E+00  0.93827000000E+00 0.  1.
     999902    2    1    2    0    0  0.13161552440E-01  0.40705608169E-02 -0.25827343746E-02  0.10299133512E+01  0.10298179667E+01 0.  0.
     999903    2    3    3    0    0 -0.50738729976E-01  0.67051669927E-01 -0.10206286540E+00  0.13977506826E+00  0.45275777784E-01 0.  0.
         14    1    1    2    0    0 -0.13161552440E-01 -0.40705608169E-02  0.25827343746E-02  0.14016648845E-01  0.00000000000E+00 0.  1.
     999901    1    3    3    0    0  0.63900282417E-01 -0.62981109111E-01  0.99480131030E-01  0.89013828289E+00  0.88000000000E+00 0. -1.
        -11    1    4    4    0    0 -0.46923749291E-01  0.69887565207E-01 -0.76432710783E-01  0.11370281622E+00  0.51100000000E-03 0.  1.
         11    1    4    4    0    0 -0.38149806857E-02 -0.28358952790E-02 -0.25630154621E-01  0.26072252043E-01  0.51100000000E-03 0. -1.
</event>
<event>
 8    1  0.2077555E+004  0.1043930E+01  0.7957747E-01            NaN
         13   -1    0    0    0    0  0.00000000000E+00  0.00000000000E+00  0.74505805969E-08  0.10566000000E+00  0.10566000000E+00 0. -1.
     999900   -1    0    0    0    0 -0.00000000000E+00 -0.00000000000E+00 -0.74505805969E-08  0.93827000000E+00  0.93827000000E+00 0.  1.
     999902    2    1    2    0    0 -0.88063358321E-02 -0.10337118775E-01 -0.68662065535E-03  0.10303329774E+01  0.10302432554E+01 0.  0.
     999903    2    3    3    0    0 -0.91163580066E-02 -0.67023709054E-01 -0.11552900334E+00  0.14106235578E+00  0.44456181203E-01 0.  0.
         14    1    1    2    0    0  0.88063358321E-02  0.10337118775E-01  0.68662065535E-03  0.13597022589E-01  0.00000000000E+00 0.  1.
     999901    1    3    3    0    0  0.31002217452E-03  0.56686590279E-01  0.11484238269E+00  0.88927062163E+00  0.88000000000E+00 0. -1.
        -11    1    4    4    0    0 -0.29582328086E-02 -0.58511918038E-01 -0.57510777114E-01  0.82098394010E-01  0.51100000000E-03 0. -1.
         11    1    4    4    0    0 -0.61581251980E-02 -0.85117910159E-02 -0.58018226227E-01  0.58963961772E-01  0.51100000000E-03 0.  1.
</event>
<event>
 8    1  0.2077555E+004  0.1043930E+01  0.7957747E-01            NaN
         13   -1    0    0    0    0  0.00000000000E+00  0.00000000000E+00  0.74505805969E-08  0.10566000000E+00  0.10566000000E+00 0.  1.
     999900   -1    0    0    0    0 -0.00000000000E+00 -0.00000000000E+00 -0.74505805969E-08  0.93827000000E+00  0.93827000000E+00 0. -1.
     999902    2    1    2    0    0  0.14785608713E-01 -0.11040369386E-01  0.83816491373E-02  0.10236628832E+01  0.10234622330E+01 0.  0.
     999903    2    3    3    0    0 -0.12352843566E+00 -0.14998617301E-01  0.17254131452E-01  0.13280646181E+00  0.43076888333E-01 0.  0.
         14    1    1    2    0    0 -0.14785608713E-01  0.11040369386E-01 -0.83816491373E-02  0.20267116801E-01  0.00000000000E+00 0. -1.
     999901    1    3    3    0    0  0.13831404437E+00  0.39582479157E-02 -0.88724823151E-02  0.89085642139E+00  0.88000000000E+00 0. -1.
        -11    1    4    4    0    0 -0.75775676637E-01 -0.28515351085E-01  0.18922625725E-01  0.83146889916E-01  0.51100000000E-03 0. -1.
         11    1    4    4    0    0 -0.47752759019E-01  0.13516733784E-01 -0.16684942731E-02  0.49659571889E-01  0.51100000000E-03 0.  1.
</event>
<event>
 8    1  0.2077555E+004  0.1043930E+01  0.7957747E-01            NaN
         13   -1    0    0    0    0  0.00000000000E+00  0.00000000000E+00  0.74505805969E-08  0.10566000000E+00  0.10566000000E+00 0. -1.
     999900   -1    0    0    0    0 -0.00000000000E+00 -0.00000000000E+00 -0.74505805969E-08  0.93827000000E+00  0.93827000000E+00 0. -1.
     999902    2    1    2    0    0 -0.11818140449E-01  0.47139362331E-02 -0.64157062921E-02  0.10296804061E+01  0.10295818024E+01 0.  0.
     999903    2    3    3    0    0  0.75093711903E-01 -0.72076146374E-01  0.78622981882E-01  0.13800671841E+00  0.45058235691E-01 0.  0.
         14    1    1    2    0    0  0.11818140449E-01 -0.47139362331E-02  0.64157062921E-02  0.14249593878E-01  0.00000000000E+00 0. -1.
     999901    1    3    3    0    0 -0.86911852351E-01  0.76790082607E-01 -0.85038688174E-01  0.89167368771E+00  0.88000000000E+00 0. -1.
        -11    1    4    4    0    0  0.25206799300E-01 -0.39716809751E-01  0.58847011137E-01  0.75339495276E-01  0.51100000000E-03 0. -1.
         11    1    4    4    0    0  0.49886912603E-01 -0.32359336623E-01  0.19775970745E-01  0.62667223136E-01  0.51100000000E-03 0.  1.
</event>
<event>
 8    1  0.2077555E+004  0.1043930E+01  0.7957747E-01            NaN
         13   -1    0    0    0    0  0.00000000000E+00  0.00000000000E+00  0.74505805969E-08  0.10566000000E+00  0.10566000000E+00 0. -1.
     999900   -1    0    0    0    0 -0.00000000000E+00 -0.00000000000E+00 -0.74505805969E-08  0.93827000000E+00  0.93827000000E+00 0.  1.
     999902    2    1    2    0    0  0.47043762220E-03  0.10135913930E-01 -0.46117633205E-02  0.10327843092E+01  0.10327241659E+01 0.  0.
     999903    2    3    3    0    0  0.51209201848E-01  0.46719311476E-01 -0.11707291872E+00  0.14342483257E+00  0.45382131754E-01 0.  0.
         14    1    1    2    0    0 -0.47043762220E-03 -0.10135913930E-01  0.46117633205E-02  0.11145690812E-01  0.00000000000E+00 0. -1.
     999901    1    3    3    0    0 -0.50738764226E-01 -0.36583397546E-01  0.11246115540E+00  0.88935947661E+00  0.88000000000E+00 0. -1.
        -11    1    4    4    0    0  0.33931883297E-01  0.99000244534E-03 -0.49363925478E-01  0.59911693921E-01  0.51100000000E-03 0.  1.
         11    1    4    4    0    0  0.17277318551E-01  0.45729309030E-01 -0.67708993241E-01  0.83513138652E-01  0.51100000000E-03 0. -1.
</event>
<event>
 8    1  0.2077555E+004  0.1043930E+01  0.7957747E-01            NaN
         13   -1    0    0    0    0  0.00000000000E+00  0.00000000000E+00  0.74505805969E-08  0.10566000000E+00  0.10566000000E+00 0. -1.
     999900   -1    0    0    0    0 -0.00000000000E+00 -0.00000000000E+00 -0.74505805969E-08  0.93827000000E+00  0.93827000000E+00 0.  1.
     999902    2    1    2    0    0 -0.21271977883E-02  0.13076428734E-01  0.29275910514E-02  0.10303620691E+01  0.10302727332E+01 0.  0.
     999903    2    3    3    0    0  0.47235695260E-01  0.10494388271E+00  0.69861640820E-01  0.14167962228E+00  0.44136573130E-01 0.  0.
         14    1    1    2    0    0  0.21271977883E-02 -0.13076428734E-01 -0.29275910514E-02  0.13567930875E-01  0.00000000000E+00 0. -1.
     999901    1    3    3    0    0 -0.49362893049E-01 -0.91867453971E-01 -0.66934049768E-01  0.88868244684E+00  0.88000000000E+00 0.  1.
        -11    1    4    4    0    0  0.28985412107E-01  0.38760473022E-01  0.51362584959E-01  0.70575524359E-01  0.51100000000E-03 0.  1.
         11    1    4    4    0    0  0.18250283154E-01  0.66183409684E-01  0.18499055861E-01  0.71104097922E-01  0.51100000000E-03 0. -1.
</event>
<event>
 8    1  0.2077555E+004  0.1043930E+01  0.7957747E-01            NaN
         13   -1    0    0    0    0  0.00000000000E+00  0.00000000000E+00  0.74505805969E-08  0.10566000000E+00  0.10566000000E+00 0. -1.
     999900   -1    0    0    0    0 -0.00000000000E+00 -0.00000000000E+00 -0.74505805969E-08  0.93827000000E+00  0.93827000000E+00 0. -1.
     999902    2    1    2    0    0 -0.13416122212E-01  0.30443529267E-02  0.79234443525E-03  0.10301500062E+01  0.10300578367E+01 0.  0.
     999903    2    3    3    0    0  0.32472055927E-02 -0.13094831506E+00 -0.19516882981E-01  0.13961973365E+00  0.44212619716E-01 0.  0.
         14    1    1    2    0    0  0.13416122212E-01 -0.30443529267E-02 -0.79234443525E-03  0.13779993819E-01  0.00000000000E+00 0. -1.
     999901    1    3    3    0    0 -0.16663327804E-01  0.13399266799E+00  0.20309227416E-01  0.89053027253E+00  0.88000000000E+00 0.  1.
        -11    1    4    4    0    0  0.22977765931E-01 -0.56154719592E-01 -0.12480546055E-01  0.61946391424E-01  0.51100000000E-03 0. -1.
         11    1    4    4    0    0 -0.19730560338E-01 -0.74793595472E-01 -0.70363369254E-02  0.77673342230E-01  0.51100000000E-03 0.  1.
</event>
<event>
 8    1  0.2077555E+004  0.1043930E+01  0.7957747E-01            NaN
         13   -1    0    0    0    0  0.00000000000E+00  0.00000000000E+00  0.74505805969E-08  0.10566000000E+00  0.10566000000E+00 0. -1.
     999900   -1    0    0    0    0 -0.00000000000E+00 -0.00000000000E+00 -0.74505805969E-08  0.93827000000E+00  0.93827000000E+00 0. -1.
     999902    2    1    2    0    0 -0.21463646167E-01  0.22902002895E-02 -0.61657111943E-02  0.10214811889E+01  0.10212344835E+01 0.  0.
     999903    2    3    3    0    0 -0.89501446470E-01  0.26572191297E-01 -0.86383271470E-01  0.13488454200E+00  0.44890754181E-01 0.  0.
         14    1    1    2    0    0  0.21463646167E-01 -0.22902002895E-02  0.61657111943E-02  0.22448811075E-01  0.00000000000E+00 0. -1.
     999901    1    3    3    0    0  0.68037800302E-01 -0.24281991007E-01  0.80217560275E-01  0.88659664692E+00  0.88000000000E+00 0.  1.
        -11    1    4    4    0    0 -0.77682385538E-01  0.76543731566E-02 -0.79778083436E-01  0.11161516998E+00  0.51100000000E-03 0. -1.
         11    1    4    4    0    0 -0.11819060931E-01  0.18917818140E-01 -0.66051880340E-02  0.23269372025E-01  0.51100000000E-03 0.  1.
</event>
<event>
 8    1  0.2077555E+004  0.1043930E+01  0.7957747E-01            NaN
         13   -1    0    0    0    0  0.00000000000E+00  0.00000000000E+00  0.74505805969E-08  0.10566000000E+00  0.10566000000E+00 0. -1.
     999900   -1    0    0    0    0 -0.00000000000E+00 -0.00000000000E+00 -0.74505805969E-08  0.93827000000E+00  0.93827000000E+00 0. -1.
     999902    2    1    2    0    0 -0.11345446271E-02 -0.15934798884E-01 -0.12657766243E-01  0.10235480459E+01  0.10233450924E+01 0.  0.
     999903    2    3    3    0    0 -0.32114160287E-01  0.48955231932E-01 -0.11306651036E+00  0.13492418363E+00  0.44638162360E-01 0.  0.
         14    1    1    2    0    0  0.11345446271E-02  0.15934798884E-01  0.12657766243E-01  0.20381954108E-01  0.00000000000E+00 0. -1.
     999901    1    3    3    0    0  0.30979615660E-01 -0.64890030816E-01  0.10040874412E+00  0.88862386226E+00  0.88000000000E+00 0.  1.
        -11    1    4    4    0    0 -0.24788110359E-01  0.38813149762E-02 -0.23469797639E-01  0.34359970071E-01  0.51100000000E-03 0.  1.
         11    1    4    4    0    0 -0.73260499283E-02  0.45073916956E-01 -0.89596712722E-01  0.10056421356E+00  0.51100000000E-03 0. -1.
</event>
<event>
 8    1  0.2077555E+004  0.1043930E+01  0.7957747E-01            NaN
         13   -1    0    0    0    0  0.00000000000E+00  0.00000000000E+00  0.74505805969E-08  0.10566000000E+00  0.10566000000E+00 0. -1.
     999900   -1    0    0    0    0 -0.00000000000E+00 -0.00000000000E+00 -0.74505805969E-08  0.93827000000E+00  0.93827000000E+00 0.  1.
     999902    2    1    2    0    0  0.73548122563E-02  0.53592894538E-02 -0.11886998520E-01  0.10289594963E+01  0.10288505864E+01 0.  0.
     999903    2    3    3    0    0 -0.89112700168E-01  0.55858092396E-01 -0.80467256681E-01  0.13960053512E+00  0.44182917402E-01 0.  0.
         14    1    1    2    0    0 -0.73548122563E-02 -0.53592894538E-02  0.11886998520E-01  0.14970503685E-01  0.00000000000E+00 0. -1.
     999901    1    3    3    0    0  0.96467512424E-01 -0.50498802942E-01  0.68580258160E-01  0.88935896120E+00  0.88000000000E+00 0.  1.
        -11    1    4    4    0    0  0.39751921953E-02  0.89993703169E-02 -0.65296960987E-02  0.11819004663E-01  0.51100000000E-03 0. -1.
         11    1    4    4    0    0 -0.93087892363E-01  0.46858722079E-01 -0.73937560582E-01  0.12778153045E+00  0.51100000000E-03 0.  1.
</event>
<event>
 7    1  0.2077555E+004  0.1043930E+01  0.7957747E-01            NaN
         13   -1    0    0    0    0  0.00000000000E+00  0.00000000000E+00  0.74505805969E-08  0.10566000000E+00  0.10566000000E+00 0. -1.
     999900   -1    0    0    0    0 -0.00000000000E+00 -0.00000000000E+00 -0.74505805969E-08  0.93827000000E+00  0.93827000000E+00 0.  1.
     999902    2    1    2    0    0 -0.10284959913E-01  0.69493467252E-02  0.68397530048E-02  0.10297576311E+01  0.10296601006E+01 0.  0.
         14    1    1    2    0    0  0.10284959913E-01 -0.69493467252E-02 -0.68397530048E-02  0.14172368944E-01  0.00000000000E+00 0.  1.
     999901    1    3    3    0    0 -0.12021518037E+00  0.12076782106E-02 -0.73599401735E-01  0.89121827855E+00  0.88000000000E+00 0.  1.
        -11    1    3    3    0    0  0.88453330195E-01 -0.53145295582E-02  0.64255769497E-01  0.10945912882E+00  0.51100000000E-03 0. -1.
         11    1    3    3    0    0  0.21476890260E-01  0.11056198073E-01  0.16183385243E-01  0.29080223692E-01  0.51100000000E-03 0.  1.
</event>
<event>
 8    1  0.2077555E+004  0.1043930E+01  0.7957747E-01            NaN
         13   -1    0    0    0    0  0.00000000000E+00  0.00000000000E+00  0.74505805969E-08  0.10566000000E+00  0.10566000000E+00 0.  1.
     999900   -1    0    0    0    0 -0.00000000000E+00 -0.00000000000E+00 -0.74505805969E-08  0.93827000000E+00  0.93827000000E+00 0. -1.
     999902    2    1    2    0    0 -0.13533583031E-01 -0.78352564373E-02  0.44384380680E-04  0.10282918709E+01  0.10281729527E+01 0.  0.
     999903    2    3    3    0    0 -0.38395507203E-01 -0.11471421269E+00 -0.53947155461E-01  0.13983460518E+00  0.44831413721E-01 0.  0.
         14    1    1    2    0    0  0.13533583031E-01  0.78352564373E-02 -0.44384380680E-04  0.15638129142E-01  0.00000000000E+00 0.  1.
     999901    1    3    3    0    0  0.24861924172E-01  0.10687895625E+00  0.53991539841E-01  0.88845726568E+00  0.88000000000E+00 0.  1.
        -11    1    4    4    0    0 -0.20869673835E-02 -0.54230956185E-01 -0.41213683129E-01  0.68148226973E-01  0.51100000000E-03 0.  1.
         11    1    4    4    0    0 -0.36308539820E-01 -0.60483256507E-01 -0.12733472332E-01  0.71686378205E-01  0.51100000000E-03 0. -1.
</event>
<event>
 8    1  0.2077555E+004  0.1043930E+01  0.7957747E-01            NaN
         13   -1    0    0    0    0  0.00000000000E+00  0.00000000000E+00  0.74505805969E-08  0.10566000000E+00  0.10566000000E+00 0.  1.
     999900   -1    0    0    0    0 -0.00000000000E+00 -0.00000000000E+00 -0.74505805969E-08  0.93827000000E+00  0.93827000000E+00 0. -1.
     999902    2    1    2    0    0  0.26042855627E-02 -0.31892425219E-02 -0.13230134817E-01  0.10300739530E+01  0.10299807564E+01 0.  0.
     999903    2    3    3    0    0  0.29184277318E-01  0.45067593723E-01 -0.12285523254E+00  0.14156234348E+00  0.45427732524E-01 0.  0.
         14    1    1    2    0    0 -0.26042855627E-02  0.31892425219E-02  0.13230134817E-01  0.13856046999E-01  0.00000000000E+00 0.  1.
     999901    1    3    3    0    0 -0.26579991755E-01 -0.48256836245E-01  0.10962509772E+00  0.88851160952E+00  0.88000000000E+00 0.  1.
        -11    1    4    4    0    0  0.32729904635E-02  0.27899522117E-01 -0.97436535208E-01  0.10140628834E+00  0.51100000000E-03 0. -1.
         11    1    4    4    0    0  0.25911286854E-01  0.17168071606E-01 -0.25418697331E-01  0.40156055136E-01  0.51100000000E-03 0.  1.
</event>
<event>
 8    1  0.2077555E+004  0.1043930E+01  0.7957747E-01            NaN
         13   -1    0    0    0    0  0.00000000000E+00  0.00000000000E+00  0.74505805969E-08  0.10566000000E+00  0.10566000000E+00 0. -1.
     999900   -1    0    0    0    0 -0.00000000000E+00 -0.00000000000E+00 -0.74505805969E-08  0.93827000000E+00  0.93827000000E+00 0.  1.
     999902    2    1    2    0    0  0.84525992310E-02  0.15379410098E-01  0.17683153565E-01  0.10190168186E+01  0.10187122312E+01 0.  0.
     999903    2    3    3    0    0 -0.11643318690E+00  0.26324096979E-01 -0.21123813786E-01  0.12928527116E+00  0.44931289063E-01 0.  0.
         14    1    1    2    0    0 -0.84525992310E-02 -0.15379410098E-01 -0.17683153565E-01  0.24913181425E-01  0.00000000000E+00 0.  1.
     999901    1    3    3    0    0  0.12488578613E+00 -0.10944686881E-01  0.38806967351E-01  0.88973154741E+00  0.88000000000E+00 0.  1.
        -11    1    4    4    0    0 -0.35326677535E-01  0.25131998624E-01  0.59630681927E-02  0.43765406474E-01  0.51100000000E-03 0. -1.
         11    1    4    4    0    0 -0.81106509365E-01  0.11920983544E-02 -0.27086881978E-01  0.85519864687E-01  0.51100000000E-03 0.  1.
</event>
<event>
 8    1  0.2077555E+004  0.1043930E+01  0.7957747E-01            NaN
         13   -1    0    0    0    0  0.00000000000E+00  0.00000000000E+00  0.74505805969E-08  0.10566000000E+00  0.10566000000E+00 0.  1.
     999900   -1    0    0    0    0 -0.00000000000E+00 -0.00000000000E+00 -0.74505805969E-08  0.93827000000E+00  0.93827000000E+00 0. -1.
     999902    2    1    2    0    0 -0.63848186422E-02 -0.13146298927E-01  0.13555598190E-02  0.10292525129E+01  0.10291478546E+01 0.  0.
     999903    2    3    3    0    0  0.59223849288E-01 -0.78899855821E-01  0.89710145099E-01  0.13996371827E+00  0.42535640641E-01 0.  0.
         14    1    1    2    0    0  0.63848186422E-02  0.13146298927E-01 -0.13555598190E-02  0.14677487081E-01  0.00000000000E+00 0. -1.
     999901    1    3    3    0    0 -0.65608667930E-01  0.65753556894E-01 -0.88354585280E-01  0.88928879465E+00  0.88000000000E+00 0. -1.
        -11    1    4    4    0    0  0.48390689681E-01 -0.33988553024E-01  0.36498680844E-01  0.69493132098E-01  0.51100000000E-03 0. -1.
         11    1    4    4    0    0  0.10833159607E-01 -0.44911302797E-01  0.53211464255E-01  0.70470586170E-01  0.51100000000E-03 0.  1.
</event>
<event>
 8    1  0.2077555E+004  0.1043930E+01  0.7957747E-01            NaN
         13   -1    0    0    0    0  0.00000000000E+00  0.00000000000E+00  0.74505805969E-08  0.10566000000E+00  0.10566000000E+00 0.  1.
     999900   -1    0    0    0    0 -0.00000000000E+00 -0.00000000000E+00 -0.74505805969E-08  0.93827000000E+00  0.93827000000E+00 0. -1.
     999902    2    1    2    0    0  0.61679190798E-02  0.55339422286E-02 -0.72053330526E-02  0.10329488996E+01  0.10328905288E+01 0.  0.
     999903    2    3    3    0    0  0.10879651042E+00 -0.44928320276E-01 -0.68353159206E-01  0.14344447330E+00  0.45265084845E-01 0.  0.
         14    1    1    2    0    0 -0.61679190798E-02 -0.55339422286E-02  0.72053330526E-02  0.10981100435E-01  0.00000000000E+00 0. -1.
     999901    1    3    3    0    0 -0.10262859134E+00  0.50462262505E-01  0.61147826154E-01  0.88950442626E+00  0.88000000000E+00 0.  1.
        -11    1    4    4    0    0  0.59562898282E-01 -0.23129501116E-01 -0.62328158548E-01  0.89262383693E-01  0.51100000000E-03 0.  1.
         11    1    4    4    0    0  0.49233612134E-01 -0.21798819160E-01 -0.60250006588E-02  0.54182089609E-01  0.51100000000E-03 0. -1.
</event>
<event>
 8    1  0.2077555E+004  0.1043930E+01  0.7957747E-01            NaN
         13   -1    0    0    0    0  0.00000000000E+00  0.00000000000E+00  0.74505805969E-08  0.10566000000E+00  0.10566000000E+00 0.  1.
     999900   -1    0    0    0    0 -0.00000000000E+00 -0.00000000000E+00 -0.74505805969E-08  0.93827000000E+00  0.93827000000E+00 0. -1.
     999902    2    1    2    0    0  0.74347401874E-02 -0.10588340469E-01  0.42416966424E-02  0.10303145563E+01  0.10302245895E+01 0.  0.
     999903    2    3    3    0    0  0.12178847093E+00 -0.57369530951E-01  0.24775845295E-02  0.14168169199E+00  0.44089326217E-01 0.  0.
         14    1    1    2    0    0 -0.74347401874E-02  0.10588340469E-01 -0.42416966424E-02  0.13615443656E-01  0.00000000000E+00 0. -1.
     999901    1    3    3    0    0 -0.11435373075E+00  0.46781190482E-01  0.17641121129E-02  0.88863286435E+00  0.88000000000E+00 0.  1.
        -11    1    4    4    0    0  0.80890264216E-01 -0.55986172528E-01  0.13500027131E-01  0.99298530769E-01  0.51100000000E-03 0. -1.
         11    1    4    4    0    0  0.40898206717E-01 -0.13833584226E-02 -0.11022442601E-01  0.42383161221E-01  0.51100000000E-03 0.  1.
</event>
<event>
 8    1  0.2077555E+004  0.1043930E+01  0.7957747E-01            NaN
         13   -1    0    0    0    0  0.00000000000E+00  0.00000000000E+00  0.74505805969E-08  0.10566000000E+00  0.10566000000E+00 0.  1.
     999900   -1    0    0    0    0 -0.00000000000E+00 -0.00000000000E+00 -0.74505805969E-08  0.93827000000E+00  0.93827000000E+00 0.  1.
     999902    2    1    2    0    0 -0.11258286351E-01  0.54175201450E-02 -0.57003996000E-02  0.10301970800E+01  0.10301055434E+01 0.  0.
     999903    2    3    3    0    0  0.28101222064E-01 -0.10261821838E+00  0.77062456671E-01  0.13886628727E+00  0.45000512064E-01 0.  0.
         14    1    1    2    0    0  0.11258286351E-01 -0.54175201450E-02  0.57003996000E-02  0.13732919999E-01  0.00000000000E+00 0. -1.
     999901    1    3    3    0    0 -0.39359508416E-01  0.10803573852E+00 -0.82762856271E-01  0.89133079274E+00  0.88000000000E+00 0. -1.
        -11    1    4    4    0    0  0.74825946149E-02 -0.50141273970E-02 -0.44317560751E-02  0.10051481415E-01  0.51100000000E-03 0.  1.
         11    1    4    4    0    0  0.20618627449E-01 -0.97604090982E-01  0.81494212746E-01  0.12881480585E+00  0.51100000000E-03 0. -1.
</event>
<event>
 8    1  0.2077555E+004  0.1043930E+01  0.7957747E-01            NaN
         13   -1    0    0    0    0  0.00000000000E+00  0.00000000000E+00  0.74505805969E-08  0.10566000000E+00  0.10566000000E+00 0. -1.
     999900   -1    0    0    0    0 -0.00000000000E+00 -0.00000000000E+00 -0.74505805969E-08  0.93827000000E+00  0.93827000000E+00 0.  1.
     999902    2    1    2    0    0  0.13400942532E-02  0.72796847259E-02  0.10812851197E-01  0.10308262825E+01  0.10307429928E+01 0.  0.
     999903    2    3    3    0    0 -0.59052535972E-01 -0.70697878630E-02 -0.11803956107E+00  0.13927924428E+00  0.43911114794E-01 0.  0.
         14    1    1    2    0    0 -0.13400942532E-02 -0.72796847259E-02 -0.10812851197E-01  0.13103717539E-01  0.00000000000E+00 0.  1.
     999901    1    3    3    0    0  0.60392630225E-01  0.14349472589E-01  0.12885241227E+00  0.89154703819E+00  0.88000000000E+00 0. -1.
        -11    1    4    4    0    0 -0.29782677971E-01  0.17294786727E-01 -0.42706977415E-01  0.54865878249E-01  0.51100000000E-03 0. -1.
         11    1    4    4    0    0 -0.29269858000E-01 -0.24364574590E-01 -0.75332583658E-01  0.84413366027E-01  0.51100000000E-03 0.  1.
</event>
<event>
 8    1  0.2077555E+004  0.1043930E+01  0.7957747E-01            NaN
         13   -1    0    0    0    0  0.00000000000E+00  0.00000000000E+00  0.74505805969E-08  0.10566000000E+00  0.10566000000E+00 0.  1.
     999900   -1    0    0    0    0 -0.00000000000E+00 -0.00000000000E+00 -0.74505805969E-08  0.93827000000E+00  0.93827000000E+00 0.  1.
     999902    2    1    2    0    0  0.99624658289E-02  0.59376520811E-02 -0.71073615237E-02  0.10303277566E+01  0.10302379652E+01 0.  0.
     999903    2    3    3    0    0  0.40609172341E-01  0.79173352048E-01 -0.10089946591E+00  0.14178982988E+00  0.44789832372E-01 0.  0.
         14    1    1    2    0    0 -0.99624658289E-02 -0.59376520811E-02  0.71073615237E-02  0.13602243398E-01  0.00000000000E+00 0. -1.
     999901    1    3    3    0    0 -0.30646706512E-01 -0.73235699967E-01  0.93792104391E-01  0.88853792672E+00  0.88000000000E+00 0. -1.
        -11    1    4    4    0    0  0.24211533251E-01  0.85479211744E-02 -0.37642924816E-01  0.45568807407E-01  0.51100000000E-03 0. -1.
         11    1    4    4    0    0  0.16397639090E-01  0.70625430874E-01 -0.63256541099E-01  0.96221022478E-01  0.51100000000E-03 0.  1.
</event>
<event>
 8    1  0.2077555E+004  0.1043930E+01  0.7957747E-01            NaN
         13   -1    0    0    0    0  0.00000000000E+00  0.00000000000E+00  0.74505805969E-08  0.10566000000E+00  0.10566000000E+00 0.  1.
     999900   -1    0    0    0    0 -0.00000000000E+00 -0.00000000000E+00 -0.74505805969E-08  0.93827000000E+00  0.93827000000E+00 0. -1.
     999902    2    1    2    0    0 -0.15638571378E-02  0.12732764769E-01 -0.95651991715E-03  0.10310659463E+01  0.10309856942E+01 0.  0.
     999903    2    3    3    0    0 -0.12957632416E+00  0.16528053715E-01 -0.33112074846E-01  0.14121451169E+00  0.42212894575E-01 0.  0.
         14    1    1    2    0    0  0.15638571378E-02 -0.12732764769E-01  0.95651991715E-03  0.12864053722E-01  0.00000000000E+00 0.  1.
     999901    1    3    3    0    0  0.12801246702E+00 -0.37952889460E-02  0.32155554929E-01  0.88985143459E+00  0.88000000000E+00 0.  1.
        -11    1    4    4    0    0 -0.68134090737E-01  0.10731684901E-01 -0.38964179991E-01  0.79220526536E-01  0.51100000000E-03 0.  1.
         11    1    4    4    0    0 -0.61442233421E-01  0.57963688144E-02  0.58521051442E-02  0.61993985151E-01  0.51100000000E-03 0. -1.
</event>
<event>
 8    1  0.2077555E+004  0.1043930E+01  0.7957747E-01            NaN
         13   -1    0    0    0    0  0.00000000000E+00  0.00000000000E+00  0.74505805969E-08  0.10566000000E+00  0.10566000000E+00 0. -1.
     999900   -1    0    0    0    0 -0.00000000000E+00 -0.00000000000E+00 -0.74505805969E-08  0.93827000000E+00  0.93827000000E+00 0. -1.
     999902    2    1    2    0    0  0.50888346823E-02 -0.54460171963E-02 -0.11073073199E-01  0.10305820304E+01  0.10304955862E+01 0.  0.
     999903    2    3    3    0    0 -0.29961079051E-02 -0.32135797192E-01 -0.13071539204E+00  0.14204840973E+00  0.45271965575E-01 0.  0.
         14    1    1    2    0    0 -0.50888346823E-02  0.54460171963E-02  0.11073073199E-01  0.13347969576E-01  0.00000000000E+00 0. -1.
     999901    1    3    3    0    0  0.80849425874E-02  0.26689779996E-01  0.11964231884E+00  0.88853362070E+00  0.88000000000E+00 0.  1.
        -11    1    4    4    0    0  0.18686642070E-01 -0.20446421608E-01 -0.92664835922E-01  0.96717525226E-01  0.51100000000E-03 0. -1.
         11    1    4    4    0    0 -0.21682749975E-01 -0.11689375584E-01 -0.38050556114E-01  0.45330884500E-01  0.51100000000E-03 0.  1.
</event>
<event>
 8    1  0.2077555E+004  0.1043930E+01  0.7957747E-01            NaN
         13   -1    0    0    0    0  0.00000000000E+00  0.00000000000E+00  0.74505805969E-08  0.10566000000E+00  0.10566000000E+00 0.  1.
     999900   -1    0    0    0    0 -0.00000000000E+00 -0.00000000000E+00 -0.74505805969E-08  0.93827000000E+00  0.93827000000E+00 0. -1.
     999902    2    1    2    0    0 -0.78504426524E-02  0.42403898715E-02 -0.10493426015E-01  0.10301560265E+01  0.10300639381E+01 0.  0.
     999903    2    3    3    0    0 -0.76245338451E-01 -0.93260438377E-01 -0.57413931900E-01  0.14089464359E+00  0.45211503128E-01 0.  0.
         14    1    1    2    0    0  0.78504426524E-02 -0.42403898715E-02  0.10493426015E-01  0.13773973487E-01  0.00000000000E+00 0.  1.
     999901    1    3    3    0    0  0.68394895799E-01  0.97500828248E-01  0.46920505885E-01  0.88926138292E+00  0.88000000000E+00 0.  1.
        -11    1    4    4    0    0 -0.11043619496E-01 -0.76174380597E-02 -0.25174617638E-01  0.28530849766E-01  0.51100000000E-03 0. -1.
         11    1    4    4    0    0 -0.65201718955E-01 -0.85643000317E-01 -0.32239314263E-01  0.11236379383E+00  0.51100000000E-03 0.  1.
</event>
<event>
 8    1  0.2077555E+004  0.1043930E+01  0.7957747E-01            NaN
         13   -1    0    0    0    0  0.00000000000E+00  0.00000000000E+00  0.74505805969E-08  0.10566000000E+00  0.10566000000E+00 0. -1.
     999900   -1    0    0    0    0 -0.00000000000E+00 -0.00000000000E+00 -0.74505805969E-08  0.93827000000E+00  0.93827000000E+00 0.  1.
     999902    2    1    2    0    0 -0.10417615738E-01 -0.64299171341E-02  0.59297634176E-02  0.10303273294E+01  0.10302375324E+01 0.  0.
     999903    2    3    3    0    0  0.11300768020E+00  0.35464472729E-01  0.57831711902E-01  0.13921411788E+00  0.44806239572E-01 0.  0.
         14    1    1    2    0    0  0.10417615738E-01  0.64299171341E-02 -0.59297634176E-02  0.13602670554E-01  0.00000000000E+00 0. -1.
     999901    1    3    3    0    0 -0.12342529594E+00 -0.41894389863E-01 -0.51901948484E-01  0.89111321157E+00  0.88000000000E+00 0.  1.
        -11    1    4    4    0    0  0.42960633185E-01  0.71139509539E-02 -0.81816722293E-03  0.43556340761E-01  0.51100000000E-03 0. -1.
         11    1    4    4    0    0  0.70047047013E-01  0.28350521775E-01  0.58649879125E-01  0.95657777115E-01  0.51100000000E-03 0.  1.
</event>
<event>
 8    1  0.2077555E+004  0.1043930E+01  0.7957747E-01            NaN
         13   -1    0    0    0    0  0.00000000000E+00  0.00000000000E+00  0.74505805969E-08  0.10566000000E+00  0.10566000000E+00 0. -1.
     999900   -1    0    0    0    0 -0.00000000000E+00 -0.00000000000E+00 -0.74505805969E-08  0.93827000000E+00  0.93827000000E+00 0. -1.
     999902    2    1    2    0    0  0.85953679452E-02 -0.10726325980E-01  0.26903748748E-04  0.10301846319E+01  0.10300929282E+01 0.  0.
     999903    2    3    3    0    0 -0.66223711950E-03 -0.43619430912E-01 -0.12591953645E+00  0.14056102311E+00  0.44705461034E-01 0.  0.
         14    1    1    2    0    0 -0.85953679452E-02  0.10726325980E-01 -0.26903748748E-04  0.13745368055E-01  0.00000000000E+00 0. -1.
     999901    1    3    3    0    0  0.92576050647E-02  0.32893104932E-01  0.12594644020E+00  0.88962360884E+00  0.88000000000E+00 0.  1.
        -11    1    4    4    0    0  0.73869009438E-02 -0.27615613199E-01 -0.24747118089E-01  0.37813613588E-01  0.51100000000E-03 0.  1.
         11    1    4    4    0    0 -0.80491380633E-02 -0.16003817714E-01 -0.10117241836E+00  0.10274740952E+00  0.51100000000E-03 0. -1.
</event>
<event>
 8    1  0.2077555E+004  0.1043930E+01  0.7957747E-01            NaN
         13   -1    0    0    0    0  0.00000000000E+00  0.00000000000E+00  0.74505805969E-08  0.10566000000E+00  0.10566000000E+00 0. -1.
     999900   -1    0    0    0    0 -0.00000000000E+00 -0.00000000000E+00 -0.74505805969E-08  0.93827000000E+00  0.93827000000E+00 0.  1.
     999902    2    1    2    0    0  0.13021182494E-03  0.10050519126E-01 -0.11950836368E-02  0.10338078404E+01  0.10337582855E+01 0.  0.
     999903    2    3    3    0    0  0.31149650013E-03  0.64189234671E-01 -0.12068611202E+00  0.14408364761E+00  0.45547831973E-01 0.  0.
         14    1    1    2    0    0 -0.13021182494E-03 -0.10050519126E-01  0.11950836368E-02  0.10122159587E-01  0.00000000000E+00 0. -1.
     999901    1    3    3    0    0 -0.18128467519E-03 -0.54138715546E-01  0.11949102838E+00  0.88972419280E+00  0.88000000000E+00 0. -1.
        -11    1    4    4    0    0 -0.16677688145E-01  0.57647054383E-01 -0.85446286072E-01  0.10441578944E+00  0.51100000000E-03 0.  1.
         11    1    4    4    0    0  0.16989184645E-01  0.65421802877E-02 -0.35239825950E-01  0.39667858170E-01  0.51100000000E-03 0. -1.
</event>
<event>
 8    1  0.2077555E+004  0.1043930E+01  0.7957747E-01            NaN
         13   -1    0    0    0    0  0.00000000000E+00  0.00000000000E+00  0.74505805969E-08  0.10566000000E+00  0.10566000000E+00 0. -1.
     999900   -1    0    0    0    0 -0.00000000000E+00 -0.00000000000E+00 -0.74505805969E-08  0.93827000000E+00  0.93827000000E+00 0. -1.
     999902    2    1    2    0    0 -0.10476241923E-01  0.39540245973E-02 -0.88088737359E-02  0.10296828174E+01  0.10295842473E+01 0.  0.
     999903    2    3    3    0    0 -0.11333306201E-01 -0.76658641669E-03 -0.13315475955E+00  0.14092811669E+00  0.44738267723E-01 0.  0.
         14    1    1    2    0    0  0.10476241923E-01 -0.39540245973E-02  0.88088737359E-02  0.14247182593E-01  0.00000000000E+00 0. -1.
     999901    1    3    3    0    0  0.85706427779E-03  0.47206110140E-02  0.12434588581E+00  0.88875470072E+00  0.88000000000E+00 0.  1.
        -11    1    4    4    0    0 -0.21564662549E-01  0.15743385024E-01 -0.74866616000E-01  0.79486855235E-01  0.51100000000E-03 0. -1.
         11    1    4    4    0    0  0.10231356348E-01 -0.16509971440E-01 -0.58288143550E-01  0.61441261455E-01  0.51100000000E-03 0.  1.
</event>
<event>
 8    1  0.2077555E+004  0.1043930E+01  0.7957747E-01            NaN
         13   -1    0    0    0    0  0.00000000000E+00  0.00000000000E+00  0.74505805969E-08  0.10566000000E+00  0.10566000000E+00 0. -1.
     999900   -1    0    0    0    0 -0.00000000000E+00 -0.00000000000E+00 -0.74505805969E-08  0.93827000000E+00  0.93827000000E+00 0.  1.
     999902    2    1    2    0    0 -0.11337906908E-01 -0.13802894341E-02 -0.73713938327E-02  0.10303362228E+01  0.10302465439E+01 0.  0.
     999903    2    3    3    0    0 -0.15681801314E-01  0.12576536308E+00 -0.40893805558E-01  0.14055611598E+00  0.44954120639E-01 0.  0.
         14    1    1    2    0    0  0.11337906908E-01  0.13802894341E-02  0.73713938327E-02  0.13593777217E-01  0.00000000000E+00 0. -1.
     999901    1    3    3    0    0  0.43438944057E-02 -0.12714565252E+00  0.33522411726E-01  0.88978010680E+00  0.88000000000E+00 0.  1.
        -11    1    4    4    0    0  0.93649555532E-02  0.24164072109E-01 -0.22466528174E-01  0.34301760634E-01  0.51100000000E-03 0. -1.
         11    1    4    4    0    0 -0.25046756867E-01  0.10160129098E+00 -0.18427277384E-01  0.10625435535E+00  0.51100000000E-03 0.  1.
</event>
<event>
 8    1  0.2077555E+004  0.1043930E+01  0.7957747E-01            NaN
         13   -1    0    0    0    0  0.00000000000E+00  0.00000000000E+00  0.74505805969E-08  0.10566000000E+00  0.10566000000E+00 0.  1.
     999900   -1    0    0    0    0 -0.00000000000E+00 -0.00000000000E+00 -0.74505805969E-08  0.93827000000E+00  0.93827000000E+00 0.  1.
     999902    2    1    2    0    0 -0.24379708077E-02  0.57565432848E-02 -0.12200537647E-01  0.10302210755E+01  0.10301298606E+01 0.  0.
     999903    2    3    3    0    0 -0.33717167747E-01  0.41159126701E-01 -0.12323402129E+00  0.14198677895E+00  0.46289310635E-01 0.  0.
         14    1    1    2    0    0  0.24379708077E-02 -0.57565432848E-02  0.12200537647E-01  0.13708924506E-01  0.00000000000E+00 0.  1.
     999901    1    3    3    0    0  0.31279196939E-01 -0.35402583416E-01  0.11103348365E+00  0.88823429655E+00  0.88000000000E+00 0. -1.
        -11    1    4    4    0    0  0.76051142287E-02  0.24849623996E-01 -0.49257156266E-01  0.55694435446E-01  0.51100000000E-03 0.  1.
         11    1    4    4    0    0 -0.41322281976E-01  0.16309502705E-01 -0.73976865028E-01  0.86292343499E-01  0.51100000000E-03 0. -1.
</event>
<event>
 8    1  0.2077555E+004  0.1043930E+01  0.7957747E-01            NaN
         13   -1    0    0    0    0  0.00000000000E+00  0.00000000000E+00  0.74505805969E-08  0.10566000000E+00  0.10566000000E+00 0. -1.
     999900   -1    0    0    0    0 -0.00000000000E+00 -0.00000000000E+00 -0.74505805969E-08  0.93827000000E+00  0.93827000000E+00 0.  1.
     999902    2    1    2    0    0  0.97519679985E-02  0.20376098827E-02 -0.54548541471E-02  0.10325718238E+01  0.10325093525E+01 0.  0.
     999903    2    3    3    0    0  0.96839071848E-01 -0.81320486747E-02 -0.95827100358E-01  0.14360909760E+00  0.44685609511E-01 0.  0.
         14    1    1    2    0    0 -0.97519679985E-02 -0.20376098827E-02  0.54548541471E-02  0.11358176246E-01  0.00000000000E+00 0. -1.
     999901    1    3    3    0    0 -0.87087103849E-01  0.10169658557E-01  0.90372246211E-01  0.88896272616E+00  0.88000000000E+00 0. -1.
        -11    1    4    4    0    0  0.52784950728E-01 -0.15757808903E-01 -0.77958559363E-01  0.95458669924E-01  0.51100000000E-03 0. -1.
         11    1    4    4    0    0  0.44054121120E-01  0.76257602282E-02 -0.17868540995E-01  0.48150427672E-01  0.51100000000E-03 0.  1.
</event>
<event>
 8    1  0.2077555E+004  0.1043930E+01  0.7957747E-01            NaN
         13   -1    0    0    0    0  0.00000000000E+00  0.00000000000E+00  0.74505805969E-08  0.10566000000E+00  0.10566000000E+00 0. -1.
     999900   -1    0    0    0    0 -0.00000000000E+00 -0.00000000000E+00 -0.74505805969E-08  0.93827000000E+00  0.93827000000E+00 0.  1.
     999902    2    1    2    0    0  0.86055057355E-02  0.98765442853E-02 -0.56905077651E-02  0.10296477476E+01  0.10295486882E+01 0.  0.
     999903    2    3    3    0    0  0.10438203381E+00 -0.80887220141E-01  0.88593218994E-02  0.13969106221E+00  0.44685052446E-01 0.  0.
         14    1    1    2    0    0 -0.86055057355E-02 -0.98765442853E-02  0.56905077651E-02  0.14282252435E-01  0.00000000000E+00 0.  1.
     999901    1    3    3    0    0 -0.95776528077E-01  0.90763764426E-01 -0.14549829664E-01  0.88995668535E+00  0.88000000000E+00 0.  1.
        -11    1    4    4    0    0  0.81208604881E-01 -0.38124657095E-01 -0.24722930131E-02  0.89747982367E-01  0.51100000000E-03 0. -1.
         11    1    4    4    0    0  0.23173428932E-01 -0.42762563046E-01  0.11331614912E-01  0.49943079844E-01  0.51100000000E-03 0.  1.
</event>
<event>
 7    1  0.2736337E+004  0.1043930E+01  0.7957747E-01            NaN
         13   -1    0    0    0    0  0.00000000000E+00  0.00000000000E+00  0.74505805969E-08  0.10566000000E+00  0.10566000000E+00 0.  1.
     999900   -1    0    0    0    0 -0.00000000000E+00 -0.00000000000E+00 -0.74505805969E-08  0.93827000000E+00  0.93827000000E+00 0.  1.
     999903    2    1    2    0    0 -0.10810247297E+00 -0.50632389657E-01  0.15262666632E-01  0.12817871517E+00  0.44125395013E-01 0.  0.
         14    1    1    2    0    0  0.26046588998E-01  0.17116878697E-01 -0.30848648873E-04  0.31167503692E-01  0.00000000000E+00 0. -1.
     999901    1    1    2    0    0  0.82055883975E-01  0.33515510960E-01 -0.15231817983E-01  0.88458378114E+00  0.88000000000E+00 0.  1.
        -11    1    3    3    0    0 -0.86092986251E-01 -0.56341246495E-01  0.44284564386E-02  0.10298645875E+00  0.51100000000E-03 0. -1.
         11    1    3    3    0    0 -0.22009486722E-01  0.57088568379E-02  0.10834210193E-01  0.25192256423E-01  0.51100000000E-03 0.  1.
</event>
<event>
 8    1  0.2077555E+004  0.1043930E+01  0.7957747E-01            NaN
         13   -1    0    0    0    0  0.00000000000E+00  0.00000000000E+00  0.74505805969E-08  0.10566000000E+00  0.10566000000E+00 0.  1.
     999900   -1    0    0    0    0 -0.00000000000E+00 -0.00000000000E+00 -0.74505805969E-08  0.93827000000E+00  0.93827000000E+00 0. -1.
     999902    2    1    2    0    0 -0.83900823957E-02  0.60018924168E-02  0.78815460891E-02  0.10309478983E+01  0.10308661572E+01 0.  0.
     999903    2    3    3    0    0  0.17265705965E-01  0.13265523195E+00  0.77988922446E-02  0.14151026998E+00  0.45484267864E-01 0.  0.
         14    1    1    2    0    0  0.83900823957E-02 -0.60018924168E-02 -0.78815460891E-02  0.12982101677E-01  0.00000000000E+00 0. -1.
     999901    1    3    3    0    0 -0.25655788360E-01 -0.12665333953E+00  0.82653844538E-04  0.88943762835E+00  0.88000000000E+00 0.  1.
        -11    1    4    4    0    0  0.27573336368E-01  0.12091641775E+00 -0.46423735720E-04  0.12402149909E+00  0.51100000000E-03 0.  1.
         11    1    4    4    0    0 -0.10307630403E-01  0.11738814191E-01  0.78453159803E-02  0.17488770882E-01  0.51100000000E-03 0. -1.
</event>
<event>
 8    1  0.2077555E+004  0.1043930E+01  0.7957747E-01            NaN
         13   -1    0    0    0    0  0.00000000000E+00  0.00000000000E+00  0.74505805969E-08  0.10566000000E+00  0.10566000000E+00 0. -1.
     999900   -1    0    0    0    0 -0.00000000000E+00 -0.00000000000E+00 -0.74505805969E-08  0.93827000000E+00  0.93827000000E+00 0. -1.
     999902    2    1    2    0    0  0.56556724289E-02  0.59375945897E-02 -0.12185181132E-01  0.10292425802E+01  0.10291377792E+01 0.  0.
     999903    2    3    3    0    0  0.43595728186E-01  0.10320739458E+00  0.69230818323E-01  0.13933841304E+00  0.45496519982E-01 0.  0.
         14    1    1    2    0    0 -0.56556724289E-02 -0.59375945897E-02  0.12185181132E-01  0.14687419765E-01  0.00000000000E+00 0. -1.
     999901    1    3    3    0    0 -0.37940055757E-01 -0.97269799993E-01 -0.81415999455E-01  0.88990416719E+00  0.88000000000E+00 0. -1.
        -11    1    4    4    0    0 -0.44552647879E-03  0.47243539749E-01  0.41590250524E-01  0.62945695655E-01  0.51100000000E-03 0.  1.
         11    1    4    4    0    0  0.44041254665E-01  0.55963854834E-01  0.27640567799E-01  0.76392717386E-01  0.51100000000E-03 0. -1.
</event>
<event>
 8    1  0.2077555E+004  0.1043930E+01  0.7957747E-01            NaN
         13   -1    0    0    0    0  0.00000000000E+00  0.00000000000E+00  0.74505805969E-08  0.10566000000E+00  0.10566000000E+00 0. -1.
     999900   -1    0    0    0    0 -0.00000000000E+00 -0.00000000000E+00 -0.74505805969E-08  0.93827000000E+00  0.93827000000E+00 0.  1.
     999902    2    1    2    0    0  0.75092828270E-02  0.13299040206E-01  0.28038843532E-02  0.10284021036E+01  0.10282848687E+01 0.  0.
     999903    2    3    3    0    0  0.58165235832E-01 -0.97579216073E-01 -0.63247542932E-01  0.13754700633E+00  0.44877936619E-01 0.  0.
         14    1    1    2    0    0 -0.75092828270E-02 -0.13299040206E-01 -0.28038843532E-02  0.15527896395E-01  0.00000000000E+00 0.  1.
     999901    1    3    3    0    0 -0.50655953005E-01  0.11087825628E+00  0.66051427285E-01  0.89085509727E+00  0.88000000000E+00 0. -1.
        -11    1    4    4    0    0  0.57877894435E-01 -0.10062807084E+00 -0.54458610852E-01  0.12822581925E+00  0.51100000000E-03 0. -1.
         11    1    4    4    0    0  0.28734139725E-03  0.30488547701E-02 -0.87889320799E-02  0.93211870807E-02  0.51100000000E-03 0.  1.
</event>
<event>
 8    1  0.2485537E+004  0.1043930E+01  0.7957747E-01            NaN
         13   -1    0    0    0    0  0.00000000000E+00  0.00000000000E+00  0.74505805969E-08  0.10566000000E+00  0.10566000000E+00 0.  1.
     999900   -1    0    0    0    0 -0.00000000000E+00 -0.00000000000E+00 -0.74505805969E-08  0.93827000000E+00  0.93827000000E+00 0.  1.
     999902    2    1    2    0    0  0.10142947776E-01  0.23191207241E-01 -0.15738437982E-02  0.10185688394E+01  0.10182530590E+01 0.  0.
     999903    2    3    3    0    0 -0.47818899789E-01  0.75222791619E-01 -0.85034613044E-01  0.13119487001E+00  0.45123086604E-01 0.  0.
         14    1    1    2    0    0 -0.10142947776E-01 -0.23191207241E-01  0.15738437982E-02  0.25361160604E-01  0.00000000000E+00 0.  1.
     999901    1    3    3    0    0  0.57961847565E-01 -0.52031584378E-01  0.83460769246E-01  0.88737396939E+00  0.88000000000E+00 0. -1.
        -11    1    4    4    0    0 -0.38219039312E-01  0.33163625465E-01 -0.22885859700E-01  0.55538677650E-01  0.51100000000E-03 0. -1.
         11    1    4    4    0    0 -0.95998604768E-02  0.42059166154E-01 -0.62148753344E-01  0.75656192357E-01  0.51100000000E-03 0.  1.
</event>
<event>
 8    1  0.2077555E+004  0.1043930E+01  0.7957747E-01            NaN
         13   -1    0    0    0    0  0.00000000000E+00  0.00000000000E+00  0.74505805969E-08  0.10566000000E+00  0.10566000000E+00 0. -1.
     999900   -1    0    0    0    0 -0.00000000000E+00 -0.00000000000E+00 -0.74505805969E-08  0.93827000000E+00  0.93827000000E+00 0. -1.
     999902    2    1    2    0    0  0.21360802583E-02  0.13795238859E-01 -0.11621580667E-02  0.10299220713E+01  0.10298268063E+01 0.  0.
     999903    2    3    3    0    0  0.70483388848E-01  0.93452863839E-01  0.64317495222E-01  0.14126900247E+00  0.46030913575E-01 0.  0.
         14    1    1    2    0    0 -0.21360802583E-02 -0.13795238859E-01  0.11621580667E-02  0.14007928663E-01  0.00000000000E+00 0. -1.
     999901    1    3    3    0    0 -0.68347308590E-01 -0.79657624980E-01 -0.65479653288E-01  0.88865306887E+00  0.88000000000E+00 0.  1.
        -11    1    4    4    0    0  0.28432684626E-01  0.12545915586E-01  0.26591433498E-02  0.31195347687E-01  0.51100000000E-03 0.  1.
         11    1    4    4    0    0  0.42050704222E-01  0.80906948253E-01  0.61658351872E-01  0.11007365478E+00  0.51100000000E-03 0. -1.
</event>
<event>
 8    1  0.2077555E+004  0.1043930E+01  0.7957747E-01            NaN
         13   -1    0    0    0    0  0.00000000000E+00  0.00000000000E+00  0.74505805969E-08  0.10566000000E+00  0.10566000000E+00 0.  1.
     999900   -1    0    0    0    0 -0.00000000000E+00 -0.00000000000E+00 -0.74505805969E-08  0.93827000000E+00  0.93827000000E+00 0.  1.
     999902    2    1    2    0    0 -0.15529175623E-02 -0.19333095392E-02  0.14574723823E-01  0.10291458256E+01  0.10290396292E+01 0.  0.
     999903    2    3    3    0    0  0.11487719722E+00  0.66087506769E-02  0.66685143269E-01  0.13990770548E+00  0.43437445755E-01 0.  0.
         14    1    1    2    0    0  0.15529175623E-02  0.19333095392E-02 -0.14574723823E-01  0.14784174419E-01  0.00000000000E+00 0.  1.
     999901    1    3    3    0    0 -0.11643011478E+00 -0.85420602161E-02 -0.52110419446E-01  0.88923812010E+00  0.88000000000E+00 0.  1.
        -11    1    4    4    0    0  0.29832299356E-01 -0.11186428531E-01  0.26549482979E-02  0.31975180056E-01  0.51100000000E-03 0.  1.
         11    1    4    4    0    0  0.85044897866E-01  0.17795179208E-01  0.64030194971E-01  0.10793252543E+00  0.51100000000E-03 0. -1.
</event>
<event>
 8    1  0.2077555E+004  0.1043930E+01  0.7957747E-01            NaN
         13   -1    0    0    0    0  0.00000000000E+00  0.00000000000E+00  0.74505805969E-08  0.10566000000E+00  0.10566000000E+00 0.  1.
     999900   -1    0    0    0    0 -0.00000000000E+00 -0.00000000000E+00 -0.74505805969E-08  0.93827000000E+00  0.93827000000E+00 0.  1.
     999902    2    1    2    0    0 -0.62256131173E-02  0.69007629387E-04  0.12479279047E-01  0.10299838383E+01  0.10298894172E+01 0.  0.
     999903    2    3    3    0    0  0.15460342557E-01  0.13105402985E+00 -0.92349298957E-02  0.13975978583E+00  0.45092492423E-01 0.  0.
         14    1    1    2    0    0  0.62256131173E-02 -0.69007629387E-04 -0.12479279047E-01  0.13946161704E-01  0.00000000000E+00 0. -1.
     999901    1    3    3    0    0 -0.21685955675E-01 -0.13098502222E+00  0.21714208943E-01  0.89022405247E+00  0.88000000000E+00 0.  1.
        -11    1    4    4    0    0  0.28320651384E-03  0.55915891160E-01 -0.25398812902E-01  0.61416837333E-01  0.51100000000E-03 0.  1.
         11    1    4    4    0    0  0.15177136043E-01  0.75138138691E-01  0.16163883006E-01  0.78342948497E-01  0.51100000000E-03 0. -1.
</event>
<event>
 8    1  0.2077555E+004  0.1043930E+01  0.7957747E-01            NaN
         13   -1    0    0    0    0  0.00000000000E+00  0.00000000000E+00  0.74505805969E-08  0.10566000000E+00  0.10566000000E+00 0. -1.
     999900   -1    0    0    0    0 -0.00000000000E+00 -0.00000000000E+00 -0.74505805969E-08  0.93827000000E+00  0.93827000000E+00 0. -1.
     999902    2    1    2    0    0  0.58982835639E-02 -0.94169359052E-02  0.82339324121E-02  0.10301001022E+01  0.10300072594E+01 0.  0.
     999903    2    3    3    0    0  0.84966133408E-01 -0.69187176264E-01  0.78066186570E-01  0.14178667200E+00  0.44755130269E-01 0.  0.
         14    1    1    2    0    0 -0.58982835639E-02  0.94169359052E-02 -0.82339324121E-02  0.13829897824E-01  0.00000000000E+00 0. -1.
     999901    1    3    3    0    0 -0.79067849845E-01  0.59770240359E-01 -0.69832254158E-01  0.88831343018E+00  0.88000000000E+00 0. -1.
        -11    1    4    4    0    0  0.24348972113E-01 -0.42638218322E-01  0.17652879492E-01  0.52180220199E-01  0.51100000000E-03 0.  1.
         11    1    4    4    0    0  0.60617161295E-01 -0.26548957942E-01  0.60413307077E-01  0.89606451801E-01  0.51100000000E-03 0. -1.
</event>
<event>
 8    1  0.2077555E+004  0.1043930E+01  0.7957747E-01            NaN
         13   -1    0    0    0    0  0.00000000000E+00  0.00000000000E+00  0.74505805969E-08  0.10566000000E+00  0.10566000000E+00 0. -1.
     999900   -1    0    0    0    0 -0.00000000000E+00 -0.00000000000E+00 -0.74505805969E-08  0.93827000000E+00  0.93827000000E+00 0.  1.
     999902    2    1    2    0    0 -0.91876175800E-02  0.29300482901E-02 -0.10055431001E-01  0.10299976925E+01  0.10299034602E+01 0.  0.
     999903    2    3    3    0    0 -0.88128212069E-01 -0.81961801310E-02  0.99154778341E-01  0.13967062886E+00  0.42923832158E-01 0.  0.
         14    1    1    2    0    0  0.91876175800E-02 -0.29300482901E-02  0.10055431001E-01  0.13932307505E-01  0.00000000000E+00 0. -1.
     999901    1    3    3    0    0  0.78940594489E-01  0.11126228421E-01 -0.10921020934E+00  0.89032706364E+00  0.88000000000E+00 0. -1.
        -11    1    4    4    0    0 -0.49436192998E-01 -0.14953117664E-01  0.81765160337E-01  0.96712643806E-01  0.51100000000E-03 0.  1.
         11    1    4    4    0    0 -0.38692019071E-01  0.67569375328E-02  0.17389618004E-01  0.42957985054E-01  0.51100000000E-03 0. -1.
</event>
<event>
 8    1  0.2077555E+004  0.1043930E+01  0.7957747E-01            NaN
         13   -1    0    0    0    0  0.00000000000E+00  0.00000000000E+00  0.74505805969E-08  0.10566000000E+00  0.10566000000E+00 0. -1.
     999900   -1    0    0    0    0 -0.00000000000E+00 -0.00000000000E+00 -0.74505805969E-08  0.93827000000E+00  0.93827000000E+00 0.  1.
     999902    2    1    2    0    0  0.58301234248E-02 -0.10310668149E-01 -0.26943515161E-02  0.10317825827E+01  0.10317110730E+01 0.  0.
     999903    2    3    3    0    0  0.13076520649E+00 -0.21468576140E-01  0.25682377254E-01  0.14243534308E+00  0.45473107067E-01 0.  0.
         14    1    1    2    0    0 -0.58301234248E-02  0.10310668149E-01  0.26943515161E-02  0.12147417294E-01  0.00000000000E+00 0. -1.
     999901    1    3    3    0    0 -0.12493508307E+00  0.11157907992E-01 -0.28376728770E-01  0.88934723962E+00  0.88000000000E+00 0.  1.
        -11    1    4    4    0    0  0.83197701093E-01 -0.35479998548E-01  0.14567528483E-01  0.91614200707E-01  0.51100000000E-03 0.  1.
         11    1    4    4    0    0  0.47567505401E-01  0.14011422408E-01  0.11114848771E-01  0.50821142374E-01  0.51100000000E-03 0. -1.
</event>
<event>
 8    1  0.2077555E+004  0.1043930E+01  0.7957747E-01            NaN
         13   -1    0    0    0    0  0.00000000000E+00  0.00000000000E+00  0.74505805969E-08  0.10566000000E+00  0.10566000000E+00 0. -1.
     999900   -1    0    0    0    0 -0.00000000000E+00 -0.00000000000E+00 -0.74505805969E-08  0.93827000000E+00  0.93827000000E+00 0.  1.
     999902    2    1    2    0    0 -0.54771024887E-02  0.14859609203E-02  0.18236180978E-01  0.10248311773E+01  0.10246531984E+01 0.  0.
     999903    2    3    3    0    0  0.91896011311E-01 -0.87641733993E-01 -0.22145843263E-02  0.13475056124E+00  0.45020650148E-01 0.  0.
         14    1    1    2    0    0  0.54771024887E-02 -0.14859609203E-02 -0.18236180978E-01  0.19098822691E-01  0.00000000000E+00 0.  1.
     999901    1    3    3    0    0 -0.97373113799E-01  0.89127694914E-01  0.20450765305E-01  0.89008061606E+00  0.88000000000E+00 0.  1.
        -11    1    4    4    0    0  0.27751838338E-01 -0.50194734021E-01  0.13279485646E-01  0.58875136642E-01  0.51100000000E-03 0.  1.
         11    1    4    4    0    0  0.64144172973E-01 -0.37446999972E-01 -0.15494069973E-01  0.75875424603E-01  0.51100000000E-03 0. -1.
</event>
<event>
 8    1  0.2077555E+004  0.1043930E+01  0.7957747E-01            NaN
         13   -1    0    0    0    0  0.00000000000E+00  0.00000000000E+00  0.74505805969E-08  0.10566000000E+00  0.10566000000E+00 0. -1.
     999900   -1    0    0    0    0 -0.00000000000E+00 -0.00000000000E+00 -0.74505805969E-08  0.93827000000E+00  0.93827000000E+00 0.  1.
     999902    2    1    2    0    0 -0.80375832327E-02  0.11899702608E-02 -0.11564635287E-01  0.10297963677E+01  0.10296993733E+01 0.  0.
     999903    2    3    3    0    0 -0.11165656754E+00 -0.12848924249E-01  0.70546504125E-01  0.13980972525E+00  0.44018928894E-01 0.  0.
         14    1    1    2    0    0  0.80375832327E-02 -0.11899702608E-02  0.11564635287E-01  0.14133632327E-01  0.00000000000E+00 0. -1.
     999901    1    3    3    0    0  0.10361898431E+00  0.14038894510E-01 -0.82111139412E-01  0.88998664242E+00  0.88000000000E+00 0.  1.
        -11    1    4    4    0    0 -0.99876032269E-01 -0.19855544903E-01  0.46105544020E-01  0.11178303447E+00  0.51100000000E-03 0. -1.
         11    1    4    4    0    0 -0.11780535276E-01  0.70066206537E-02  0.24440960105E-01  0.28026690783E-01  0.51100000000E-03 0.  1.
</event>
<event>
 7    1  0.2077555E+004  0.1043930E+01  0.7957747E-01            NaN
         13   -1    0    0    0    0  0.00000000000E+00  0.00000000000E+00  0.74505805969E-08  0.10566000000E+00  0.10566000000E+00 0.  1.
     999900   -1    0    0    0    0 -0.00000000000E+00 -0.00000000000E+00 -0.74505805969E-08  0.93827000000E+00  0.93827000000E+00 0. -1.
     999903    2    1    2    0    0 -0.75951535916E-01 -0.50556642926E-01 -0.19340414587E-01  0.10365320008E+00  0.45225261739E-01 0.  0.
         14    1    1    2    0    0  0.22234771206E-01  0.28621358861E-01  0.45262642918E-01  0.57985119449E-01  0.00000000000E+00 0.  1.
     999901    1    1    2    0    0  0.53716764711E-01  0.21935284066E-01 -0.25922228331E-01  0.88229168047E+00  0.88000000000E+00 0. -1.
        -11    1    3    3    0    0 -0.12541373602E-01 -0.17951996928E-01 -0.23629769667E-01  0.32220915273E-01  0.51100000000E-03 0. -1.
         11    1    3    3    0    0 -0.63410162314E-01 -0.32604645998E-01  0.42893550796E-02  0.71432284811E-01  0.51100000000E-03 0.  1.
</event>
<event>
 8    1  0.2077555E+004  0.1043930E+01  0.7957747E-01            NaN
         13   -1    0    0    0    0  0.00000000000E+00  0.00000000000E+00  0.74505805969E-08  0.10566000000E+00  0.10566000000E+00 0. -1.
     999900   -1    0    0    0    0 -0.00000000000E+00 -0.00000000000E+00 -0.74505805969E-08  0.93827000000E+00  0.93827000000E+00 0.  1.
     999902    2    1    2    0    0  0.89130974066E-02 -0.89985120842E-02 -0.73126049415E-02  0.10293049969E+01  0.10292010911E+01 0.  0.
     999903    2    3    3    0    0  0.11506230866E+00  0.59553542263E-01  0.28855025418E-01  0.13954371615E+00  0.43056671431E-01 0.  0.
         14    1    1    2    0    0 -0.89130974066E-02  0.89985120842E-02  0.73126049415E-02  0.14625003116E-01  0.00000000000E+00 0. -1.
     999901    1    3    3    0    0 -0.10614921126E+00 -0.68552054348E-01 -0.36167630360E-01  0.88976128073E+00  0.88000000000E+00 0.  1.
        -11    1    4    4    0    0  0.85261635195E-01  0.61217567303E-01  0.31464682718E-01  0.10957839368E+00  0.51100000000E-03 0.  1.
         11    1    4    4    0    0  0.29800673467E-01 -0.16640250394E-02 -0.26096572999E-02  0.29965322468E-01  0.51100000000E-03 0. -1.
</event>
<event>
 8    1  0.2077555E+004  0.1043930E+01  0.7957747E-01            NaN
         13   -1    0    0    0    0  0.00000000000E+00  0.00000000000E+00  0.74505805969E-08  0.10566000000E+00  0.10566000000E+00 0.  1.
     999900   -1    0    0    0    0 -0.00000000000E+00 -0.00000000000E+00 -0.74505805969E-08  0.93827000000E+00  0.93827000000E+00 0.  1.
     999902    2    1    2    0    0 -0.12862053789E-01 -0.35584324093E-02 -0.15905731402E-02  0.10304903277E+01  0.10304026837E+01 0.  0.
     999903    2    3    3    0    0  0.40748838340E-01 -0.84639701484E-01 -0.95734865833E-01  0.14014688396E+00  0.40640345149E-01 0.  0.
         14    1    1    2    0    0  0.12862053789E-01  0.35584324093E-02  0.15905731402E-02  0.13439672310E-01  0.00000000000E+00 0. -1.
     999901    1    3    3    0    0 -0.53610892129E-01  0.81081269075E-01  0.94144292693E-01  0.89034344373E+00  0.88000000000E+00 0. -1.
        -11    1    4    4    0    0  0.44999322694E-01 -0.57322617848E-01 -0.56825269858E-01  0.92413169923E-01  0.51100000000E-03 0. -1.
         11    1    4    4    0    0 -0.42504843541E-02 -0.27317083637E-01 -0.38909595975E-01  0.47733714035E-01  0.51100000000E-03 0.  1.
</event>
<event>
 7    1  0.2077555E+004  0.1043930E+01  0.7957747E-01            NaN
         13   -1    0    0    0    0  0.00000000000E+00  0.00000000000E+00  0.74505805969E-08  0.10566000000E+00  0.10566000000E+00 0.  1.
     999900   -1    0    0    0    0 -0.00000000000E+00 -0.00000000000E+00 -0.74505805969E-08  0.93827000000E+00  0.93827000000E+00 0. -1.
     999903    2    1    2    0    0  0.61516872163E-02  0.10858402130E+00 -0.41847754790E-01  0.12459447714E+00  0.44093267226E-01 0.  0.
         14    1    1    2    0    0  0.23828102464E-01  0.13459471861E-01  0.12065848935E-01  0.29908536579E-01  0.00000000000E+00 0.  1.
     999901    1    1    2    0    0 -0.29979789680E-01 -0.12204349316E+00  0.29781905855E-01  0.88942698628E+00  0.88000000000E+00 0.  1.
        -11    1    3    3    0    0  0.85278137144E-02  0.88046373430E-02 -0.18322633752E-01  0.22050516413E-01  0.51100000000E-03 0.  1.
         11    1    3    3    0    0 -0.23761264980E-02  0.99779383958E-01 -0.23525121038E-01  0.10254396072E+00  0.51100000000E-03 0. -1.
</event>
<event>
 8    1  0.2077555E+004  0.1043930E+01  0.7957747E-01            NaN
         13   -1    0    0    0    0  0.00000000000E+00  0.00000000000E+00  0.74505805969E-08  0.10566000000E+00  0.10566000000E+00 0. -1.
     999900   -1    0    0    0    0 -0.00000000000E+00 -0.00000000000E+00 -0.74505805969E-08  0.93827000000E+00  0.93827000000E+00 0.  1.
     999902    2    1    2    0    0  0.14799418729E-01  0.92096302256E-02  0.54174950161E-02  0.10256765254E+01  0.10255140883E+01 0.  0.
     999903    2    3    3    0    0 -0.72535179247E-01 -0.72287372348E-01  0.75291067933E-01  0.13486149989E+00  0.45078407400E-01 0.  0.
         14    1    1    2    0    0 -0.14799418729E-01 -0.92096302256E-02 -0.54174950161E-02  0.18253474624E-01  0.00000000000E+00 0. -1.
     999901    1    3    3    0    0  0.87334597976E-01  0.81497002574E-01 -0.69873572917E-01  0.89081502548E+00  0.88000000000E+00 0.  1.
        -11    1    4    4    0    0 -0.42247183889E-01 -0.64324271973E-01  0.68012603325E-01  0.10270546160E+00  0.51100000000E-03 0.  1.
         11    1    4    4    0    0 -0.30287995358E-01 -0.79631003753E-02  0.72784646077E-02  0.32156038289E-01  0.51100000000E-03 0. -1.
</event>
<event>
 8    1  0.2077555E+004  0.1043930E+01  0.7957747E-01            NaN
         13   -1    0    0    0    0  0.00000000000E+00  0.00000000000E+00  0.74505805969E-08  0.10566000000E+00  0.10566000000E+00 0. -1.
     999900   -1    0    0    0    0 -0.00000000000E+00 -0.00000000000E+00 -0.74505805969E-08  0.93827000000E+00  0.93827000000E+00 0. -1.
     999902    2    1    2    0    0  0.43891693405E-02  0.52466183331E-02 -0.12795833133E-01  0.10294205149E+01  0.10293182556E+01 0.  0.
     999903    2    3    3    0    0 -0.80159223728E-02 -0.19710306857E-01 -0.13192418559E+00  0.14095650397E+00  0.44855256771E-01 0.  0.
         14    1    1    2    0    0 -0.43891693405E-02 -0.52466183331E-02  0.12795833133E-01  0.14509485071E-01  0.00000000000E+00 0. -1.
     999901    1    3    3    0    0  0.12405091713E-01  0.24956925190E-01  0.11912835245E+00  0.88846401096E+00  0.88000000000E+00 0.  1.
        -11    1    4    4    0    0  0.16841014787E-01 -0.18018849989E-01 -0.62237413176E-01  0.66948154969E-01  0.51100000000E-03 0.  1.
         11    1    4    4    0    0 -0.24856937160E-01 -0.16914568676E-02 -0.69686772412E-01  0.74008348999E-01  0.51100000000E-03 0. -1.
</event>
<event>
 8    1  0.2077555E+004  0.1043930E+01  0.7957747E-01            NaN
         13   -1    0    0    0    0  0.00000000000E+00  0.00000000000E+00  0.74505805969E-08  0.10566000000E+00  0.10566000000E+00 0. -1.
     999900   -1    0    0    0    0 -0.00000000000E+00 -0.00000000000E+00 -0.74505805969E-08  0.93827000000E+00  0.93827000000E+00 0.  1.
     999902    2    1    2    0    0 -0.72752783010E-02 -0.68472023443E-02 -0.80546402673E-02  0.10310967976E+01  0.10310169324E+01 0.  0.
     999903    2    3    3    0    0 -0.24950545781E-01  0.78045009524E-01 -0.10297656795E+00  0.14175475143E+00  0.52694238386E-01 0.  0.
         14    1    1    2    0    0  0.72752783010E-02  0.68472023443E-02  0.80546402673E-02  0.12833202412E-01  0.00000000000E+00 0. -1.
     999901    1    3    3    0    0  0.17675267480E-01 -0.84892211869E-01  0.94921927681E-01  0.88934204616E+00  0.88000000000E+00 0. -1.
        -11    1    4    4    0    0 -0.40580236795E-01  0.56559285574E-01 -0.84023442946E-01  0.10911419930E+00  0.51100000000E-03 0.  1.
         11    1    4    4    0    0  0.15629691014E-01  0.21485723951E-01 -0.18953125003E-01  0.32640552129E-01  0.51100000000E-03 0. -1.
</event>
<event>
 8    1  0.2077555E+004  0.1043930E+01  0.7957747E-01            NaN
         13   -1    0    0    0    0  0.00000000000E+00  0.00000000000E+00  0.74505805969E-08  0.10566000000E+00  0.10566000000E+00 0.  1.
     999900   -1    0    0    0    0 -0.00000000000E+00 -0.00000000000E+00 -0.74505805969E-08  0.93827000000E+00  0.93827000000E+00 0. -1.
     999902    2    1    2    0    0 -0.12764618570E-02 -0.11599136879E-01 -0.55109774413E-02  0.10310249543E+01  0.10309441868E+01 0.  0.
     999903    2    3    3    0    0 -0.11775770627E+00 -0.56208801655E-01 -0.33055030657E-01  0.14180249772E+00  0.44598279545E-01 0.  0.
         14    1    1    2    0    0  0.12764618570E-02  0.11599136879E-01  0.55109774413E-02  0.12905045663E-01  0.00000000000E+00 0.  1.
     999901    1    3    3    0    0  0.11648124441E+00  0.44609664776E-01  0.27544053216E-01  0.88922245662E+00  0.88000000000E+00 0. -1.
        -11    1    4    4    0    0 -0.10601533283E+00 -0.51223401681E-01 -0.43280357628E-01  0.12544535923E+00  0.51100000000E-03 0.  1.
         11    1    4    4    0    0 -0.11742373433E-01 -0.49853999742E-02  0.10225326971E-01  0.16357138485E-01  0.51100000000E-03 0. -1.
</event>
<event>
 8    1  0.2077555E+004  0.1043930E+01  0.7957747E-01            NaN
         13   -1    0    0    0    0  0.00000000000E+00  0.00000000000E+00  0.74505805969E-08  0.10566000000E+00  0.10566000000E+00 0. -1.
     999900   -1    0    0    0    0 -0.00000000000E+00 -0.00000000000E+00 -0.74505805969E-08  0.93827000000E+00  0.93827000000E+00 0.  1.
     999902    2    1    2    0    0  0.38047486469E-03  0.52794388007E-02  0.12963825139E-01  0.10299272147E+01  0.10298320200E+01 0.  0.
     999903    2    3    3    0    0  0.88760014988E-01 -0.39421204888E-01 -0.88181396694E-01  0.13861388784E+00  0.44782580586E-01 0.  0.
         14    1    1    2    0    0 -0.38047486469E-03 -0.52794388007E-02 -0.12963825139E-01  0.14002785344E-01  0.00000000000E+00 0.  1.
     999901    1    3    3    0    0 -0.88379540123E-01  0.44700643689E-01  0.10114522183E+00  0.89131332682E+00  0.88000000000E+00 0. -1.
        -11    1    4    4    0    0  0.13471628955E-01 -0.18493363667E-01 -0.31051338502E-02  0.23095286611E-01  0.51100000000E-03 0.  1.
         11    1    4    4    0    0  0.75288386032E-01 -0.20927841222E-01 -0.85076262844E-01  0.11551860123E+00  0.51100000000E-03 0. -1.
</event>
<event>
 8    1  0.2077555E+004  0.1043930E+01  0.7957747E-01            NaN
         13   -1    0    0    0    0  0.00000000000E+00  0.00000000000E+00  0.74505805969E-08  0.10566000000E+00  0.10566000000E+00 0. -1.
     999900   -1    0    0    0    0 -0.00000000000E+00 -0.00000000000E+00 -0.74505805969E-08  0.93827000000E+00  0.93827000000E+00 0. -1.
     999902    2    1    2    0    0  0.81870926737E-02 -0.64785657698E-02  0.87953183216E-02  0.10302787024E+01  0.10301882579E+01 0.  0.
     999903    2    3    3    0    0 -0.43552340278E-01  0.11794052548E+00 -0.38835566271E-01  0.13874868030E+00  0.44002513385E-01 0.  0.
         14    1    1    2    0    0 -0.81870926737E-02  0.64785657698E-02 -0.87953183216E-02  0.13651297567E-01  0.00000000000E+00 0.  1.
     999901    1    3    3    0    0  0.51739432951E-01 -0.12441909125E+00  0.47630884593E-01  0.89153002213E+00  0.88000000000E+00 0.  1.
        -11    1    4    4    0    0 -0.26932163113E-01  0.38846189943E-01  0.36989727295E-02  0.47416362189E-01  0.51100000000E-03 0.  1.
         11    1    4    4    0    0 -0.16620177164E-01  0.79094335538E-01 -0.42534539001E-01  0.91332318115E-01  0.51100000000E-03 0. -1.
</event>
<event>
 8    1  0.2077555E+004  0.1043930E+01  0.7957747E-01            NaN
         13   -1    0    0    0    0  0.00000000000E+00  0.00000000000E+00  0.74505805969E-08  0.10566000000E+00  0.10566000000E+00 0.  1.
     999900   -1    0    0    0    0 -0.00000000000E+00 -0.00000000000E+00 -0.74505805969E-08  0.93827000000E+00  0.93827000000E+00 0.  1.
     999902    2    1    2    0    0  0.48072814390E-02  0.69797037348E-02  0.11220367857E-01  0.10298686034E+01  0.10297726047E+01 0.  0.
     999903    2    3    3    0    0  0.94568401476E-01  0.94222999646E-01 -0.85113163462E-02  0.14079167159E+00  0.43916922270E-01 0.  0.
         14    1    1    2    0    0 -0.48072814390E-02 -0.69797037348E-02 -0.11220367857E-01  0.14061396584E-01  0.00000000000E+00 0. -1.
     999901    1    3    3    0    0 -0.89761120037E-01 -0.87243295911E-01  0.19731684203E-01  0.88907693183E+00  0.88000000000E+00 0.  1.
        -11    1    4    4    0    0  0.45202865198E-01  0.51585707565E-01  0.17137196377E-01  0.70698860442E-01  0.51100000000E-03 0.  1.
         11    1    4    4    0    0  0.49365536278E-01  0.42637292081E-01 -0.25648512723E-01  0.70092811143E-01  0.51100000000E-03 0. -1.
</event>
<event>
 8    1  0.2077555E+004  0.1043930E+01  0.7957747E-01            NaN
         13   -1    0    0    0    0  0.00000000000E+00  0.00000000000E+00  0.74505805969E-08  0.10566000000E+00  0.10566000000E+00 0.  1.
     999900   -1    0    0    0    0 -0.00000000000E+00 -0.00000000000E+00 -0.74505805969E-08  0.93827000000E+00  0.93827000000E+00 0.  1.
     999902    2    1    2    0    0 -0.27402689374E-02 -0.10858318883E-01 -0.34727029106E-02  0.10322051619E+01  0.10321385684E+01 0.  0.
     999903    2    3    3    0    0  0.16719700606E-01 -0.13405940232E+00  0.15139857416E-01  0.14321493430E+00  0.45053638969E-01 0.  0.
         14    1    1    2    0    0  0.27402689374E-02  0.10858318883E-01  0.34727029106E-02  0.11724838093E-01  0.00000000000E+00 0.  1.
     999901    1    3    3    0    0 -0.19459969543E-01  0.12320108344E+00 -0.18612560327E-01  0.88899022761E+00  0.88000000000E+00 0.  1.
        -11    1    4    4    0    0  0.30804889880E-01 -0.82090435682E-01  0.16164398139E-02  0.87696378886E-01  0.51100000000E-03 0.  1.
         11    1    4    4    0    0 -0.14085189274E-01 -0.51968966642E-01  0.13523417602E-01  0.55518555415E-01  0.51100000000E-03 0. -1.
</event>
<event>
 8    1  0.2077555E+004  0.1043930E+01  0.7957747E-01            NaN
         13   -1    0    0    0    0  0.00000000000E+00  0.00000000000E+00  0.74505805969E-08  0.10566000000E+00  0.10566000000E+00 0. -1.
     999900   -1    0    0    0    0 -0.00000000000E+00 -0.00000000000E+00 -0.74505805969E-08  0.93827000000E+00  0.93827000000E+00 0.  1.
     999902    2    1    2    0    0 -0.16381614757E-01 -0.17243493158E-01  0.95862611023E-02  0.10182864480E+01  0.10179635054E+01 0.  0.
     999903    2    3    3    0    0 -0.44272812982E-01  0.59661178822E-01 -0.94623164511E-01  0.12836968114E+00  0.44784970099E-01 0.  0.
         14    1    1    2    0    0  0.16381614757E-01  0.17243493158E-01 -0.95862611023E-02  0.25643552021E-01  0.00000000000E+00 0.  1.
     999901    1    3    3    0    0  0.27891198225E-01 -0.76904671980E-01  0.10420942561E+00  0.88991676684E+00  0.88000000000E+00 0. -1.
        -11    1    4    4    0    0 -0.69883696009E-02  0.39145346755E-01 -0.25647478882E-01  0.47320711917E-01  0.51100000000E-03 0. -1.
         11    1    4    4    0    0 -0.37284443381E-01  0.20515832067E-01 -0.68975685628E-01  0.81048969226E-01  0.51100000000E-03 0.  1.
</event>
<event>
 8    1  0.2077555E+004  0.1043930E+01  0.7957747E-01            NaN
         13   -1    0    0    0    0  0.00000000000E+00  0.00000000000E+00  0.74505805969E-08  0.10566000000E+00  0.10566000000E+00 0.  1.
     999900   -1    0    0    0    0 -0.00000000000E+00 -0.00000000000E+00 -0.74505805969E-08  0.93827000000E+00  0.93827000000E+00 0. -1.
     999902    2    1    2    0    0 -0.83739248981E-02 -0.10465433338E-01 -0.40309929727E-02  0.10299336856E+01  0.10298385795E+01 0.  0.
     999903    2    3    3    0    0 -0.92255020206E-01  0.90427472540E-01  0.27164311289E-01  0.13965925394E+00  0.45592662362E-01 0.  0.
         14    1    1    2    0    0  0.83739248981E-02  0.10465433338E-01  0.40309929727E-02  0.13996314425E-01  0.00000000000E+00 0. -1.
     999901    1    3    3    0    0  0.83881095308E-01 -0.10089290588E+00 -0.31195304262E-01  0.89027443163E+00  0.88000000000E+00 0.  1.
        -11    1    4    4    0    0 -0.57414064139E-01  0.83635985005E-01  0.18566994407E-01  0.10313266772E+00  0.51100000000E-03 0.  1.
         11    1    4    4    0    0 -0.34840956067E-01  0.67914875343E-02  0.85973168828E-02  0.36526586224E-01  0.51100000000E-03 0. -1.
</event>
<event>
 8    1  0.2077555E+004  0.1043930E+01  0.7957747E-01            NaN
         13   -1    0    0    0    0  0.00000000000E+00  0.00000000000E+00  0.74505805969E-08  0.10566000000E+00  0.10566000000E+00 0.  1.
     999900   -1    0    0    0    0 -0.00000000000E+00 -0.00000000000E+00 -0.74505805969E-08  0.93827000000E+00  0.93827000000E+00 0.  1.
     999902    2    1    2    0    0  0.77857635696E-02  0.99708808634E-02 -0.83599730259E-02  0.10287666980E+01  0.10286549437E+01 0.  0.
     999903    2    3    3    0    0 -0.12825559151E+00 -0.14955688400E-01  0.15862039339E-01  0.13763523178E+00  0.44929760348E-01 0.  0.
         14    1    1    2    0    0 -0.77857635696E-02 -0.99708808634E-02  0.83599730259E-02  0.15163302033E-01  0.00000000000E+00 0.  1.
     999901    1    3    3    0    0  0.13604135508E+00  0.24926569263E-01 -0.24222012365E-01  0.89113146619E+00  0.88000000000E+00 0. -1.
        -11    1    4    4    0    0 -0.84204752877E-02 -0.21736010662E-02  0.14730834001E-01  0.17113957375E-01  0.51100000000E-03 0. -1.
         11    1    4    4    0    0 -0.11983511623E+00 -0.12782087334E-01  0.11312053380E-02  0.12052127440E+00  0.51100000000E-03 0.  1.
</event>
<event>
 8    1  0.2077555E+004  0.1043930E+01  0.7957747E-01            NaN
         13   -1    0    0    0    0  0.00000000000E+00  0.00000000000E+00  0.74505805969E-08  0.10566000000E+00  0.10566000000E+00 0. -1.
     999900   -1    0    0    0    0 -0.00000000000E+00 -0.00000000000E+00 -0.74505805969E-08  0.93827000000E+00  0.93827000000E+00 0.  1.
     999902    2    1    2    0    0  0.67742728805E-03 -0.12019233252E-01 -0.71075699261E-02  0.10299500706E+01  0.10298551886E+01 0.  0.
     999903    2    3    3    0    0 -0.28785852823E-01 -0.12140752746E+00  0.47815800805E-01  0.14098974503E+00  0.44981600132E-01 0.  0.
         14    1    1    2    0    0 -0.67742728805E-03  0.12019233252E-01  0.71075699261E-02  0.13979929397E-01  0.00000000000E+00 0. -1.
     999901    1    3    3    0    0  0.29463280111E-01  0.10938829421E+00 -0.54923370731E-01  0.88896032557E+00  0.88000000000E+00 0.  1.
        -11    1    4    4    0    0 -0.21679112114E-01 -0.46656687260E-01  0.40627659707E-01  0.65556832004E-01  0.51100000000E-03 0. -1.
         11    1    4    4    0    0 -0.71067407085E-02 -0.74750840203E-01  0.71881410976E-02  0.75432913028E-01  0.51100000000E-03 0.  1.
</event>
